Title
81335
    1CHL1    C3    1   5.740   1.488  10.258 -0.0097  0.1576  0.0561
    1CHL1    H3    2   5.824   1.438  10.206 -1.4166 -0.8894 -1.2695
    1CHL1    O3    3   5.773   1.494  10.397  0.3028  0.0708 -0.5161
    1CHL1   H3'    4   5.712   1.560  10.431  2.7534  1.8552  0.6036
    1CHL1    C4    5   5.717   1.631  10.189 -0.5288  0.1995 -0.1309
    1CHL1   H4A    6   5.647   1.700  10.240  0.3170  0.1716  1.1031
    1CHL1   H4B    7   5.814   1.685  10.195  0.1986 -1.3388  2.8401
    1CHL1    C5    8   5.671   1.611  10.045  0.1055 -0.0932  0.2765
    1CHL1    C6    9   5.738   1.680   9.952  0.5203 -0.1263  0.2909
    1CHL1    H6   10   5.826   1.743   9.973  0.3110  0.7874 -1.5043
    1CHL1    C7   11   5.687   1.687   9.808 -0.2298  0.0303 -0.0385
    1CHL1   H7A   12   5.680   1.793   9.775 -0.0009  0.2339  0.5500
    1CHL1   H7B   13   5.757   1.639   9.737  0.0890  2.0258 -1.1110
    1CHL1    C8   14   5.552   1.624   9.790 -0.6313 -0.4377  0.3457
    1CHL1    H8   15   5.476   1.692   9.831  1.1160  0.2062  2.6190
    1CHL1   C14   16   5.534   1.584   9.643 -0.1622 -0.2278 -0.0287
    1CHL1   H14   17   5.605   1.500   9.630 -0.8042 -0.7144 -0.3984
    1CHL1   C15   18   5.564   1.685   9.536  0.0970 -0.2820  0.5357
    1CHL1  H15A   19   5.508   1.776   9.567  0.6525  0.4252 -0.5514
    1CHL1  H15B   20   5.670   1.717   9.528  0.0484  0.2501  1.8689
    1CHL1   C16   21   5.509   1.617   9.411  0.3308  0.1258 -0.1062
    1CHL1  H16A   22   5.457   1.693   9.349 -1.5241 -1.2633 -0.2866
    1CHL1  H16B   23   5.588   1.570   9.348  0.5960  0.4155  0.0136
    1CHL1   C17   24   5.404   1.509   9.452 -0.0930 -0.0340 -0.5463
    1CHL1   H17   25   5.454   1.413   9.426  0.8845  0.9727 -2.5014
    1CHL1   C13   26   5.392   1.527   9.605  0.2751 -0.2547  0.2988
    1CHL1   C18   27   5.286   1.632   9.642  0.5535  0.1931 -0.6401
    1CHL1  H18A   28   5.187   1.585   9.620  1.5121 -2.4572  0.5245
    1CHL1  H18B   29   5.284   1.656   9.750  0.3076 -1.9437 -0.1457
    1CHL1  H18C   30   5.296   1.727   9.585  1.3749  1.9256  2.2592
    1CHL1   C12   31   5.382   1.397   9.688 -0.8605  0.8115  0.1885
    1CHL1  H12A   32   5.280   1.354   9.676 -0.7706  0.2669  1.3005
    1CHL1  H12B   33   5.446   1.316   9.647 -0.6751 -0.0921  2.2220
    1CHL1   C11   34   5.405   1.413   9.839  0.1046  0.1433  0.2326
    1CHL1  H11A   35   5.316   1.473   9.867  0.9554  0.6687  1.8515
    1CHL1  H11B   36   5.399   1.312   9.886 -1.9661  0.2587  0.2467
    1CHL1    C9   37   5.540   1.496   9.876 -0.2217 -0.0412 -0.0121
    1CHL1    H9   38   5.624   1.431   9.842 -3.3908 -3.9264 -0.7637
    1CHL1   C10   39   5.550   1.520  10.026 -0.0595 -0.2915 -0.6804
    1CHL1   C19   40   5.420   1.570  10.088 -1.0739  0.2136 -0.4048
    1CHL1  H19A   41   5.440   1.606  10.191  1.1573 -1.4263 -0.2437
    1CHL1  H19B   42   5.400   1.658  10.023  2.0418  0.9508 -0.4313
    1CHL1  H19C   43   5.335   1.500  10.100  1.3996 -2.9095 -0.5733
    1CHL1    C1   44   5.587   1.383  10.088 -0.3171  1.1923  0.2096
    1CHL1   H1A   45   5.516   1.298  10.077  2.1913 -0.8912 -0.4290
    1CHL1   H1B   46   5.680   1.337  10.048  0.2172  0.9395  1.6949
    1CHL1    C2   47   5.619   1.395  10.236 -0.2554 -0.2600  0.4956
    1CHL1   H2A   48   5.642   1.293  10.276  1.0002 -0.4275 -0.5943
    1CHL1   H2B   49   5.538   1.430  10.303 -1.7684 -1.0518 -0.8774
    1CHL1   C20   50   5.272   1.506   9.373 -0.1728 -0.1336  0.5429
    1CHL1   H20   51   5.210   1.592   9.406  0.4167 -0.0813  1.5073
    1CHL1   C21   52   5.191   1.380   9.412 -0.3630 -0.1509  0.1322
    1CHL1  H21A   53   5.094   1.374   9.359 -0.3615 -0.9143  0.2139
    1CHL1  H21B   54   5.156   1.383   9.518  0.7403 -0.6850  0.5299
    1CHL1  H21C   55   5.249   1.289   9.383 -0.7793 -0.6324  0.7888
    1CHL1   C22   56   5.297   1.501   9.222  0.1156 -0.2358  0.3202
    1CHL1  H22A   57   5.349   1.593   9.189 -0.3813 -0.3512 -0.8264
    1CHL1  H22B   58   5.355   1.415   9.182 -2.4637 -2.4664  1.1809
    1CHL1   C23   59   5.162   1.499   9.138  0.4451  0.6461 -0.1044
    1CHL1  H23A   60   5.115   1.399   9.149  0.6869  0.4342 -0.9988
    1CHL1  H23B   61   5.096   1.578   9.180 -1.0199 -0.0113 -1.1248
    1CHL1   C24   62   5.188   1.530   8.987 -0.2337 -0.5653 -0.0782
    1CHL1  H24A   63   5.220   1.635   8.970 -0.4546 -0.5284 -0.2630
    1CHL1  H24B   64   5.272   1.463   8.959 -0.7789 -1.8369  1.2661
    1CHL1   C25   65   5.068   1.507   8.886 -0.3565 -0.6650  0.7109
    1CHL1   H25   66   5.027   1.407   8.908  0.6065 -0.7397  2.2944
    1CHL1   C26   67   4.958   1.612   8.905 -0.2859  0.1001  0.2718
    1CHL1  H26A   68   4.910   1.603   9.005  0.6151  0.7367  0.7720
    1CHL1  H26B   69   4.995   1.717   8.898  0.6424 -0.1976  0.5545
    1CHL1  H26C   70   4.878   1.607   8.829  1.5997  0.5248 -1.8146
    1CHL1   C27   71   5.119   1.496   8.744 -0.4765  0.1209 -0.3939
    1CHL1  H27A   72   5.178   1.580   8.702  0.3794  0.4454  1.4091
    1CHL1  H27B   73   5.177   1.401   8.748 -1.7162 -0.5640  2.1644
    1CHL1  H27C   74   5.046   1.473   8.663 -0.5292 -0.6039 -0.1432
    2CHL1    C3   75   6.368   6.475  10.054 -0.7885  0.1118 -0.5794
    2CHL1    H3   76   6.410   6.372  10.057 -1.7559 -0.2505  1.0453
    2CHL1    O3   77   6.349   6.512  10.191 -0.0613  0.2180 -0.8063
    2CHL1   H3'   78   6.281   6.454  10.226  0.9342 -0.7788 -0.5148
    2CHL1    C4   79   6.473   6.569   9.986  0.9321  0.0578  0.3462
    2CHL1   H4A   80   6.457   6.678   9.998  3.0777  0.5316 -0.9509
    2CHL1   H4B   81   6.567   6.548  10.041  0.1289  0.0445  1.7604
    2CHL1    C5   82   6.493   6.533   9.841  0.5527  1.0056 -0.6783
    2CHL1    C6   83   6.613   6.508   9.791 -0.1516  0.1783 -0.6884
    2CHL1    H6   84   6.695   6.487   9.861 -2.7751 -0.9142  2.1871
    2CHL1    C7   85   6.640   6.473   9.643  0.1746 -0.1903 -0.3253
    2CHL1   H7A   86   6.735   6.508   9.598  0.1281 -0.3514 -0.5466
    2CHL1   H7B   87   6.642   6.364   9.620  0.3187 -0.4291  0.7545
    2CHL1    C8   88   6.521   6.537   9.562  0.0596  0.7297  0.4788
    2CHL1    H8   89   6.537   6.647   9.568 -0.4668  0.7801  1.0129
    2CHL1   C14   90   6.539   6.512   9.413  0.0396  0.0008 -0.1116
    2CHL1   H14   91   6.544   6.401   9.409  0.2914 -0.2405  3.8791
    2CHL1   C15   92   6.670   6.559   9.349 -0.3790  0.0926 -0.3558
    2CHL1  H15A   93   6.694   6.658   9.393 -1.1109 -0.2449  0.8121
    2CHL1  H15B   94   6.752   6.486   9.370  0.0281  0.3258 -1.1100
    2CHL1   C16   95   6.626   6.573   9.200  0.0912 -0.0976  0.2848
    2CHL1  H16A   96   6.644   6.678   9.169 -1.3826  0.2891  0.7249
    2CHL1  H16B   97   6.698   6.524   9.131 -0.5502  2.0814 -2.0138
    2CHL1   C17   98   6.481   6.527   9.184  0.3523  0.0218  0.6439
    2CHL1   H17   99   6.471   6.416   9.177  2.5833 -0.1777  0.2924
    2CHL1   C13  100   6.421   6.559   9.327 -0.5772  0.5393  0.3529
    2CHL1   C18  101   6.406   6.716   9.339 -0.4404  0.1377  0.3041
    2CHL1  H18A  102   6.301   6.749   9.330  0.0343  1.2972 -1.2260
    2CHL1  H18B  103   6.438   6.750   9.439  1.4487 -0.5727 -0.0398
    2CHL1  H18C  104   6.475   6.763   9.265 -0.4926 -0.7712 -0.3437
    2CHL1   C12  105   6.288   6.486   9.369  0.2485  0.1448 -0.1599
    2CHL1  H12A  106   6.199   6.519   9.313  0.3236 -0.6329 -0.7568
    2CHL1  H12B  107   6.297   6.375   9.369 -0.5067  0.0835 -0.2850
    2CHL1   C11  108   6.263   6.528   9.516 -0.2233  0.0061  0.2293
    2CHL1  H11A  109   6.229   6.633   9.522  1.0118  0.3421  1.5312
    2CHL1  H11B  110   6.179   6.467   9.555  1.4126 -1.7239  1.1421
    2CHL1    C9  111   6.381   6.491   9.614  0.2910 -0.7904 -0.5560
    2CHL1    H9  112   6.384   6.380   9.625  1.5109 -0.7978 -0.8023
    2CHL1   C10  113   6.360   6.542   9.758  0.2374  0.6117 -0.1887
    2CHL1   C19  114   6.305   6.689   9.760  0.6740  0.0104 -0.4535
    2CHL1  H19A  115   6.280   6.716   9.865 -0.0822  0.8807 -0.8495
    2CHL1  H19B  116   6.377   6.767   9.726 -0.4272  1.2861  0.0956
    2CHL1  H19C  117   6.216   6.707   9.695  0.2069 -0.0664  0.1604
    2CHL1    C1  118   6.258   6.451   9.828 -0.0862  0.3907  0.3166
    2CHL1   H1A  119   6.161   6.468   9.775  1.3427  1.6307 -1.9938
    2CHL1   H1B  120   6.290   6.345   9.813 -0.9709  0.4262 -2.0631
    2CHL1    C2  121   6.236   6.479   9.980  0.3193  0.9101 -1.1226
    2CHL1   H2A  122   6.168   6.397  10.012  0.9641  0.6253 -0.4582
    2CHL1   H2B  123   6.191   6.577  10.004  0.7391  0.8622 -0.0652
    2CHL1   C20  124   6.419   6.598   9.064  0.3962 -0.1020 -0.1065
    2CHL1   H20  125   6.441   6.707   9.070  0.0931 -0.0045 -0.7130
    2CHL1   C21  126   6.263   6.576   9.064 -0.0850  0.1795 -0.0408
    2CHL1  H21A  127   6.210   6.629   9.147 -2.1456 -0.7943 -0.7001
    2CHL1  H21B  128   6.248   6.466   9.065 -0.7838  0.2715  1.2084
    2CHL1  H21C  129   6.230   6.609   8.963  1.1110  0.0433 -0.4806
    2CHL1   C22  130   6.481   6.540   8.930 -0.9758  0.0774 -0.1143
    2CHL1  H22A  131   6.592   6.544   8.942 -1.1389  1.7756  1.1152
    2CHL1  H22B  132   6.460   6.431   8.929 -3.0577  0.4665 -1.1506
    2CHL1   C23  133   6.435   6.616   8.796 -0.0985 -0.0506  0.4159
    2CHL1  H23A  134   6.327   6.593   8.780 -0.2365  0.3374  0.7821
    2CHL1  H23B  135   6.440   6.725   8.819  1.0108 -0.4492  2.1691
    2CHL1   C24  136   6.523   6.580   8.677 -0.4413 -0.2635 -0.0551
    2CHL1  H24A  137   6.519   6.668   8.608  3.4648  0.7879  0.9183
    2CHL1  H24B  138   6.628   6.586   8.713 -0.5550 -1.0011  0.3891
    2CHL1   C25  139   6.491   6.455   8.593 -0.0752 -0.3786  0.2003
    2CHL1   H25  140   6.520   6.370   8.658 -0.0922  0.4551  1.3100
    2CHL1   C26  141   6.343   6.447   8.555 -0.6723  0.2481  0.1557
    2CHL1  H26A  142   6.286   6.438   8.650 -0.2415  1.6604  0.5724
    2CHL1  H26B  143   6.298   6.534   8.502  0.5711  0.6165 -0.3193
    2CHL1  H26C  144   6.326   6.357   8.493  0.6104  1.0394 -1.3713
    2CHL1   C27  145   6.575   6.449   8.479 -0.5082  0.1640  0.6805
    2CHL1  H27A  146   6.682   6.445   8.510 -0.2757  1.1203 -0.0066
    2CHL1  H27B  147   6.563   6.365   8.408  0.1153 -0.7607  1.6547
    2CHL1  H27C  148   6.567   6.544   8.423 -2.7303  0.3576  1.2489
    3CHL1    C3  149   0.310   5.706  10.251 -0.3065  0.2725 -1.2204
    3CHL1    H3  150   0.414   5.744  10.257 -0.3590  0.3327 -0.6619
    3CHL1    O3  151   0.304   5.638  10.371  0.2727  0.0812  0.1117
    3CHL1   H3'  152   0.334   5.548  10.353 -0.5792 -0.3291  0.7215
    3CHL1    C4  153   0.219   5.827  10.241 -0.4124  0.3885  0.7529
    3CHL1   H4A  154   0.113   5.802  10.265 -0.0855 -0.0012  1.8202
    3CHL1   H4B  155   0.247   5.905  10.314 -0.5278  0.8780  0.2737
    3CHL1    C5  156   0.229   5.890  10.098 -0.2676  0.4848  0.4972
    3CHL1    C6  157   0.256   6.020  10.075 -0.6585 -0.5035  0.2693
    3CHL1    H6  158   0.288   6.083  10.159  1.2460 -1.5030  0.3369
    3CHL1    C7  159   0.249   6.089   9.942 -0.2702 -0.2013 -0.9531
    3CHL1   H7A  160   0.191   6.184   9.951 -1.7585 -1.2245  0.7786
    3CHL1   H7B  161   0.354   6.107   9.911  0.2441 -1.4315  0.0145
    3CHL1    C8  162   0.182   6.005   9.829  0.5909  0.0692 -0.3103
    3CHL1    H8  163   0.074   6.016   9.851  0.4649  0.3156 -1.0161
    3CHL1   C14  164   0.208   6.064   9.694 -0.2581 -0.5164 -0.6720
    3CHL1   H14  165   0.318   6.062   9.678  0.0336  0.7065  1.1137
    3CHL1   C15  166   0.163   6.214   9.672  0.6675 -0.1217 -0.6106
    3CHL1  H15A  167   0.059   6.206   9.710  0.6010  0.3553 -0.6947
    3CHL1  H15B  168   0.228   6.283   9.728  1.3625  0.1318 -1.7136
    3CHL1   C16  169   0.148   6.223   9.515 -0.0512 -0.1163  0.1496
    3CHL1  H16A  170   0.042   6.239   9.486 -0.1258 -0.9406 -0.0525
    3CHL1  H16B  171   0.216   6.298   9.470 -0.1875 -0.5463 -0.7771
    3CHL1   C17  172   0.185   6.081   9.458 -0.6423 -0.0217  0.1505
    3CHL1   H17  173   0.296   6.087   9.455 -0.5582 -1.8866 -0.9613
    3CHL1   C13  174   0.152   5.981   9.577  0.0442  0.1520  0.2729
    3CHL1   C18  175  -0.002   5.968   9.586  0.2482  0.2522 -0.4064
    3CHL1  H18A  176  -0.045   6.070   9.582  1.0064  0.5930 -0.1277
    3CHL1  H18B  177  -0.041   5.887   9.521 -0.2455 -1.5388  2.0509
    3CHL1  H18C  178  -0.041   5.916   9.676 -0.7208 -0.1317 -1.0440
    3CHL1   C12  179   0.224   5.847   9.587 -0.4270  0.1514 -0.2726
    3CHL1  H12A  180   0.181   5.781   9.509  2.0643 -1.2411 -0.5221
    3CHL1  H12B  181   0.333   5.855   9.568  0.2318 -2.5550  1.9059
    3CHL1   C11  182   0.195   5.773   9.719 -0.4137  0.0240 -0.3976
    3CHL1  H11A  183   0.094   5.725   9.721 -1.4523  2.2336  1.8297
    3CHL1  H11B  184   0.273   5.694   9.719  0.1541  0.5907  0.0486
    3CHL1    C9  185   0.228   5.861   9.841  0.2368  0.8235 -0.9270
    3CHL1    H9  186   0.337   5.875   9.829  0.6255 -0.3461  0.9909
    3CHL1   C10  187   0.197   5.802   9.983 -0.3325 -0.0336  0.5800
    3CHL1   C19  188   0.052   5.769   9.987 -0.3194  0.2358  0.3695
    3CHL1  H19A  189   0.023   5.690   9.915  3.3197 -0.4160 -0.4431
    3CHL1  H19B  190   0.026   5.737  10.090  2.1019 -1.7992  0.3728
    3CHL1  H19C  191  -0.017   5.849   9.952 -1.2074 -1.3457 -1.5708
    3CHL1    C1  192   0.276   5.668   9.998 -0.4730  0.3016  0.6142
    3CHL1   H1A  193   0.229   5.599   9.925 -1.1357  2.5401 -1.1499
    3CHL1   H1B  194   0.374   5.684   9.947 -1.7531 -0.6071 -2.2422
    3CHL1    C2  195   0.290   5.607  10.135 -0.1031 -0.1848  0.2060
    3CHL1   H2A  196   0.377   5.538  10.125  0.6739  0.7522  0.3872
    3CHL1   H2B  197   0.202   5.542  10.148  0.0129 -0.6625 -1.2805
    3CHL1   C20  198   0.116   6.054   9.325  0.2524 -0.2698  0.6818
    3CHL1   H20  199   0.006   6.043   9.335 -0.1418  2.4811 -0.2600
    3CHL1   C21  200   0.163   5.927   9.257 -0.3796 -0.3463 -0.3000
    3CHL1  H21A  201   0.151   5.841   9.327  3.1871  0.6482  1.6959
    3CHL1  H21B  202   0.271   5.934   9.230 -0.5842  1.6031 -0.6954
    3CHL1  H21C  203   0.110   5.897   9.165 -1.2533 -0.1612  0.1433
    3CHL1   C22  204   0.150   6.156   9.218  0.6996  0.2701  0.4920
    3CHL1  H22A  205   0.137   6.261   9.250 -2.2950  0.6487 -1.7316
    3CHL1  H22B  206   0.258   6.144   9.194  0.8993 -1.6155  2.1818
    3CHL1   C23  207   0.053   6.158   9.096  0.5977 -0.0144  0.8768
    3CHL1  H23A  208   0.060   6.057   9.051  0.1961  0.8980 -1.2748
    3CHL1  H23B  209  -0.049   6.174   9.136  0.5552  0.5037  0.5558
    3CHL1   C24  210   0.079   6.249   8.974 -0.1425 -0.1739  1.0493
    3CHL1  H24A  211   0.029   6.348   8.989 -0.5437 -0.3288  0.7318
    3CHL1  H24B  212   0.186   6.273   8.959 -0.0161 -1.0560  0.5632
    3CHL1   C25  213   0.026   6.199   8.838 -0.2075 -0.5569  0.4480
    3CHL1   H25  214   0.064   6.096   8.819 -0.2385 -0.4302 -0.3318
    3CHL1   C26  215  -0.127   6.187   8.841  0.5398 -0.7024  0.0383
    3CHL1  H26A  216  -0.147   6.111   8.920  3.5691 -0.4841  1.0666
    3CHL1  H26B  217  -0.182   6.279   8.871  0.4649  0.2670 -2.9730
    3CHL1  H26C  218  -0.174   6.156   8.745 -2.0414 -0.0053  1.0283
    3CHL1   C27  219   0.073   6.281   8.719 -0.1434 -1.2491 -0.2109
    3CHL1  H27A  220   0.044   6.388   8.727  0.1054 -1.1689 -0.3622
    3CHL1  H27B  221   0.184   6.274   8.722 -0.0060 -1.0893 -3.0849
    3CHL1  H27C  222   0.031   6.238   8.625 -0.9822 -0.9014 -0.0017
    4CHL1    C3  223   6.634   1.566  10.502 -0.3163  1.1882  0.3324
    4CHL1    H3  224   6.536   1.516  10.518  1.1340 -1.2388  2.0482
    4CHL1    O3  225   6.695   1.637  10.610  0.2092  0.1074  0.3013
    4CHL1   H3'  226   6.700   1.577  10.684  0.5843  0.1816  0.3372
    4CHL1    C4  227   6.736   1.473  10.441 -0.3177  0.1437  0.0195
    4CHL1   H4A  228   6.836   1.521  10.443 -0.9731  1.6468 -2.0327
    4CHL1   H4B  229   6.736   1.392  10.517 -1.6979 -1.0869 -1.2574
    4CHL1    C5  230   6.705   1.415  10.299  0.4168  0.2296  0.0299
    4CHL1    C6  231   6.701   1.280  10.278 -0.2639  0.3169  0.9463
    4CHL1    H6  232   6.713   1.211  10.363  0.6707 -0.8173 -0.0871
    4CHL1    C7  233   6.663   1.219  10.146  0.2551  0.1022 -0.1200
    4CHL1   H7A  234   6.730   1.137  10.115 -1.2338 -1.3010  0.3278
    4CHL1   H7B  235   6.559   1.179  10.144 -0.6755  2.3533  1.1659
    4CHL1    C8  236   6.678   1.324  10.030  0.4980 -0.2733  0.0026
    4CHL1    H8  237   6.786   1.329  10.004  0.4728  0.7345  0.1009
    4CHL1   C14  238   6.608   1.280   9.895  0.1515  0.2553  0.4050
    4CHL1   H14  239   6.503   1.264   9.929 -0.0687 -1.2816 -0.9379
    4CHL1   C15  240   6.650   1.140   9.841  0.8376 -0.4533 -0.1196
    4CHL1  H15A  241   6.761   1.141   9.832  0.8230 -1.1433 -0.4476
    4CHL1  H15B  242   6.620   1.052   9.902 -0.5075  1.8522  2.6441
    4CHL1   C16  243   6.591   1.148   9.696 -0.3555 -0.1089 -0.5212
    4CHL1  H16A  244   6.655   1.105   9.616 -0.7063  0.4962 -1.1418
    4CHL1  H16B  245   6.503   1.082   9.680  0.1987 -1.2153  0.9494
    4CHL1   C17  246   6.552   1.297   9.660  0.2553  1.1171 -0.3093
    4CHL1   H17  247   6.442   1.302   9.672  0.0395 -2.8695  0.0442
    4CHL1   C13  248   6.618   1.377   9.779  0.4318  0.1657 -0.2142
    4CHL1   C18  249   6.766   1.402   9.743 -0.2748 -0.4108  0.5179
    4CHL1  H18A  250   6.816   1.316   9.694 -0.1131 -0.9490  1.6120
    4CHL1  H18B  251   6.767   1.494   9.681 -0.9901 -0.0938  0.9733
    4CHL1  H18C  252   6.815   1.434   9.838 -1.0506  0.4732  0.6208
    4CHL1   C12  253   6.549   1.498   9.825 -0.0226 -1.3013 -0.2238
    4CHL1  H12A  254   6.553   1.577   9.747  2.5589  1.6305  2.7235
    4CHL1  H12B  255   6.445   1.465   9.843 -0.3427  1.5630  3.8009
    4CHL1   C11  256   6.605   1.560   9.953  0.2742  0.3844 -0.0511
    4CHL1  H11A  257   6.701   1.609   9.928  0.2915  1.3594  1.8952
    4CHL1  H11B  258   6.525   1.633   9.976 -0.4961 -1.1028  2.1381
    4CHL1    C9  259   6.616   1.465  10.071  0.3876  0.1881  0.1112
    4CHL1    H9  260   6.513   1.442  10.107  0.1028  1.7690  0.3343
    4CHL1   C10  261   6.678   1.526  10.200 -0.1660  0.0629  0.5221
    4CHL1   C19  262   6.806   1.607  10.171 -0.0896  0.0142  0.7377
    4CHL1  H19A  263   6.874   1.545  10.108  0.1201  0.0237  0.9588
    4CHL1  H19B  264   6.779   1.698  10.113 -0.1496 -0.6293 -0.2637
    4CHL1  H19C  265   6.859   1.634  10.264 -0.8571 -0.5267  1.3343
    4CHL1    C1  266   6.578   1.629  10.255  0.3369 -0.1614  0.4169
    4CHL1   H1A  267   6.571   1.716  10.186 -1.8847  0.0555  0.8946
    4CHL1   H1B  268   6.472   1.598  10.266  0.4537 -0.7914 -0.1906
    4CHL1    C2  269   6.613   1.676  10.396  0.3083  0.3683  0.0682
    4CHL1   H2A  270   6.536   1.744  10.439  0.9222  1.1860 -0.1241
    4CHL1   H2B  271   6.705   1.737  10.384  0.1449  0.5909 -0.0738
    4CHL1   C20  272   6.595   1.333   9.515  0.9170  0.6849  0.1333
    4CHL1   H20  273   6.698   1.371   9.503  0.6115  1.2817 -0.6446
    4CHL1   C21  274   6.498   1.450   9.474  0.1203  0.2948 -0.4127
    4CHL1  H21A  275   6.397   1.403   9.465  0.8330 -0.9265 -2.3724
    4CHL1  H21B  276   6.516   1.485   9.370  0.4114  0.2841 -0.3656
    4CHL1  H21C  277   6.500   1.543   9.536  1.7615 -0.6868  1.0343
    4CHL1   C22  278   6.571   1.213   9.406  0.0160  1.1754 -0.8976
    4CHL1  H22A  279   6.656   1.143   9.420 -0.0456  1.2270 -0.2734
    4CHL1  H22B  280   6.476   1.163   9.435 -1.9387  4.3301 -1.6284
    4CHL1   C23  281   6.561   1.258   9.261  0.0428  0.3016 -0.5208
    4CHL1  H23A  282   6.466   1.316   9.253  1.2106  2.8183  2.3759
    4CHL1  H23B  283   6.649   1.319   9.230 -1.2799  2.9769  0.7751
    4CHL1   C24  284   6.557   1.136   9.172 -0.0210  0.4771 -0.5745
    4CHL1  H24A  285   6.643   1.066   9.177  1.3472  2.0713 -1.1116
    4CHL1  H24B  286   6.462   1.088   9.202 -0.7458  1.9218 -0.4872
    4CHL1   C25  287   6.537   1.153   9.021  0.5134 -0.1616 -0.2340
    4CHL1   H25  288   6.455   1.228   9.018  1.7051  1.1227 -1.4524
    4CHL1   C26  289   6.654   1.209   8.948 -0.1426 -0.0135 -0.7664
    4CHL1  H26A  290   6.641   1.221   8.839  1.9891  2.3899 -0.7878
    4CHL1  H26B  291   6.685   1.308   8.986 -0.6621 -0.5928  1.2848
    4CHL1  H26C  292   6.730   1.129   8.961  0.6065  0.8948  0.5361
    4CHL1   C27  293   6.487   1.021   8.959 -0.4605  0.1349  0.8775
    4CHL1  H27A  294   6.397   0.987   9.016 -0.1734 -3.3567 -0.6666
    4CHL1  H27B  295   6.463   1.046   8.854 -1.6785  0.9543  1.3270
    4CHL1  H27C  296   6.567   0.947   8.976  0.3538  0.5470 -1.1126
    5CHL1    C3  297   0.835   5.709  10.215 -0.5592  0.0687  0.8544
    5CHL1    H3  298   0.891   5.802  10.195  0.7456 -1.2462 -1.8507
    5CHL1    O3  299   0.820   5.686  10.353 -0.4252 -0.3982 -0.1133
    5CHL1   H3'  300   0.776   5.601  10.359  0.4169 -0.6594  3.3623
    5CHL1    C4  301   0.697   5.724  10.152 -0.3168 -0.1866 -0.0645
    5CHL1   H4A  302   0.624   5.646  10.181 -0.4319  0.2920  0.9414
    5CHL1   H4B  303   0.644   5.802  10.210 -3.5925 -2.1924 -0.2241
    5CHL1    C5  304   0.705   5.750  10.001 -0.2058 -0.2811  0.1026
    5CHL1    C6  305   0.659   5.859   9.945 -0.1390  0.3582  0.2475
    5CHL1    H6  306   0.604   5.935  10.002  0.1900  1.2210 -0.5561
    5CHL1    C7  307   0.663   5.886   9.798 -0.3398 -0.3611  0.1715
    5CHL1   H7A  308   0.561   5.919   9.772  0.3057  1.2141 -0.4038
    5CHL1   H7B  309   0.735   5.971   9.789 -0.9292  0.2484  1.0793
    5CHL1    C8  310   0.698   5.756   9.712 -0.7860 -0.3218 -0.0374
    5CHL1    H8  311   0.609   5.691   9.719 -1.5331  0.9916  3.6203
    5CHL1   C14  312   0.732   5.799   9.570  0.3953  0.0929  0.3151
    5CHL1   H14  313   0.826   5.860   9.569 -0.0601  0.8091  0.6866
    5CHL1   C15  314   0.630   5.890   9.498 -0.4277 -0.4761 -0.4303
    5CHL1  H15A  315   0.526   5.857   9.519 -0.0404 -2.2038 -1.1784
    5CHL1  H15B  316   0.634   5.995   9.534  0.0100 -0.6441  0.0203
    5CHL1   C16  317   0.653   5.865   9.347 -0.5739  0.0425  0.2290
    5CHL1  H16A  318   0.565   5.817   9.299  1.1260  0.1107 -3.1235
    5CHL1  H16B  319   0.685   5.959   9.297 -1.4454 -0.3988 -1.2029
    5CHL1   C17  320   0.772   5.763   9.333 -0.6895 -0.4310 -0.1082
    5CHL1   H17  321   0.863   5.825   9.346 -1.4275  0.2428  2.1576
    5CHL1   C13  322   0.757   5.688   9.466 -0.1028 -0.0567 -0.2621
    5CHL1   C18  323   0.637   5.585   9.466 -0.1306  0.4376  0.2732
    5CHL1  H18A  324   0.541   5.637   9.444  0.8462  1.3862 -1.8644
    5CHL1  H18B  325   0.646   5.516   9.379  0.8265  0.3892  0.4050
    5CHL1  H18C  326   0.626   5.526   9.559  1.1778  0.4582  0.4385
    5CHL1   C12  327   0.882   5.623   9.524 -0.8191 -0.5348 -0.0907
    5CHL1  H12A  328   0.902   5.531   9.465 -1.0762 -1.8270  1.7608
    5CHL1  H12B  329   0.966   5.695   9.525 -0.1301 -1.2926  3.2515
    5CHL1   C11  330   0.872   5.575   9.672 -0.4861  0.2298  0.5848
    5CHL1  H11A  331   0.811   5.482   9.671 -0.4711  0.2203 -1.3007
    5CHL1  H11B  332   0.969   5.531   9.703  0.0221 -0.0896 -1.4105
    5CHL1    C9  333   0.815   5.682   9.771 -0.0493 -0.0597 -0.9010
    5CHL1    H9  334   0.893   5.760   9.783 -0.7907  0.3066  1.9066
    5CHL1   C10  335   0.781   5.640   9.918 -0.2352 -0.7665 -0.0552
    5CHL1   C19  336   0.697   5.504   9.911 -0.0862 -0.7670 -0.1818
    5CHL1  H19A  337   0.657   5.474  10.010 -2.4675  1.2199 -0.5118
    5CHL1  H19B  338   0.612   5.515   9.841  1.0315  2.9755 -1.0687
    5CHL1  H19C  339   0.764   5.420   9.882  1.1164  0.1872 -0.2316
    5CHL1    C1  340   0.922   5.619   9.986  0.0741 -0.1775  0.9348
    5CHL1   H1A  341   0.973   5.534   9.936 -0.5208 -0.7377  1.2650
    5CHL1   H1B  342   0.987   5.708   9.974 -0.8674  0.2446 -1.2042
    5CHL1    C2  343   0.913   5.594  10.137  0.3108 -0.4861 -0.5364
    5CHL1   H2A  344   1.006   5.587  10.198  1.5474 -0.2492 -2.3515
    5CHL1   H2B  345   0.850   5.505  10.155 -1.0901  0.4654 -0.6123
    5CHL1   C20  346   0.758   5.693   9.200 -0.3036 -0.2582  0.1602
    5CHL1   H20  347   0.670   5.626   9.194 -0.3821 -0.2910  1.3925
    5CHL1   C21  348   0.877   5.593   9.177  0.3252 -0.5099 -0.1105
    5CHL1  H21A  349   0.967   5.659   9.183 -1.5184  1.8923  2.0614
    5CHL1  H21B  350   0.875   5.545   9.077 -0.1134 -2.0104  0.6045
    5CHL1  H21C  351   0.872   5.516   9.258  2.2438 -1.5083 -0.8936
    5CHL1   C22  352   0.763   5.794   9.083  0.2656 -0.5915  0.1222
    5CHL1  H22A  353   0.697   5.882   9.101  0.1108 -0.7293  0.2304
    5CHL1  H22B  354   0.865   5.836   9.077  0.8229 -2.2025 -2.5169
    5CHL1   C23  355   0.734   5.730   8.950  0.6663  0.2880  1.0250
    5CHL1  H23A  356   0.827   5.675   8.923 -0.4540 -1.3263  0.3279
    5CHL1  H23B  357   0.648   5.661   8.965  0.8545  0.1550  1.4986
    5CHL1   C24  358   0.671   5.824   8.845  0.7406  0.5193  0.5445
    5CHL1  H24A  359   0.580   5.872   8.887  0.0445 -1.6653  1.5562
    5CHL1  H24B  360   0.748   5.897   8.809  1.4136 -0.6194 -0.3566
    5CHL1   C25  361   0.613   5.769   8.713 -0.4363  0.0878  0.2338
    5CHL1   H25  362   0.547   5.681   8.732 -0.2163  0.0587  0.8611
    5CHL1   C26  363   0.533   5.881   8.645  0.3033  0.5946 -0.0158
    5CHL1  H26A  364   0.597   5.955   8.594 -1.0446  2.6245  1.1803
    5CHL1  H26B  365   0.465   5.834   8.570  3.4530 -0.3501 -2.4088
    5CHL1  H26C  366   0.464   5.932   8.716  0.0923  0.4811 -0.1382
    5CHL1   C27  367   0.736   5.731   8.625 -0.3088 -0.1692  0.2445
    5CHL1  H27A  368   0.814   5.809   8.609  1.8645 -2.5605 -1.0916
    5CHL1  H27B  369   0.794   5.650   8.672  2.6047  1.2452 -0.8109
    5CHL1  H27C  370   0.694   5.700   8.527  0.5364 -0.0301 -0.1655
    6CHL1    C3  371   5.070   3.549  10.367 -0.4373  0.8399  0.1725
    6CHL1    H3  372   4.974   3.587  10.325 -2.0038  0.1991  3.0628
    6CHL1    O3  373   5.068   3.550  10.507 -0.4186  0.8427 -0.0912
    6CHL1   H3'  374   5.160   3.537  10.534 -1.1762 -1.1654  1.6923
    6CHL1    C4  375   5.102   3.407  10.311  0.1968 -0.2643  0.4974
    6CHL1   H4A  376   5.205   3.391  10.351  1.8239  0.1743 -3.2137
    6CHL1   H4B  377   5.029   3.337  10.357  1.6304 -0.6821  2.1924
    6CHL1    C5  378   5.097   3.398  10.157  0.4079  0.0956 -0.2063
    6CHL1    C6  379   5.025   3.302  10.091  0.8909 -0.4375  0.4194
    6CHL1    H6  380   4.969   3.232  10.153 -0.6086  1.4940  1.2810
    6CHL1    C7  381   5.023   3.295   9.941  1.2423 -0.0410 -0.2803
    6CHL1   H7A  382   5.048   3.191   9.913 -2.2129 -1.7931  2.7111
    6CHL1   H7B  383   4.920   3.320   9.908  1.1225  0.3354  0.3546
    6CHL1    C8  384   5.133   3.384   9.879 -0.1261 -0.3328  0.5654
    6CHL1    H8  385   5.228   3.326   9.892  0.7549  0.5310 -1.7258
    6CHL1   C14  386   5.107   3.413   9.725 -0.0095  0.2454 -0.4052
    6CHL1   H14  387   5.014   3.474   9.732 -0.7040 -0.4361 -3.0991
    6CHL1   C15  388   5.083   3.285   9.647 -0.3415 -0.2832  0.9852
    6CHL1  H15A  389   5.153   3.203   9.674 -0.9125 -1.2021 -0.2849
    6CHL1  H15B  390   4.982   3.240   9.659  0.0312 -1.2568  0.5399
    6CHL1   C16  391   5.112   3.331   9.509  0.3059 -0.1872 -0.2768
    6CHL1  H16A  392   5.180   3.253   9.470 -0.9970 -0.8940 -1.1867
    6CHL1  H16B  393   5.018   3.320   9.451 -0.8819 -1.3992  1.7981
    6CHL1   C17  394   5.163   3.473   9.511 -0.2553  0.2172 -0.5652
    6CHL1   H17  395   5.068   3.530   9.501 -0.4751  0.1680  1.1622
    6CHL1   C13  396   5.217   3.492   9.651  0.3977 -0.6150 -0.1470
    6CHL1   C18  397   5.348   3.420   9.667  0.1910 -0.0742 -0.0517
    6CHL1  H18A  398   5.435   3.484   9.639 -0.2982  0.8953  0.5773
    6CHL1  H18B  399   5.369   3.410   9.776 -0.0327  0.1697  0.0139
    6CHL1  H18C  400   5.363   3.322   9.617  0.1067 -1.2731  2.2072
    6CHL1   C12  401   5.211   3.638   9.704  0.2973 -0.1262 -0.8047
    6CHL1  H12A  402   5.270   3.722   9.661 -0.7448  0.2464 -1.5420
    6CHL1  H12B  403   5.106   3.674   9.694 -0.7515 -3.4443 -2.3902
    6CHL1   C11  404   5.229   3.638   9.862  0.0632  0.0402  0.5942
    6CHL1  H11A  405   5.339   3.626   9.874 -0.1076  0.5533  2.8162
    6CHL1  H11B  406   5.209   3.744   9.887 -0.8720  0.7070 -2.6493
    6CHL1    C9  407   5.145   3.529   9.946 -0.2755  0.6943  0.1439
    6CHL1    H9  408   5.043   3.573   9.944 -1.6871 -2.5007 -2.9529
    6CHL1   C10  409   5.176   3.515  10.094  0.3407 -0.4030 -0.0680
    6CHL1   C19  410   5.326   3.489  10.100 -0.3404  0.1629  0.1062
    6CHL1  H19A  411   5.363   3.430  10.014 -0.2084 -2.2207  1.7298
    6CHL1  H19B  412   5.384   3.584  10.094  0.7044 -0.4684  0.0937
    6CHL1  H19C  413   5.359   3.441  10.195  1.1774 -0.4782 -0.7149
    6CHL1    C1  414   5.157   3.655  10.158 -0.4527 -0.1975  0.0190
    6CHL1   H1A  415   5.216   3.741  10.120  0.2315 -0.3175  0.7874
    6CHL1   H1B  416   5.056   3.699  10.142 -0.7011 -1.3203 -1.5990
    6CHL1    C2  417   5.166   3.652  10.315 -0.0351 -0.5684 -0.0227
    6CHL1   H2A  418   5.144   3.756  10.347 -1.0474 -0.5677 -0.7015
    6CHL1   H2B  419   5.269   3.615  10.335  0.8932  0.7815 -2.0728
    6CHL1   C20  420   5.260   3.502   9.394  0.2196  0.0316 -0.4387
    6CHL1   H20  421   5.354   3.445   9.409  0.3113 -0.1811 -1.7403
    6CHL1   C21  422   5.300   3.652   9.401 -0.0477  0.7036 -0.1118
    6CHL1  H21A  423   5.357   3.683   9.311 -0.9596  3.4646  0.2091
    6CHL1  H21B  424   5.373   3.664   9.484 -1.0929  2.2099  0.6225
    6CHL1  H21C  425   5.217   3.724   9.421  1.1647  1.4294  2.6836
    6CHL1   C22  426   5.207   3.464   9.256  0.4079  0.2139 -0.0408
    6CHL1  H22A  427   5.144   3.374   9.241  0.4675  0.7026 -3.6078
    6CHL1  H22B  428   5.135   3.544   9.226  0.9986  0.6483 -0.3037
    6CHL1   C23  429   5.316   3.471   9.143  0.2758 -0.4188  0.7049
    6CHL1  H23A  430   5.275   3.482   9.041  1.0840  4.8034  0.8086
    6CHL1  H23B  431   5.379   3.562   9.151  0.3415 -0.5260  1.5226
    6CHL1   C24  432   5.416   3.355   9.141  0.4116 -0.1357  0.1326
    6CHL1  H24A  433   5.498   3.390   9.075  0.7370 -0.6225  0.2756
    6CHL1  H24B  434   5.443   3.336   9.248 -2.6615  1.1628  1.1857
    6CHL1   C25  435   5.369   3.220   9.071  0.4762 -0.1912  0.1278
    6CHL1   H25  436   5.454   3.150   9.059 -0.5431 -1.4645  0.2734
    6CHL1   C26  437   5.276   3.141   9.159  0.3990  0.2756 -0.5285
    6CHL1  H26A  438   5.284   3.179   9.263 -0.0249 -2.4680  0.5575
    6CHL1  H26B  439   5.170   3.148   9.127 -0.1683 -2.7401  0.5627
    6CHL1  H26C  440   5.308   3.035   9.169 -0.2723  0.1592  0.4712
    6CHL1   C27  441   5.319   3.243   8.933 -0.7961  0.4941 -0.2294
    6CHL1  H27A  442   5.234   3.315   8.939  0.6446  2.2635 -0.6446
    6CHL1  H27B  443   5.407   3.281   8.877 -0.6747 -1.6940 -1.5672
    6CHL1  H27C  444   5.283   3.143   8.900  2.8007 -1.3264  1.1371
    7CHL1    C3  445   1.595   0.022  10.393 -0.5622 -1.2277  0.0974
    7CHL1    H3  446   1.548   0.122  10.402  0.0240 -0.8862 -0.5783
    7CHL1    O3  447   1.622  -0.026  10.518  0.3720 -1.1134 -0.5035
    7CHL1   H3'  448   1.638  -0.119  10.504 -0.2236 -1.0934 -1.3943
    7CHL1    C4  449   1.489  -0.072  10.323  0.1056  0.3881  0.4971
    7CHL1   H4A  450   1.519  -0.179  10.334  0.2190  0.6195  2.7783
    7CHL1   H4B  451   1.388  -0.057  10.368 -0.8038 -0.2506 -1.2827
    7CHL1    C5  452   1.464  -0.034  10.174 -0.5140 -0.6753  0.0167
    7CHL1    C6  453   1.338   0.004  10.134 -0.3399  0.1903  0.3419
    7CHL1    H6  454   1.253  -0.006  10.203 -2.1298  1.3389 -1.6593
    7CHL1    C7  455   1.309   0.032   9.995 -0.0712  0.6307 -0.0341
    7CHL1   H7A  456   1.221  -0.031   9.971 -0.0394  0.9507 -1.0185
    7CHL1   H7B  457   1.268   0.134   9.979 -1.8744 -0.2552 -1.3015
    7CHL1    C8  458   1.425  -0.009   9.894 -0.1708  0.2858  0.2190
    7CHL1    H8  459   1.415  -0.119   9.886 -2.9498  0.6515 -2.6297
    7CHL1   C14  460   1.404   0.055   9.755 -0.4406  0.1945  0.1628
    7CHL1   H14  461   1.416   0.162   9.782  1.5478 -0.0657  0.3706
    7CHL1   C15  462   1.257   0.041   9.683  0.0147  1.0202 -0.9908
    7CHL1  H15A  463   1.226  -0.065   9.674  0.8606  0.7854 -1.2692
    7CHL1  H15B  464   1.175   0.090   9.740  0.0406 -1.7927  1.5423
    7CHL1   C16  465   1.292   0.086   9.538 -0.3859 -0.2328  0.0497
    7CHL1  H16A  466   1.266  -0.005   9.479 -0.0871 -0.5369  0.3793
    7CHL1  H16B  467   1.227   0.174   9.519 -1.8074 -1.5335 -1.2740
    7CHL1   C17  468   1.450   0.105   9.534  1.2398 -0.3749  0.0450
    7CHL1   H17  469   1.460   0.214   9.552 -1.0561 -0.2385  0.5793
    7CHL1   C13  470   1.507   0.025   9.652  0.4491  0.2435  0.0515
    7CHL1   C18  471   1.493  -0.124   9.619  0.1742 -0.2469  0.1415
    7CHL1  H18A  472   1.523  -0.189   9.703  0.1370 -0.1109  0.2601
    7CHL1  H18B  473   1.394  -0.152   9.576 -0.0970  1.4024 -0.3514
    7CHL1  H18C  474   1.578  -0.141   9.549 -0.2053 -1.1128 -0.1077
    7CHL1   C12  475   1.646   0.063   9.710 -0.1316 -0.1394 -0.0435
    7CHL1  H12A  476   1.734   0.028   9.652 -0.9992 -0.7348 -1.0066
    7CHL1  H12B  477   1.643   0.174   9.713  1.2828 -0.1314  3.0361
    7CHL1   C11  478   1.670  -0.002   9.848  0.6928  0.2503 -0.2617
    7CHL1  H11A  479   1.672  -0.112   9.835  0.3752  0.0688  1.1966
    7CHL1  H11B  480   1.772   0.031   9.877  1.5770 -1.8867 -0.8325
    7CHL1    C9  481   1.559   0.026   9.949  0.2351 -1.2172  0.1252
    7CHL1    H9  482   1.545   0.136   9.958  1.7785 -1.1949  3.0288
    7CHL1   C10  483   1.587  -0.028  10.092  0.1485 -0.1733  0.3325
    7CHL1   C19  484   1.638  -0.172  10.084 -0.2854  0.1153 -1.0938
    7CHL1  H19A  485   1.738  -0.158  10.039 -0.7389 -1.8517 -2.8107
    7CHL1  H19B  486   1.659  -0.232  10.175  1.4069  0.0704 -1.5084
    7CHL1  H19C  487   1.584  -0.241  10.015 -2.7407  1.4873 -0.6307
    7CHL1    C1  488   1.697   0.064  10.163  0.2800 -0.6795 -0.3468
    7CHL1   H1A  489   1.787   0.038  10.103 -1.0715  2.0724 -3.7149
    7CHL1   H1B  490   1.671   0.171  10.153 -2.4259 -1.2345  0.2554
    7CHL1    C2  491   1.723   0.035  10.314 -0.8674  0.2201 -0.0204
    7CHL1   H2A  492   1.786   0.112  10.364  0.8871 -0.9393 -0.3672
    7CHL1   H2B  493   1.782  -0.058  10.331  0.6138  1.2224  0.4006
    7CHL1   C20  494   1.501   0.083   9.395  0.2648 -0.0795  0.2752
    7CHL1   H20  495   1.493  -0.022   9.360  0.7537 -0.2430  0.6537
    7CHL1   C21  496   1.654   0.115   9.405  0.3450 -0.2542  0.4490
    7CHL1  H21A  497   1.709   0.124   9.308 -0.4760  1.1219  0.0841
    7CHL1  H21B  498   1.704   0.027   9.450 -1.1016 -2.2041 -1.6617
    7CHL1  H21C  499   1.662   0.213   9.457  0.3720  0.4987 -0.9173
    7CHL1   C22  500   1.434   0.181   9.293  0.1825  0.4144 -0.0650
    7CHL1  H22A  501   1.325   0.165   9.291  0.2412  0.1613 -1.4218
    7CHL1  H22B  502   1.454   0.287   9.324  1.2719  0.7601 -1.8869
    7CHL1   C23  503   1.466   0.165   9.145  0.0708 -0.6001 -0.2987
    7CHL1  H23A  504   1.576   0.150   9.144  0.0626 -0.6992  0.0368
    7CHL1  H23B  505   1.410   0.074   9.115 -1.6390  0.1962  0.3875
    7CHL1   C24  506   1.420   0.290   9.060 -0.2635  0.0951 -0.0348
    7CHL1  H24A  507   1.414   0.255   8.955 -0.5433  2.0042 -0.6746
    7CHL1  H24B  508   1.317   0.323   9.087 -1.0009 -0.5609 -2.0016
    7CHL1   C25  509   1.522   0.404   9.058 -0.0531 -0.5192  0.1010
    7CHL1   H25  510   1.547   0.426   9.164  0.7395 -1.6630  0.1571
    7CHL1   C26  511   1.649   0.362   8.978 -0.2137 -1.0968  0.4377
    7CHL1  H26A  512   1.622   0.327   8.876 -1.4172 -1.1682  0.7642
    7CHL1  H26B  513   1.724   0.443   8.963 -0.3536 -1.0620 -0.0756
    7CHL1  H26C  514   1.694   0.284   9.043 -0.5143 -2.0742 -0.5169
    7CHL1   C27  515   1.476   0.525   8.979  0.1564  0.3289 -0.1586
    7CHL1  H27A  516   1.558   0.599   8.966  1.5821 -1.2240 -0.1219
    7CHL1  H27B  517   1.451   0.499   8.874  2.0081 -0.6742 -0.3651
    7CHL1  H27C  518   1.394   0.583   9.027  0.1118  2.2205 -2.4261
    8CHL1    C3  519   1.665   1.701  10.366  0.2404 -0.0755 -0.3521
    8CHL1    H3  520   1.770   1.670  10.347  0.1922 -0.2130 -0.3949
    8CHL1    O3  521   1.638   1.719  10.508 -0.5133 -0.3229  0.5596
    8CHL1   H3'  522   1.544   1.702  10.522 -0.3624  0.1034  2.1519
    8CHL1    C4  523   1.635   1.841  10.295 -0.2078  0.6531 -0.2639
    8CHL1   H4A  524   1.528   1.862  10.318 -0.2794  0.0425 -0.0107
    8CHL1   H4B  525   1.699   1.912  10.351  0.5865 -1.0116  1.0017
    8CHL1    C5  526   1.652   1.822  10.148 -0.1884  0.9210 -0.2134
    8CHL1    C6  527   1.723   1.911  10.083  0.0129 -0.1107  0.0411
    8CHL1    H6  528   1.771   1.993  10.139  2.5624 -2.0614  0.8311
    8CHL1    C7  529   1.745   1.921   9.934 -0.6613 -1.3064 -0.8991
    8CHL1   H7A  530   1.723   2.028   9.912 -0.9347 -1.0128  0.7204
    8CHL1   H7B  531   1.853   1.902   9.913 -0.9598 -2.9378 -1.0103
    8CHL1    C8  532   1.651   1.827   9.861 -0.6703  0.5445  0.2173
    8CHL1    H8  533   1.559   1.889   9.858 -1.4447 -0.5430  1.1052
    8CHL1   C14  534   1.700   1.809   9.714  0.2344 -0.1142  0.0820
    8CHL1   H14  535   1.803   1.767   9.711  0.5028  0.5968 -1.1201
    8CHL1   C15  536   1.713   1.945   9.643  0.1864 -0.0170 -0.4749
    8CHL1  H15A  537   1.625   2.007   9.671 -0.4349 -1.0360 -0.1393
    8CHL1  H15B  538   1.811   1.996   9.656 -0.1462  0.6909 -0.7159
    8CHL1   C16  539   1.683   1.901   9.495  0.2721  0.7571 -0.0809
    8CHL1  H16A  540   1.602   1.964   9.451 -1.4728 -0.5720  1.1837
    8CHL1  H16B  541   1.777   1.903   9.435  0.7620  1.1595  0.7015
    8CHL1   C17  542   1.641   1.745   9.493 -0.2889  0.0641  0.1537
    8CHL1   H17  543   1.733   1.686   9.469 -0.0993  0.8544 -1.0976
    8CHL1   C13  544   1.601   1.717   9.639  0.1527 -0.3602  0.2848
    8CHL1   C18  545   1.452   1.765   9.648  0.8159 -0.1535  0.0770
    8CHL1  H18A  546   1.416   1.778   9.752  0.7249  2.7555 -0.2886
    8CHL1  H18B  547   1.443   1.860   9.592  2.2322 -0.3373 -0.5004
    8CHL1  H18C  548   1.394   1.687   9.593 -1.2504  1.4019 -0.0019
    8CHL1   C12  549   1.622   1.577   9.701  0.0348 -0.3404  0.1455
    8CHL1  H12A  550   1.567   1.496   9.648 -3.0176 -0.0635  2.6747
    8CHL1  H12B  551   1.726   1.543   9.687  0.9212  1.4654  2.1037
    8CHL1   C11  552   1.581   1.577   9.849 -0.2071 -0.0461  0.6339
    8CHL1  H11A  553   1.470   1.574   9.849 -0.2343  0.2812 -1.3932
    8CHL1  H11B  554   1.616   1.476   9.879 -0.1246 -0.3911 -0.5778
    8CHL1    C9  555   1.641   1.692   9.932  0.8858 -0.2653  0.5185
    8CHL1    H9  556   1.746   1.660   9.945  0.7586 -1.5978 -1.5312
    8CHL1   C10  557   1.581   1.704  10.074  0.9857 -0.0983  0.0226
    8CHL1   C19  558   1.429   1.746  10.063 -0.3431  0.0725  0.1969
    8CHL1  H19A  559   1.388   1.762  10.165 -1.5227 -0.9557 -0.1058
    8CHL1  H19B  560   1.408   1.842  10.011 -4.4380 -1.1736 -0.6341
    8CHL1  H19C  561   1.367   1.669  10.013 -2.1927  1.8222 -0.2575
    8CHL1    C1  562   1.606   1.586  10.157  0.3895  0.0591 -0.2678
    8CHL1   H1A  563   1.541   1.506  10.114 -0.3741  1.1280 -1.1338
    8CHL1   H1B  564   1.713   1.559  10.144  0.4964  0.9181 -1.2336
    8CHL1    C2  565   1.573   1.594  10.308 -0.2805  0.0508  0.5346
    8CHL1   H2A  566   1.581   1.489  10.342  0.3882 -0.0142  0.1708
    8CHL1   H2B  567   1.469   1.620  10.336 -0.6489  0.5236 -1.2315
    8CHL1   C20  568   1.550   1.702   9.381  0.2290 -0.0042 -0.2713
    8CHL1   H20  569   1.448   1.746   9.379  0.4138  0.3992 -1.2157
    8CHL1   C21  570   1.525   1.550   9.390  0.4138  0.7132 -0.4496
    8CHL1  H21A  571   1.619   1.494   9.412  0.1893  0.8244  0.8388
    8CHL1  H21B  572   1.467   1.520   9.300 -2.9779  0.2447  1.7864
    8CHL1  H21C  573   1.456   1.532   9.475  0.6813  2.2311  0.0890
    8CHL1   C22  574   1.593   1.745   9.239 -0.1367  0.5203  0.3020
    8CHL1  H22A  575   1.524   1.714   9.158  1.6851 -0.2353 -0.9986
    8CHL1  H22B  576   1.594   1.856   9.247  0.0203  1.0257 -5.1253
    8CHL1   C23  577   1.734   1.700   9.196  0.9397  0.0575 -0.2217
    8CHL1  H23A  578   1.801   1.756   9.265  0.3665  0.5358 -0.0451
    8CHL1  H23B  579   1.737   1.593   9.224  1.0935  0.2414  0.4801
    8CHL1   C24  580   1.772   1.746   9.055  0.1661 -0.2566  0.5440
    8CHL1  H24A  581   1.871   1.699   9.040  0.0095 -0.8904  1.4266
    8CHL1  H24B  582   1.694   1.699   8.991 -1.7972  1.8778  1.2862
    8CHL1   C25  583   1.779   1.894   9.027  0.4495  0.2419 -0.2425
    8CHL1   H25  584   1.688   1.954   9.047  1.0500  1.5998 -1.5669
    8CHL1   C26  585   1.892   1.965   9.109  0.2082  0.4344  0.6370
    8CHL1  H26A  586   1.870   2.074   9.111  0.8967  0.6194 -1.0178
    8CHL1  H26B  587   1.900   1.936   9.216  1.3709 -0.5696  0.2889
    8CHL1  H26C  588   1.994   1.953   9.068  0.2392 -1.2800  1.1796
    8CHL1   C27  589   1.808   1.923   8.877  0.8607  0.5792 -0.2557
    8CHL1  H27A  590   1.747   1.865   8.804 -1.2268  0.2980  1.6600
    8CHL1  H27B  591   1.791   2.031   8.857  0.0664  0.4036 -0.5434
    8CHL1  H27C  592   1.916   1.901   8.862 -0.2314 -5.2230 -0.8124
    9CHL1    C3  593   4.553   4.596  10.234  0.4612 -0.1278  0.3415
    9CHL1    H3  594   4.640   4.657  10.266  1.5586 -0.5680 -1.7364
    9CHL1    O3  595   4.492   4.537  10.353 -0.0082 -0.6377 -0.4348
    9CHL1   H3'  596   4.551   4.470  10.388  0.6133  0.1444  0.0373
    9CHL1    C4  597   4.458   4.666  10.136  0.5456  0.4426 -0.2542
    9CHL1   H4A  598   4.365   4.607  10.123  1.1357 -0.7287  0.7449
    9CHL1   H4B  599   4.423   4.758  10.188  1.0093  0.1216  0.6509
    9CHL1    C5  600   4.527   4.715  10.014 -1.0311  0.3652 -0.4722
    9CHL1    C6  601   4.541   4.845   9.972 -0.9849  0.1104  0.8533
    9CHL1    H6  602   4.503   4.926  10.036  0.5766  0.7494  1.0007
    9CHL1    C7  603   4.621   4.886   9.852 -0.2871 -0.1704 -0.9878
    9CHL1   H7A  604   4.579   4.977   9.803  1.5080 -0.3177 -2.8678
    9CHL1   H7B  605   4.724   4.923   9.875 -1.1415  1.8385 -0.2674
    9CHL1    C8  606   4.628   4.772   9.748 -0.1091  1.4335  0.1133
    9CHL1    H8  607   4.524   4.754   9.712  1.0380 -1.6343 -1.9585
    9CHL1   C14  608   4.720   4.799   9.637  1.3462 -0.1891  0.3772
    9CHL1   H14  609   4.823   4.817   9.675  1.7537 -1.5385 -0.0679
    9CHL1   C15  610   4.693   4.924   9.554  0.1436  0.2527  0.8846
    9CHL1  H15A  611   4.584   4.924   9.532  0.3615 -0.2172 -0.2613
    9CHL1  H15B  612   4.722   5.018   9.606  0.3060  1.8654 -1.9920
    9CHL1   C16  613   4.787   4.901   9.429 -0.3423  0.7894 -0.2251
    9CHL1  H16A  614   4.720   4.907   9.341  1.3790 -1.3594 -1.7230
    9CHL1  H16B  615   4.865   4.979   9.418 -1.2224  1.5094 -1.3607
    9CHL1   C17  616   4.842   4.756   9.435 -0.4070 -0.1886  0.2502
    9CHL1   H17  617   4.936   4.760   9.495  0.3643  2.2506 -1.0597
    9CHL1   C13  618   4.746   4.685   9.534  0.1317  0.6459  0.4359
    9CHL1   C18  619   4.620   4.664   9.451 -0.2963  0.0998 -0.0202
    9CHL1  H18A  620   4.533   4.689   9.515  0.7466  1.2175  0.9914
    9CHL1  H18B  621   4.617   4.734   9.365  0.6899 -0.4536 -0.5169
    9CHL1  H18C  622   4.607   4.560   9.415  1.1717  0.0289 -0.3918
    9CHL1   C12  623   4.797   4.558   9.598  0.0562 -0.1055 -0.2203
    9CHL1  H12A  624   4.806   4.475   9.525 -0.4799 -2.1771  1.9672
    9CHL1  H12B  625   4.897   4.573   9.643  0.1569  2.2244 -1.1981
    9CHL1   C11  626   4.702   4.522   9.716  0.5267 -0.6011  0.1659
    9CHL1  H11A  627   4.608   4.499   9.661  2.2487  0.2130 -3.2498
    9CHL1  H11B  628   4.733   4.429   9.770 -1.2721 -0.7308  0.9844
    9CHL1    C9  629   4.672   4.642   9.814 -0.2750 -0.3911  0.3661
    9CHL1    H9  630   4.773   4.666   9.854  0.3874 -2.0560 -0.2429
    9CHL1   C10  631   4.592   4.597   9.932  0.0095  0.4461 -0.4017
    9CHL1   C19  632   4.462   4.524   9.885  0.1742  0.8383 -0.6205
    9CHL1  H19A  633   4.396   4.583   9.818 -0.0283  0.2947 -0.8987
    9CHL1  H19B  634   4.488   4.435   9.825 -0.5591 -0.6226  1.1845
    9CHL1  H19C  635   4.398   4.488   9.968  1.4570  0.4947  0.2332
    9CHL1    C1  636   4.681   4.503  10.019  0.3124  0.5030 -0.9108
    9CHL1   H1A  637   4.690   4.402   9.975 -3.0947 -0.7956  1.2040
    9CHL1   H1B  638   4.780   4.553  10.033 -0.2158  0.5077  3.5405
    9CHL1    C2  639   4.624   4.484  10.161  0.3763 -0.4587 -0.4105
    9CHL1   H2A  640   4.698   4.435  10.228 -0.7791  0.4214  1.5847
    9CHL1   H2B  641   4.533   4.422  10.142  2.1460 -3.9788  2.0801
    9CHL1   C20  642   4.875   4.687   9.299 -1.0137 -0.2616  1.0630
    9CHL1   H20  643   4.783   4.643   9.256  0.3388 -1.9985 -0.1407
    9CHL1   C21  644   4.980   4.571   9.320 -0.4473  0.6811  0.2817
    9CHL1  H21A  645   5.015   4.521   9.227  0.5710  0.1624  0.9328
    9CHL1  H21B  646   4.947   4.484   9.382 -0.5503  0.1435 -0.5182
    9CHL1  H21C  647   5.073   4.613   9.364 -0.6454  2.5317 -1.0112
    9CHL1   C22  648   4.926   4.786   9.194 -0.0877  0.7250  0.5945
    9CHL1  H22A  649   4.868   4.881   9.189  1.8706  1.9038 -0.6591
    9CHL1  H22B  650   5.025   4.829   9.223 -0.1608  1.2238  0.1087
    9CHL1   C23  651   4.935   4.717   9.053 -0.1104 -0.4485 -0.1948
    9CHL1  H23A  652   5.018   4.643   9.049  0.3065  0.1060 -2.6353
    9CHL1  H23B  653   4.839   4.664   9.031 -0.4098  0.3219 -0.7669
    9CHL1   C24  654   4.961   4.812   8.936  0.7244  0.0866 -0.9428
    9CHL1  H24A  655   4.892   4.899   8.937  0.1611 -0.3578  0.3844
    9CHL1  H24B  656   5.061   4.858   8.946  1.0032 -0.1034 -2.7214
    9CHL1   C25  657   4.945   4.756   8.793  0.4906 -0.4151 -0.0217
    9CHL1   H25  658   4.838   4.744   8.768  1.0160 -0.5044 -2.3270
    9CHL1   C26  659   5.008   4.864   8.706  0.0525  0.7433  0.1250
    9CHL1  H26A  660   4.937   4.949   8.696 -1.3346 -0.3420  0.6005
    9CHL1  H26B  661   5.103   4.907   8.745 -0.4932  1.0758  1.0947
    9CHL1  H26C  662   5.036   4.831   8.604 -0.8525 -0.2081  0.1851
    9CHL1   C27  663   5.018   4.623   8.764  0.6913 -0.7682  0.2812
    9CHL1  H27A  664   5.010   4.606   8.655 -0.2343  1.0423  0.0471
    9CHL1  H27B  665   5.123   4.621   8.802  0.6621 -0.0611  0.4060
    9CHL1  H27C  666   4.963   4.545   8.819  0.1130 -0.2586  0.4328
   10CHL1    C3  667   3.864   1.451  10.154  0.0386 -0.5137 -0.2710
   10CHL1    H3  668   3.818   1.349  10.155  0.2391 -0.6033 -0.2139
   10CHL1    O3  669   3.854   1.497  10.288 -0.6128 -0.9646 -0.0266
   10CHL1   H3'  670   3.870   1.591  10.285 -1.2108 -0.8956 -1.0889
   10CHL1    C4  671   4.003   1.454  10.104  0.1168 -0.0681  0.3512
   10CHL1   H4A  672   4.038   1.556  10.133 -0.5352  0.4232 -0.5664
   10CHL1   H4B  673   4.075   1.384  10.151 -0.7965 -0.7024  0.8158
   10CHL1    C5  674   4.012   1.437   9.953 -0.4965  0.1526 -0.3940
   10CHL1    C6  675   4.097   1.347   9.895 -0.1650 -0.2469 -0.4293
   10CHL1    H6  676   4.165   1.292   9.961 -0.7531 -0.5296 -0.0570
   10CHL1    C7  677   4.127   1.332   9.748 -0.1533  0.7577  0.6096
   10CHL1   H7A  678   4.237   1.335   9.734 -0.2204  2.4740  0.4275
   10CHL1   H7B  679   4.089   1.231   9.720 -1.7444  1.1223  1.4267
   10CHL1    C8  680   4.053   1.434   9.661  0.2985  0.3784 -0.7063
   10CHL1    H8  681   4.104   1.532   9.652  0.3287  0.5819  1.4693
   10CHL1   C14  682   4.032   1.375   9.521 -0.4285 -0.2937  1.0623
   10CHL1   H14  683   3.966   1.287   9.533 -1.1055  0.2549  1.3749
   10CHL1   C15  684   4.161   1.331   9.454  0.8018  0.2162  0.6975
   10CHL1  H15A  685   4.246   1.398   9.479  1.7042 -1.2607  1.6622
   10CHL1  H15B  686   4.177   1.227   9.490 -2.9902 -1.1022 -1.2002
   10CHL1   C16  687   4.120   1.322   9.302 -0.1003 -0.1488  0.6848
   10CHL1  H16A  688   4.183   1.389   9.240  0.3335 -0.1988  1.0726
   10CHL1  H16B  689   4.105   1.217   9.269 -0.3278  0.0041  0.2856
   10CHL1   C17  690   3.972   1.382   9.292 -0.4179  0.2964  0.2601
   10CHL1   H17  691   3.901   1.300   9.316  0.8190 -1.4993 -1.9370
   10CHL1   C13  692   3.963   1.467   9.419 -0.1564  0.6439  0.0659
   10CHL1   C18  693   4.040   1.604   9.391  0.7624 -0.3563  0.8036
   10CHL1  H18A  694   4.124   1.605   9.318 -2.5019  2.7452 -3.1677
   10CHL1  H18B  695   3.968   1.677   9.349 -0.4622 -1.1322  1.5378
   10CHL1  H18C  696   4.070   1.649   9.488  1.1436  1.1552  0.0009
   10CHL1   C12  697   3.822   1.506   9.476  0.7303  0.0794  0.7627
   10CHL1  H12A  698   3.773   1.593   9.427  1.2434 -0.1787 -0.2135
   10CHL1  H12B  699   3.753   1.420   9.467  1.6161 -0.3974 -1.7812
   10CHL1   C11  700   3.831   1.556   9.625 -0.0247 -0.1074 -0.3707
   10CHL1  H11A  701   3.881   1.655   9.622 -0.7702  0.2822 -0.0384
   10CHL1  H11B  702   3.732   1.572   9.671  0.3829  0.3345  0.3495
   10CHL1    C9  703   3.911   1.467   9.718 -0.1142 -0.2177  0.0589
   10CHL1    H9  704   3.854   1.373   9.733 -2.3906  1.3178  1.4560
   10CHL1   C10  705   3.918   1.522   9.863  0.2913  0.1952  0.4497
   10CHL1   C19  706   3.977   1.668   9.867 -0.4751  0.3501  0.4039
   10CHL1  H19A  707   4.079   1.670   9.824 -0.1955 -0.5526  1.0100
   10CHL1  H19B  708   3.919   1.739   9.804  0.3707  1.2930  0.6854
   10CHL1  H19C  709   3.979   1.694   9.975 -0.7928  0.0978  0.4713
   10CHL1    C1  710   3.776   1.524   9.919 -0.1170 -0.1111 -0.1807
   10CHL1   H1A  711   3.724   1.608   9.869  2.7451  1.2588 -0.9301
   10CHL1   H1B  712   3.718   1.431   9.898  0.5742 -0.4054 -0.7790
   10CHL1    C2  713   3.763   1.539  10.068  0.1611  0.0752 -0.5604
   10CHL1   H2A  714   3.658   1.522  10.100 -0.3664 -0.4693 -2.5273
   10CHL1   H2B  715   3.782   1.646  10.092 -2.9786 -0.1315  3.3498
   10CHL1   C20  716   3.940   1.430   9.151 -0.9644  0.2707  0.0047
   10CHL1   H20  717   4.004   1.520   9.136  0.7910 -0.7857  1.0131
   10CHL1   C21  718   3.791   1.453   9.148 -0.1054  0.1169 -0.4313
   10CHL1  H21A  719   3.755   1.533   9.216 -2.4942 -0.8846 -0.4730
   10CHL1  H21B  720   3.744   1.359   9.184 -1.7057  1.4711  1.0953
   10CHL1  H21C  721   3.752   1.477   9.047 -1.0912 -0.7951 -0.2750
   10CHL1   C22  722   3.975   1.325   9.042 -0.1327  0.1082 -0.1114
   10CHL1  H22A  723   4.068   1.266   9.062 -0.1411  0.3534  0.6404
   10CHL1  H22B  724   3.906   1.238   9.042  0.9129 -0.7532 -1.5428
   10CHL1   C23  725   3.966   1.372   8.896  0.1747  0.2274  0.0814
   10CHL1  H23A  726   3.860   1.378   8.865  0.2452  1.3490  0.0127
   10CHL1  H23B  727   4.011   1.474   8.889  2.5825 -0.8342 -0.6124
   10CHL1   C24  728   4.040   1.272   8.800 -0.3289  0.3867 -0.0622
   10CHL1  H24A  729   4.150   1.293   8.801 -0.0799 -0.9017 -0.3022
   10CHL1  H24B  730   4.020   1.167   8.827 -0.4447  0.3680 -0.2234
   10CHL1   C25  731   3.992   1.294   8.651  0.2462 -0.2034  0.4266
   10CHL1   H25  732   3.993   1.402   8.625 -2.2420  0.0296  1.1807
   10CHL1   C26  733   4.088   1.221   8.559  0.9023 -0.4627 -0.5755
   10CHL1  H26A  734   4.190   1.238   8.598 -0.1277  2.9226  0.8774
   10CHL1  H26B  735   4.058   1.114   8.561 -0.7924  0.0147  2.6451
   10CHL1  H26C  736   4.083   1.259   8.454  0.0848 -0.8746 -0.6893
   10CHL1   C27  737   3.850   1.233   8.617 -0.3848 -0.7860 -0.7168
   10CHL1  H27A  738   3.854   1.127   8.650  0.3104 -0.4198  0.4066
   10CHL1  H27B  739   3.766   1.290   8.661  0.4842  0.7216 -0.9867
   10CHL1  H27C  740   3.834   1.253   8.509 -2.5194 -0.3062 -0.3317
   11CHL1    C3  741   6.152   4.641  10.014 -0.2677 -1.0430 -0.1975
   11CHL1    H3  742   6.205   4.737  10.033 -0.4142 -1.3037  1.6152
   11CHL1    O3  743   6.121   4.598  10.146  0.2449 -0.0201  0.0404
   11CHL1   H3'  744   6.171   4.660  10.200 -2.8704  1.3867  1.4144
   11CHL1    C4  745   6.019   4.663   9.937  0.1177 -0.3687  0.3774
   11CHL1   H4A  746   5.951   4.576   9.943  0.6318 -0.8965 -1.1443
   11CHL1   H4B  747   5.985   4.755   9.989  1.0658  0.0126  0.3342
   11CHL1    C5  748   6.039   4.691   9.782 -0.0226 -0.4127  0.1580
   11CHL1    C6  749   5.977   4.795   9.724  0.7247  0.2798 -0.0101
   11CHL1    H6  750   5.907   4.855   9.783  0.1782 -1.2046  0.8643
   11CHL1    C7  751   5.998   4.839   9.583 -0.2834 -0.2999 -0.3605
   11CHL1   H7A  752   5.903   4.869   9.532  0.0868  1.0623 -0.2726
   11CHL1   H7B  753   6.057   4.933   9.577 -2.2985  0.8363 -5.5632
   11CHL1    C8  754   6.081   4.739   9.493 -0.2683  0.2567 -0.7396
   11CHL1    H8  755   6.016   4.654   9.465  0.6030 -1.2219  1.5550
   11CHL1   C14  756   6.145   4.813   9.375  0.3625  0.4095 -0.0684
   11CHL1   H14  757   6.217   4.883   9.421 -0.3606  0.9419  0.2599
   11CHL1   C15  758   6.055   4.898   9.274  0.5232  0.9150 -0.5250
   11CHL1  H15A  759   5.954   4.853   9.263  1.3685 -0.5658 -2.5909
   11CHL1  H15B  760   6.029   4.998   9.315 -0.9764  0.2491  0.1830
   11CHL1   C16  761   6.129   4.905   9.144  0.3795 -0.1550  0.3739
   11CHL1  H16A  762   6.060   4.873   9.063 -0.4378 -1.2811  1.4806
   11CHL1  H16B  763   6.171   5.001   9.110 -1.7504 -0.1879 -2.5035
   11CHL1   C17  764   6.262   4.813   9.164  0.2086  0.7075 -0.4762
   11CHL1   H17  765   6.340   4.880   9.207  1.8011 -0.1567 -1.9679
   11CHL1   C13  766   6.225   4.719   9.285 -0.2341  0.5283 -0.6473
   11CHL1   C18  767   6.125   4.607   9.228 -0.6579 -1.2451 -0.8552
   11CHL1  H18A  768   6.186   4.536   9.168 -0.7577 -0.1859 -2.2465
   11CHL1  H18B  769   6.081   4.555   9.316 -0.0273 -1.1420 -0.4711
   11CHL1  H18C  770   6.050   4.651   9.159  0.9626  1.3548 -1.0511
   11CHL1   C12  771   6.344   4.663   9.367 -0.1845 -0.0310 -0.2920
   11CHL1  H12A  772   6.389   4.588   9.298 -1.3334 -1.2096  0.2100
   11CHL1  H12B  773   6.421   4.740   9.385 -0.3136 -0.0167  0.2003
   11CHL1   C11  774   6.299   4.597   9.496 -0.2569 -0.9148  0.3118
   11CHL1  H11A  775   6.251   4.498   9.478  0.2180 -1.7233  3.2639
   11CHL1  H11B  776   6.394   4.589   9.554  2.4282  1.3009 -3.5055
   11CHL1    C9  777   6.196   4.681   9.584  0.6726  0.1297  0.5123
   11CHL1    H9  778   6.254   4.772   9.610  0.7516  0.9810 -2.4095
   11CHL1   C10  779   6.158   4.613   9.719 -0.2128 -0.6794  0.1089
   11CHL1   C19  780   6.099   4.476   9.683  0.2293 -0.3858  0.3572
   11CHL1  H19A  781   6.074   4.425   9.778 -0.7900  1.7739  1.2792
   11CHL1  H19B  782   5.999   4.485   9.635 -0.5517 -1.8448  1.6780
   11CHL1  H19C  783   6.159   4.402   9.624 -1.3603 -2.1116  0.8497
   11CHL1    C1  784   6.285   4.600   9.809  0.0116  0.1016  0.4015
   11CHL1   H1A  785   6.357   4.537   9.752 -0.9826 -1.0080  0.3747
   11CHL1   H1B  786   6.322   4.705   9.820  1.5710 -0.5683  1.7057
   11CHL1    C2  787   6.249   4.541   9.949  0.3769 -0.2261 -0.1743
   11CHL1   H2A  788   6.340   4.521  10.010  1.4889  0.0915 -1.6978
   11CHL1   H2B  789   6.197   4.444   9.937  0.1033 -0.3677  1.8923
   11CHL1   C20  790   6.332   4.748   9.039 -0.0955 -0.0073  0.2534
   11CHL1   H20  791   6.281   4.649   9.031 -0.3048 -0.0806  2.3279
   11CHL1   C21  792   6.483   4.735   9.070 -0.3293 -0.5718 -0.9670
   11CHL1  H21A  793   6.545   4.827   9.072 -3.0207  1.2747  1.0357
   11CHL1  H21B  794   6.531   4.665   8.997  2.4008 -1.8450  1.9514
   11CHL1  H21C  795   6.483   4.698   9.174  1.4479  1.6349 -0.1415
   11CHL1   C22  796   6.313   4.825   8.904 -0.2007 -0.3665 -0.0891
   11CHL1  H22A  797   6.204   4.844   8.898 -0.2049  0.8333  2.8825
   11CHL1  H22B  798   6.359   4.924   8.922 -0.7660  0.4258 -2.7865
   11CHL1   C23  799   6.358   4.752   8.781 -0.4356  0.6322 -0.3821
   11CHL1  H23A  800   6.465   4.724   8.789 -0.7769 -0.6601 -0.2700
   11CHL1  H23B  801   6.304   4.655   8.779 -0.6532  0.6899  1.4227
   11CHL1   C24  802   6.328   4.835   8.657  0.4704 -0.4063 -0.3004
   11CHL1  H24A  803   6.219   4.854   8.661  0.2567 -1.2634 -1.5484
   11CHL1  H24B  804   6.391   4.926   8.655  1.1034 -0.8369 -0.1735
   11CHL1   C25  805   6.349   4.766   8.525 -0.8705 -0.4173 -0.0152
   11CHL1   H25  806   6.280   4.680   8.514  0.7179 -1.6186 -0.6313
   11CHL1   C26  807   6.320   4.877   8.422 -0.1859  0.0680 -0.5373
   11CHL1  H26A  808   6.336   4.848   8.316 -0.3385  1.5487 -0.9752
   11CHL1  H26B  809   6.217   4.913   8.443 -0.1608  0.3262 -0.8559
   11CHL1  H26C  810   6.381   4.966   8.449 -0.0465 -0.2526  0.2176
   11CHL1   C27  811   6.487   4.705   8.517 -1.1311  0.2794  0.1049
   11CHL1  H27A  812   6.562   4.773   8.562 -0.1061 -0.2915 -0.7240
   11CHL1  H27B  813   6.491   4.612   8.578 -1.5367 -0.1627 -0.5216
   11CHL1  H27C  814   6.527   4.684   8.416 -0.9756  2.0176 -0.2006
   12CHL1    C3  815   2.261   1.428  10.359  0.1008 -0.9373 -0.2359
   12CHL1    H3  816   2.296   1.324  10.343 -4.5462 -2.7066  0.3141
   12CHL1    O3  817   2.277   1.463  10.500  0.1267 -0.6796  0.0022
   12CHL1   H3'  818   2.222   1.540  10.515 -0.9894 -1.2029 -1.2827
   12CHL1    C4  819   2.332   1.534  10.276 -0.4902 -0.6069  0.2119
   12CHL1   H4A  820   2.292   1.634  10.305 -0.9278 -0.9106  0.6625
   12CHL1   H4B  821   2.440   1.547  10.297 -0.9699  0.7726  1.9565
   12CHL1    C5  822   2.307   1.518  10.126  0.6267  0.0042  0.9349
   12CHL1    C6  823   2.412   1.522  10.036  0.2330 -0.3565 -0.0335
   12CHL1    H6  824   2.513   1.531  10.077  0.2179  4.0721 -0.7334
   12CHL1    C7  825   2.389   1.508   9.887  0.9802 -0.1753 -0.0231
   12CHL1   H7A  826   2.447   1.582   9.828  1.5845 -2.2336 -2.0816
   12CHL1   H7B  827   2.410   1.406   9.847  1.0285 -0.5445  0.9242
   12CHL1    C8  828   2.238   1.526   9.841 -0.2807 -0.0359 -0.4090
   12CHL1    H8  829   2.211   1.634   9.846  1.8916  0.4692  1.5489
   12CHL1   C14  830   2.225   1.460   9.706  0.3607 -0.1080  0.7386
   12CHL1   H14  831   2.251   1.353   9.714 -1.6523 -0.4909  2.4290
   12CHL1   C15  832   2.316   1.515   9.589  0.2385 -0.0049  0.1714
   12CHL1  H15A  833   2.318   1.626   9.581 -0.8596 -0.0600 -0.9601
   12CHL1  H15B  834   2.417   1.469   9.599  0.1825 -0.6408 -1.8911
   12CHL1   C16  835   2.246   1.447   9.464  0.7194 -0.7162  0.1602
   12CHL1  H16A  836   2.222   1.525   9.388 -0.4142  0.3091  1.5215
   12CHL1  H16B  837   2.306   1.364   9.422  0.2421 -0.6430 -0.6696
   12CHL1   C17  838   2.107   1.382   9.514  0.0863 -0.4835  0.5007
   12CHL1   H17  839   2.130   1.276   9.538  0.3467 -0.4872  0.2385
   12CHL1   C13  840   2.085   1.458   9.652 -0.0533  0.1404  0.5133
   12CHL1   C18  841   2.045   1.611   9.628 -0.3993 -0.1275 -0.1987
   12CHL1  H18A  842   2.117   1.664   9.562  0.2311  1.6041  1.8179
   12CHL1  H18B  843   1.948   1.614   9.573 -2.1603 -0.0383  2.8159
   12CHL1  H18C  844   2.032   1.674   9.718 -0.7327  0.0220 -0.3530
   12CHL1   C12  845   2.007   1.382   9.754 -0.3816  0.7135  0.3442
   12CHL1  H12A  846   1.901   1.381   9.721 -0.2697  1.9289 -0.0707
   12CHL1  H12B  847   2.038   1.275   9.753 -0.8023  0.4805  4.5035
   12CHL1   C11  848   2.005   1.448   9.884 -0.2327 -0.7116 -0.1343
   12CHL1  H11A  849   1.956   1.545   9.858 -1.2115 -1.2819 -0.4237
   12CHL1  H11B  850   1.934   1.401   9.954 -1.9077  0.4727 -1.0060
   12CHL1    C9  851   2.146   1.452   9.939  0.5782  0.5973 -0.0988
   12CHL1    H9  852   2.182   1.347   9.936  1.6726  1.0068 -2.7771
   12CHL1   C10  853   2.159   1.507  10.080  0.0010 -0.3801 -0.8022
   12CHL1   C19  854   2.084   1.643  10.096  0.6032  0.9830 -0.5578
   12CHL1  H19A  855   1.974   1.637  10.077  0.1043  1.1363  2.1233
   12CHL1  H19B  856   2.101   1.680  10.199  0.4623  0.0011 -0.1791
   12CHL1  H19C  857   2.133   1.726  10.041  0.7820 -0.6245 -2.8965
   12CHL1    C1  858   2.080   1.415  10.183  0.2217  0.4437  0.5089
   12CHL1   H1A  859   1.969   1.413  10.184  0.1944  1.4834  0.2403
   12CHL1   H1B  860   2.116   1.315  10.150 -0.6816  0.4330 -0.4885
   12CHL1    C2  861   2.106   1.433  10.329 -0.3764 -0.6527 -0.1280
   12CHL1   H2A  862   2.055   1.353  10.387 -1.8786 -0.9913 -1.8817
   12CHL1   H2B  863   2.065   1.530  10.364  2.2405  0.9872 -1.4411
   12CHL1   C20  864   1.996   1.389   9.402 -0.0906 -0.4551 -0.5446
   12CHL1   H20  865   2.000   1.493   9.363  0.9115 -0.0989  0.4764
   12CHL1   C21  866   1.856   1.365   9.457  0.1508 -0.0665  0.1036
   12CHL1  H21A  867   1.843   1.421   9.552  1.0834  1.4365 -0.6329
   12CHL1  H21B  868   1.835   1.259   9.479 -0.7362 -0.7256 -3.5690
   12CHL1  H21C  869   1.785   1.402   9.379 -0.0952 -1.4607 -0.3479
   12CHL1   C22  870   1.998   1.294   9.278 -0.6982  0.6265  0.0270
   12CHL1  H22A  871   2.014   1.191   9.316  0.4567  0.6800 -0.2879
   12CHL1  H22B  872   1.895   1.287   9.239 -1.3694  0.3922  1.7966
   12CHL1   C23  873   2.095   1.320   9.160  0.0383  0.3736  1.1161
   12CHL1  H23A  874   2.201   1.337   9.189  0.5545  0.6624 -0.8657
   12CHL1  H23B  875   2.091   1.228   9.099 -0.0203  0.2795  1.2614
   12CHL1   C24  876   2.049   1.445   9.074 -0.2563  0.3681  0.7041
   12CHL1  H24A  877   1.946   1.434   9.034 -0.0921  0.1720  0.3308
   12CHL1  H24B  878   2.063   1.537   9.135  1.8696  0.0703  0.7086
   12CHL1   C25  879   2.140   1.466   8.944 -0.3648 -0.5737  0.1453
   12CHL1   H25  880   2.246   1.467   8.974  0.9313  1.7392 -4.0347
   12CHL1   C26  881   2.132   1.361   8.839  0.1002  0.8768  0.3016
   12CHL1  H26A  882   2.183   1.267   8.869 -2.5743 -0.9867 -0.8034
   12CHL1  H26B  883   2.029   1.328   8.814 -0.6025  1.0795  2.8201
   12CHL1  H26C  884   2.184   1.391   8.745 -0.0878  1.1045  0.2706
   12CHL1   C27  885   2.110   1.610   8.882  0.7620 -0.0422  0.0523
   12CHL1  H27A  886   2.170   1.636   8.793  1.1342 -0.6711  0.1222
   12CHL1  H27B  887   2.001   1.602   8.861  1.1919 -1.8559 -1.6659
   12CHL1  H27C  888   2.130   1.692   8.955  1.1625 -1.2512  1.3109
   13CHL1    C3  889   1.539   3.284   9.913 -0.5483 -0.8154 -0.8390
   13CHL1    H3  890   1.640   3.260   9.873 -0.8070 -1.6601 -0.9935
   13CHL1    O3  891   1.536   3.298  10.052  0.1256 -0.3015  0.6176
   13CHL1   H3'  892   1.485   3.379  10.058  1.8927  1.0830 -1.9453
   13CHL1    C4  893   1.495   3.413   9.852  0.7036 -0.7204  1.5575
   13CHL1   H4A  894   1.404   3.446   9.906  1.1981  0.3396  1.7465
   13CHL1   H4B  895   1.575   3.482   9.883  0.7151  0.6537 -1.3664
   13CHL1    C5  896   1.488   3.410   9.694  0.8151 -0.1230 -0.3753
   13CHL1    C6  897   1.565   3.492   9.619 -0.3928 -0.0945 -0.2370
   13CHL1    H6  898   1.614   3.574   9.674  0.1095 -1.2105  1.0125
   13CHL1    C7  899   1.580   3.486   9.466  0.2799  0.5346 -1.1233
   13CHL1   H7A  900   1.565   3.593   9.441 -2.7024  0.8694  1.7153
   13CHL1   H7B  901   1.684   3.457   9.440  1.0171  1.4088  0.6902
   13CHL1    C8  902   1.484   3.386   9.400  0.0786 -0.3647  0.4475
   13CHL1    H8  903   1.393   3.449   9.391 -0.6706 -1.4496  0.3344
   13CHL1   C14  904   1.521   3.346   9.259  0.0744 -0.5881 -0.2897
   13CHL1   H14  905   1.617   3.292   9.270  0.1126 -0.2852  0.9311
   13CHL1   C15  906   1.540   3.468   9.160 -0.5916 -0.2533 -1.0101
   13CHL1  H15A  907   1.471   3.552   9.179 -1.5776 -1.6773  2.0600
   13CHL1  H15B  908   1.644   3.508   9.172 -0.6099 -0.0652 -1.4689
   13CHL1   C16  909   1.524   3.401   9.022  0.0420 -0.5787  0.1833
   13CHL1  H16A  910   1.465   3.462   8.950 -0.5670  0.0089  1.1748
   13CHL1  H16B  911   1.618   3.394   8.963  0.3487  0.5053  0.5308
   13CHL1   C17  912   1.477   3.255   9.046 -0.1455  0.2611 -0.0076
   13CHL1   H17  913   1.563   3.185   9.041  1.0366  1.6429  1.0216
   13CHL1   C13  914   1.419   3.255   9.192 -0.0889 -0.9361 -0.0521
   13CHL1   C18  915   1.277   3.300   9.183  0.6391 -0.5817  0.0461
   13CHL1  H18A  916   1.210   3.220   9.144  2.4555 -1.2084 -1.8979
   13CHL1  H18B  917   1.241   3.323   9.286 -1.4229 -1.7944 -0.3620
   13CHL1  H18C  918   1.256   3.386   9.116  1.3191  0.5506  1.2620
   13CHL1   C12  919   1.422   3.124   9.265  0.2328 -0.5394 -0.0832
   13CHL1  H12A  920   1.355   3.046   9.221 -1.9860  2.9174 -3.2110
   13CHL1  H12B  921   1.529   3.094   9.267  0.9537  1.9688  0.5831
   13CHL1   C11  922   1.393   3.146   9.413  0.4570  0.3990 -0.4933
   13CHL1  H11A  923   1.282   3.159   9.415  0.1214 -2.3556  1.2795
   13CHL1  H11B  924   1.415   3.049   9.464  0.6119  0.8738  0.3400
   13CHL1    C9  925   1.467   3.261   9.482 -0.1359 -0.3107  0.4316
   13CHL1    H9  926   1.573   3.228   9.485  0.0144  0.1632  0.3453
   13CHL1   C10  927   1.422   3.285   9.631 -0.6378  0.0579  0.0327
   13CHL1   C19  928   1.267   3.314   9.634 -0.0483 -0.6666 -0.6258
   13CHL1  H19A  929   1.250   3.401   9.567 -3.1695  0.3638  1.3543
   13CHL1  H19B  930   1.198   3.230   9.612 -1.6338  1.3169 -3.5460
   13CHL1  H19C  931   1.241   3.353   9.736  0.8266 -1.6600 -0.0156
   13CHL1    C1  932   1.459   3.156   9.709  0.3319  0.0755  0.6026
   13CHL1   H1A  933   1.395   3.069   9.680 -0.2746  0.4416  0.8411
   13CHL1   H1B  934   1.563   3.123   9.689  0.6893  1.3129  0.4166
   13CHL1    C2  935   1.452   3.166   9.864  0.2170  0.3872 -0.2795
   13CHL1   H2A  936   1.498   3.072   9.901 -0.5652  0.1055 -0.0078
   13CHL1   H2B  937   1.353   3.181   9.912  0.9950  1.2913  1.0826
   13CHL1   C20  938   1.396   3.200   8.931  0.1730  0.1733  0.9932
   13CHL1   H20  939   1.304   3.261   8.929 -1.3603 -2.0585  1.5030
   13CHL1   C21  940   1.368   3.050   8.949 -0.7890  0.2638  0.0141
   13CHL1  H21A  941   1.313   3.025   8.856 -0.8331 -2.2171  0.6776
   13CHL1  H21B  942   1.309   3.009   9.034 -1.2607 -3.0464 -1.8608
   13CHL1  H21C  943   1.463   2.993   8.945 -2.7257 -2.9922 -1.8611
   13CHL1   C22  944   1.474   3.230   8.795  0.1010 -0.1284  0.0868
   13CHL1  H22A  945   1.487   3.340   8.781  0.6984 -0.2707 -0.5388
   13CHL1  H22B  946   1.577   3.198   8.823  0.1847  0.1032  0.0471
   13CHL1   C23  947   1.423   3.160   8.672  0.3573  0.3058 -0.1117
   13CHL1  H23A  948   1.486   3.164   8.580  0.6220  1.7302  0.1167
   13CHL1  H23B  949   1.416   3.049   8.676 -1.8618  0.3480 -1.8406
   13CHL1   C24  950   1.278   3.215   8.636 -0.2078  0.4822 -0.2318
   13CHL1  H24A  951   1.221   3.226   8.731 -0.7298 -1.9877 -0.2181
   13CHL1  H24B  952   1.287   3.314   8.587  3.4234 -0.3759 -1.4645
   13CHL1   C25  953   1.192   3.129   8.535  0.6297  0.0496 -0.4025
   13CHL1   H25  954   1.173   3.029   8.580 -0.6370  0.5892  0.2806
   13CHL1   C26  955   1.062   3.205   8.511  0.9018 -0.1546  0.3078
   13CHL1  H26A  956   1.077   3.307   8.470  0.7485 -1.1227 -2.2657
   13CHL1  H26B  957   0.998   3.143   8.444  1.7245 -0.1227 -0.5220
   13CHL1  H26C  958   1.008   3.210   8.608 -0.3266 -1.2942 -0.2894
   13CHL1   C27  959   1.271   3.103   8.411  0.1952 -0.1064  0.2374
   13CHL1  H27A  960   1.363   3.044   8.431 -1.0293 -1.7308  1.2053
   13CHL1  H27B  961   1.203   3.049   8.343  1.6531 -0.9285 -0.6075
   13CHL1  H27C  962   1.304   3.198   8.364 -1.3956  0.3067 -0.0550
   14CHL1    C3  963   1.344   6.035  10.323 -0.6410  0.1230  0.0392
   14CHL1    H3  964   1.436   5.983  10.287 -0.9326 -2.7659  3.1914
   14CHL1    O3  965   1.356   6.028  10.462 -0.5222  0.5368 -0.2838
   14CHL1   H3'  966   1.387   6.116  10.483 -2.1703  1.0179  0.2115
   14CHL1    C4  967   1.330   6.182  10.278 -0.0143  0.3627 -0.1756
   14CHL1   H4A  968   1.249   6.238  10.330 -1.9625 -1.7419 -0.8725
   14CHL1   H4B  969   1.425   6.214  10.327 -0.3978 -0.4147  1.0858
   14CHL1    C5  970   1.323   6.191  10.125  0.0337 -0.0696  0.4368
   14CHL1    C6  971   1.408   6.270  10.054 -0.4392 -0.2481  0.0034
   14CHL1    H6  972   1.492   6.322  10.102 -0.7280 -0.3462  0.6067
   14CHL1    C7  973   1.388   6.296   9.908 -0.0415  0.1256 -0.1878
   14CHL1   H7A  974   1.410   6.400   9.877 -0.6132  0.3551  0.1723
   14CHL1   H7B  975   1.466   6.236   9.856  0.9649 -0.8541  2.3538
   14CHL1    C8  976   1.244   6.250   9.853 -0.0970  0.6961 -0.7955
   14CHL1    H8  977   1.172   6.319   9.903  0.2711  0.2901  0.3097
   14CHL1   C14  978   1.232   6.247   9.704 -0.0586  0.4342  0.2057
   14CHL1   H14  979   1.293   6.164   9.663 -2.3077 -0.7262 -0.8950
   14CHL1   C15  980   1.271   6.371   9.630  0.3025 -0.1697  0.4352
   14CHL1  H15A  981   1.220   6.454   9.683 -1.1703 -1.7993  1.6144
   14CHL1  H15B  982   1.378   6.399   9.626  0.3652 -0.2568  1.4652
   14CHL1   C16  983   1.203   6.357   9.488  0.1831 -0.4124  0.1009
   14CHL1  H16A  984   1.134   6.442   9.467  2.1213  1.6494  1.8488
   14CHL1  H16B  985   1.277   6.358   9.406 -3.1581 -0.1976 -3.0047
   14CHL1   C17  986   1.121   6.223   9.489 -0.4426  0.3324 -0.5273
   14CHL1   H17  987   1.195   6.149   9.452  0.8854  1.4673 -0.1669
   14CHL1   C13  988   1.093   6.204   9.648  0.2381  0.6874  0.0189
   14CHL1   C18  989   0.986   6.299   9.701 -0.5071 -0.4327 -0.1221
   14CHL1  H18A  990   0.990   6.294   9.812 -0.8421  1.4609 -0.0074
   14CHL1  H18B  991   0.997   6.408   9.687 -2.5751  0.0909  1.9338
   14CHL1  H18C  992   0.885   6.270   9.662 -0.3067 -0.2579 -0.7756
   14CHL1   C12  993   1.070   6.060   9.686  0.3517  0.4103 -0.7909
   14CHL1  H12A  994   0.970   6.019   9.659  0.1861  0.8200 -0.8073
   14CHL1  H12B  995   1.144   5.997   9.632  2.0347  0.9750  0.8361
   14CHL1   C11  996   1.091   6.037   9.838 -0.2799  0.3038  0.0707
   14CHL1  H11A  997   0.999   6.058   9.897  0.3491  1.7418  0.5439
   14CHL1  H11B  998   1.099   5.928   9.857  0.3887 -0.1575 -2.6222
   14CHL1    C9  999   1.214   6.104   9.908 -0.0308 -0.0733  0.2517
   14CHL1    H9 1000   1.297   6.038   9.875  0.7270 -0.0459  2.0536
   14CHL1   C10 1001   1.208   6.104  10.064 -0.2219 -0.4822 -0.0224
   14CHL1   C19 1002   1.068   6.168  10.102 -0.3698  0.3005  0.7152
   14CHL1  H19A 1003   0.979   6.103  10.095 -1.5072  1.7772  1.3640
   14CHL1  H19B 1004   1.075   6.189  10.211  1.5145  1.2375  0.4299
   14CHL1  H19C 1005   1.055   6.264  10.048 -5.5168  0.3526  1.8701
   14CHL1    C1 1006   1.217   5.954  10.126  0.1087 -0.1557 -0.2494
   14CHL1   H1A 1007   1.125   5.900  10.093 -1.1393  0.7636  1.5982
   14CHL1   H1B 1008   1.310   5.915  10.079  0.3688  1.0575 -0.7630
   14CHL1    C2 1009   1.219   5.950  10.277 -0.0132 -0.1364 -0.2240
   14CHL1   H2A 1010   1.218   5.843  10.308  0.9680  0.0034  0.3064
   14CHL1   H2B 1011   1.131   6.002  10.320 -1.3792 -0.2287 -2.8172
   14CHL1   C20 1012   0.993   6.230   9.396  0.3189  0.0182 -0.2385
   14CHL1   H20 1013   0.938   6.318   9.434 -2.0926 -1.1922 -0.7917
   14CHL1   C21 1014   0.905   6.098   9.408 -0.5426 -0.7116 -0.0380
   14CHL1  H21A 1015   0.974   6.011   9.412 -1.1166 -1.1099  1.2869
   14CHL1  H21B 1016   0.832   6.087   9.325 -0.6620 -1.1693  0.1321
   14CHL1  H21C 1017   0.853   6.104   9.505  1.7391  0.8417  1.1326
   14CHL1   C22 1018   1.026   6.264   9.248  0.2119  0.5638 -0.7210
   14CHL1  H22A 1019   0.927   6.274   9.198 -0.3077 -0.4790  0.0952
   14CHL1  H22B 1020   1.070   6.366   9.252 -0.4314  0.8321 -0.4634
   14CHL1   C23 1021   1.115   6.169   9.169  0.0441  0.3564  1.3941
   14CHL1  H23A 1022   1.191   6.231   9.117  0.5380 -1.3352  0.0387
   14CHL1  H23B 1023   1.175   6.096   9.228  1.4173  0.3862  0.0886
   14CHL1   C24 1024   1.046   6.098   9.049 -0.0164 -0.6053  0.0291
   14CHL1  H24A 1025   0.974   6.029   9.097  1.3030 -1.2424  1.1176
   14CHL1  H24B 1026   0.977   6.175   9.007  1.4618  1.3438  1.0867
   14CHL1   C25 1027   1.126   6.031   8.930 -0.8439 -0.4653  0.3432
   14CHL1   H25 1028   1.196   6.105   8.887 -1.4810 -0.0794 -0.0409
   14CHL1   C26 1029   1.216   5.913   8.972 -0.3126 -0.2377 -0.3034
   14CHL1  H26A 1030   1.251   5.857   8.883 -2.2799 -1.7872 -0.1341
   14CHL1  H26B 1031   1.308   5.952   9.021  0.7359 -0.9771 -1.6466
   14CHL1  H26C 1032   1.160   5.838   9.031  1.2010 -0.1548  1.2943
   14CHL1   C27 1033   1.032   5.991   8.815 -0.2132  0.4054  0.9847
   14CHL1  H27A 1034   1.091   5.942   8.735 -0.9395  0.7958  0.2027
   14CHL1  H27B 1035   0.966   5.908   8.850  2.1093 -2.0770 -0.3094
   14CHL1  H27C 1036   0.976   6.068   8.759  1.8729  2.0010  1.0342
   15CHL1    C3 1037   1.582   4.790  10.200  0.1748  1.1055  0.4808
   15CHL1    H3 1038   1.497   4.760  10.135  0.2112  2.6384 -0.2920
   15CHL1    O3 1039   1.560   4.739  10.338 -0.6897  0.3860 -0.5482
   15CHL1   H3' 1040   1.482   4.785  10.369 -1.5548 -0.8870 -0.8351
   15CHL1    C4 1041   1.717   4.738  10.148  0.1165  0.1066  0.1645
   15CHL1   H4A 1042   1.790   4.776  10.223  0.6759 -0.5720 -0.0328
   15CHL1   H4B 1043   1.712   4.627  10.156  0.1881  0.1593  1.0144
   15CHL1    C5 1044   1.758   4.791  10.010 -0.0096  0.3744 -0.1925
   15CHL1    C6 1045   1.785   4.704   9.912  0.1840 -0.0998  0.1113
   15CHL1    H6 1046   1.804   4.596   9.926  0.5944 -0.0861 -0.3539
   15CHL1    C7 1047   1.815   4.737   9.767  0.2419 -0.3822  0.5052
   15CHL1   H7A 1048   1.909   4.702   9.721  1.6296  1.5483  1.7735
   15CHL1   H7B 1049   1.730   4.706   9.702 -0.4251  1.9068  0.2402
   15CHL1    C8 1050   1.827   4.893   9.748  0.1634 -0.6123  0.1984
   15CHL1    H8 1051   1.935   4.911   9.769  0.8275 -2.5207 -1.3518
   15CHL1   C14 1052   1.789   4.920   9.604 -0.4127 -0.4106  0.7325
   15CHL1   H14 1053   1.683   4.886   9.595 -0.6769  0.3916  0.7413
   15CHL1   C15 1054   1.868   4.844   9.494  0.5366 -0.0936 -0.2632
   15CHL1  H15A 1055   1.974   4.864   9.521  1.1110 -1.2404 -1.5896
   15CHL1  H15B 1056   1.848   4.735   9.495  2.3452 -0.4697 -1.3061
   15CHL1   C16 1057   1.825   4.924   9.366 -0.4462  0.0749 -0.0047
   15CHL1  H16A 1058   1.923   4.936   9.314  0.3923 -2.0271  1.0329
   15CHL1  H16B 1059   1.763   4.861   9.299 -2.7014  0.1328  1.9722
   15CHL1   C17 1060   1.763   5.061   9.407  0.3092 -0.6570 -1.0256
   15CHL1   H17 1061   1.655   5.033   9.412  0.1116 -0.1324 -2.1515
   15CHL1   C13 1062   1.793   5.069   9.561 -0.8240 -0.3031 -0.2861
   15CHL1   C18 1063   1.941   5.117   9.573 -0.0003  0.2385  0.0328
   15CHL1  H18A 1064   1.946   5.228   9.564  0.5170  0.0773 -2.0259
   15CHL1  H18B 1065   1.993   5.085   9.666  2.6994  1.4969 -0.9749
   15CHL1  H18C 1066   2.007   5.086   9.490 -0.3777 -0.8841  0.1498
   15CHL1   C12 1067   1.700   5.154   9.652  0.2214 -0.4275  0.0457
   15CHL1  H12A 1068   1.706   5.263   9.632  0.7950 -0.5307 -0.3464
   15CHL1  H12B 1069   1.590   5.137   9.650  0.1765 -0.1107 -0.1513
   15CHL1   C11 1070   1.745   5.130   9.798 -0.3028  0.4954 -0.3789
   15CHL1  H11A 1071   1.852   5.157   9.803 -0.4889  1.0134  0.9997
   15CHL1  H11B 1072   1.685   5.203   9.856 -2.5542 -1.3815 -0.2450
   15CHL1    C9 1073   1.729   4.978   9.836  0.2632 -0.3805  0.0125
   15CHL1    H9 1074   1.628   4.950   9.798 -0.1406 -1.0050  1.5159
   15CHL1   C10 1075   1.732   4.941   9.986  0.8382 -0.2208 -1.0267
   15CHL1   C19 1076   1.856   5.010  10.043  0.1791  0.4960 -0.0876
   15CHL1  H19A 1077   1.948   4.980   9.989  1.2836 -0.5434  2.2688
   15CHL1  H19B 1078   1.838   5.119  10.033 -0.0754  0.3694 -1.0810
   15CHL1  H19C 1079   1.868   4.980  10.150 -1.2492 -1.2851 -0.4065
   15CHL1    C1 1080   1.601   4.994  10.053 -0.2332  0.2296 -0.3904
   15CHL1   H1A 1081   1.598   5.104  10.069 -0.4628  0.2717 -0.7100
   15CHL1   H1B 1082   1.511   4.971   9.992 -2.2245  0.2169  2.4715
   15CHL1    C2 1083   1.576   4.942  10.194 -0.4838  0.9267 -0.1144
   15CHL1   H2A 1084   1.493   4.990  10.251 -1.7029 -0.7648 -0.4435
   15CHL1   H2B 1085   1.664   4.977  10.253 -1.6849  0.4747  1.9742
   15CHL1   C20 1086   1.787   5.182   9.320  0.9178 -0.2079 -0.1846
   15CHL1   H20 1087   1.882   5.232   9.346 -0.0837  1.9111 -0.5071
   15CHL1   C21 1088   1.676   5.286   9.335  0.4869  0.0908 -0.2635
   15CHL1  H21A 1089   1.582   5.237   9.302  1.3142 -2.4396  0.9517
   15CHL1  H21B 1090   1.696   5.373   9.270  0.6266  0.1576 -0.1304
   15CHL1  H21C 1091   1.672   5.324   9.439  1.1692 -0.4350 -0.0404
   15CHL1   C22 1092   1.803   5.143   9.173 -0.3121  0.0581  0.3342
   15CHL1  H22A 1093   1.888   5.075   9.149 -1.1216 -0.2570 -1.7767
   15CHL1  H22B 1094   1.714   5.085   9.140 -1.9935  2.1702  1.0271
   15CHL1   C23 1095   1.829   5.265   9.073 -1.2230  0.4607  0.5249
   15CHL1  H23A 1096   1.751   5.344   9.075 -1.2613  0.4396  0.0036
   15CHL1  H23B 1097   1.927   5.310   9.101 -1.0688 -0.3243  1.2644
   15CHL1   C24 1098   1.837   5.213   8.932  0.3779  0.6468  0.8437
   15CHL1  H24A 1099   1.905   5.125   8.923 -0.2359  0.2652 -0.1202
   15CHL1  H24B 1100   1.743   5.170   8.891  0.8192 -0.1144  0.6297
   15CHL1   C25 1101   1.884   5.322   8.832 -0.4240 -0.1824  0.3982
   15CHL1   H25 1102   1.988   5.343   8.867  0.0389 -3.3740  1.0965
   15CHL1   C26 1103   1.902   5.253   8.698 -0.0333  0.0169 -0.3333
   15CHL1  H26A 1104   1.950   5.154   8.710 -0.8248 -0.5402 -1.6405
   15CHL1  H26B 1105   1.802   5.235   8.652 -1.7162  0.0810  3.0687
   15CHL1  H26C 1106   1.952   5.321   8.627  0.3946  1.0761  0.9537
   15CHL1   C27 1107   1.801   5.451   8.836  0.0595 -0.3811  0.2188
   15CHL1  H27A 1108   1.837   5.520   8.757 -0.0182 -2.2749 -1.5260
   15CHL1  H27B 1109   1.695   5.426   8.816 -0.0858  1.7375 -1.9169
   15CHL1  H27C 1110   1.797   5.501   8.935 -3.1268  3.0910 -1.5525
   16CHL1    C3 1111   2.059   5.525  10.147  0.0837 -1.0993  0.4201
   16CHL1    H3 1112   2.165   5.496  10.135  0.7802  1.5062 -0.0745
   16CHL1    O3 1113   2.025   5.507  10.285  0.3667 -0.3838  0.1602
   16CHL1   H3' 1114   2.110   5.489  10.327  0.5228 -0.4743 -0.1947
   16CHL1    C4 1115   2.050   5.680  10.114  0.3487 -0.4933 -0.3400
   16CHL1   H4A 1116   1.947   5.713  10.138  0.7001  1.9625 -2.0145
   16CHL1   H4B 1117   2.123   5.735  10.178  1.0041 -2.5373  0.7010
   16CHL1    C5 1118   2.098   5.702   9.968  0.1414 -0.2589  0.2017
   16CHL1    C6 1119   2.191   5.790   9.924  0.3616 -0.4360 -0.1028
   16CHL1    H6 1120   2.236   5.856  10.001  0.7952 -1.4422  0.5175
   16CHL1    C7 1121   2.241   5.788   9.785  0.6141  0.2461 -0.1098
   16CHL1   H7A 1122   2.274   5.891   9.759 -1.5001  1.6633  2.5974
   16CHL1   H7B 1123   2.333   5.724   9.784 -0.3475 -1.2468  2.2959
   16CHL1    C8 1124   2.146   5.731   9.674 -0.8035 -0.8650  0.0756
   16CHL1    H8 1125   2.058   5.796   9.656  0.5110  1.5386  2.0737
   16CHL1   C14 1126   2.218   5.714   9.544 -0.5497 -0.3815  0.1475
   16CHL1   H14 1127   2.298   5.638   9.560  0.0443  0.1584 -0.2189
   16CHL1   C15 1128   2.287   5.832   9.488  0.1026 -0.0361  0.2077
   16CHL1  H15A 1129   2.229   5.921   9.458  0.7152 -0.0703 -1.1480
   16CHL1  H15B 1130   2.376   5.864   9.548 -1.3523 -1.2144  3.0775
   16CHL1   C16 1131   2.326   5.779   9.345  0.1190 -0.4642  0.2654
   16CHL1  H16A 1132   2.300   5.856   9.269 -3.5797 -0.5611  1.3357
   16CHL1  H16B 1133   2.436   5.762   9.350  0.9936  4.6609  0.9008
   16CHL1   C17 1134   2.245   5.645   9.319 -0.3474  0.5096  0.1248
   16CHL1   H17 1135   2.318   5.565   9.345  0.8230  1.6072  0.2517
   16CHL1   C13 1136   2.139   5.649   9.436  0.3655 -0.8812 -0.6340
   16CHL1   C18 1137   2.023   5.744   9.395 -0.0704 -0.1102 -0.1944
   16CHL1  H18A 1138   1.960   5.697   9.317  1.5458  0.2034 -1.7385
   16CHL1  H18B 1139   1.957   5.761   9.483 -1.9064 -2.7737 -1.0032
   16CHL1  H18C 1140   2.061   5.842   9.357  0.1416 -0.5949 -1.2289
   16CHL1   C12 1141   2.078   5.512   9.479  0.1181  0.2278  0.3233
   16CHL1  H12A 1142   2.019   5.457   9.403 -0.0065  0.6582  0.1058
   16CHL1  H12B 1143   2.161   5.439   9.495  0.0058 -0.0509 -0.3390
   16CHL1   C11 1144   2.011   5.525   9.615  0.3514 -0.4035  0.4939
   16CHL1  H11A 1145   1.918   5.587   9.609 -0.6509 -1.7339  1.9618
   16CHL1  H11B 1146   1.982   5.423   9.648  0.2740 -0.4461  0.2927
   16CHL1    C9 1147   2.097   5.598   9.726  0.1566 -0.5692 -0.1572
   16CHL1    H9 1148   2.183   5.533   9.753  0.8436  0.4981  0.2450
   16CHL1   C10 1149   2.025   5.608   9.866 -0.2734  0.8884 -0.5444
   16CHL1   C19 1150   1.891   5.681   9.854  0.5118 -0.6730 -0.2366
   16CHL1  H19A 1151   1.846   5.684   9.956 -0.0663 -0.8759 -0.4868
   16CHL1  H19B 1152   1.889   5.784   9.814 -1.5876 -0.4678  0.3341
   16CHL1  H19C 1153   1.815   5.627   9.794  0.2872  0.8808 -1.3736
   16CHL1    C1 1154   2.014   5.454   9.915  0.0054 -0.4536  0.1139
   16CHL1   H1A 1155   1.934   5.401   9.860 -0.7287  0.1252  0.6151
   16CHL1   H1B 1156   2.111   5.400   9.907  0.7193  0.4686  2.1855
   16CHL1    C2 1157   1.960   5.443  10.055 -0.5498 -0.4712 -1.0537
   16CHL1   H2A 1158   1.958   5.335  10.080  0.0356 -0.5931 -1.5317
   16CHL1   H2B 1159   1.859   5.489  10.059 -0.9650 -1.1449 -3.0979
   16CHL1   C20 1160   2.197   5.630   9.173  0.1345 -0.2243 -0.5577
   16CHL1   H20 1161   2.138   5.720   9.145 -1.2731 -1.7241 -2.5114
   16CHL1   C21 1162   2.092   5.516   9.151 -0.4187  0.1035 -0.1532
   16CHL1  H21A 1163   2.133   5.422   9.193  0.7524  0.1076 -1.2365
   16CHL1  H21B 1164   2.083   5.501   9.041  0.6545  0.9561 -0.3803
   16CHL1  H21C 1165   1.993   5.535   9.197 -0.5158  2.4023 -1.2334
   16CHL1   C22 1166   2.320   5.611   9.079  0.6179  1.0819  0.0696
   16CHL1  H22A 1167   2.409   5.670   9.111  0.5408  0.6520  1.1086
   16CHL1  H22B 1168   2.345   5.503   9.085 -0.0157  1.0010  1.3825
   16CHL1   C23 1169   2.288   5.655   8.935 -0.0379 -0.6328  1.0288
   16CHL1  H23A 1170   2.202   5.598   8.893 -2.9105  3.4416  1.0413
   16CHL1  H23B 1171   2.251   5.760   8.937 -0.9507 -0.8205 -2.3886
   16CHL1   C24 1172   2.407   5.647   8.842  0.3965  0.2593  0.0990
   16CHL1  H24A 1173   2.488   5.720   8.864 -0.9709  1.8137  0.1347
   16CHL1  H24B 1174   2.456   5.548   8.840  0.3221  0.2466 -1.8691
   16CHL1   C25 1175   2.399   5.681   8.693  1.2319  0.2874 -0.2231
   16CHL1   H25 1176   2.500   5.698   8.650  0.6049 -3.1910 -3.3546
   16CHL1   C26 1177   2.320   5.571   8.618 -0.1308  0.3233 -0.4634
   16CHL1  H26A 1178   2.365   5.469   8.624  2.1866  1.3569  0.3577
   16CHL1  H26B 1179   2.217   5.559   8.657 -0.4124  0.1145 -1.2673
   16CHL1  H26C 1180   2.309   5.590   8.509  1.5253 -0.9188 -0.8771
   16CHL1   C27 1181   2.323   5.813   8.672 -0.1896  0.6506 -0.0541
   16CHL1  H27A 1182   2.371   5.899   8.724  0.2230  0.2404  0.2485
   16CHL1  H27B 1183   2.321   5.843   8.565 -1.8202  0.6584 -0.0265
   16CHL1  H27C 1184   2.218   5.803   8.707  0.2064  0.2042  1.0350
   17CHL1    C3 1185   4.312   2.500  10.419  1.2225 -0.3956 -0.4036
   17CHL1    H3 1186   4.386   2.583  10.427  0.5280  0.1945  0.0612
   17CHL1    O3 1187   4.328   2.429  10.546  0.7718  0.8864 -0.0381
   17CHL1   H3' 1188   4.266   2.359  10.525 -0.1588  2.3393 -2.3102
   17CHL1    C4 1189   4.164   2.547  10.417  0.4363  0.8244  0.2759
   17CHL1   H4A 1190   4.092   2.471  10.455  1.6650  0.3697  1.7716
   17CHL1   H4B 1191   4.149   2.631  10.489 -0.3384  1.8568 -1.0764
   17CHL1    C5 1192   4.110   2.587  10.280 -0.9975  0.3215  0.5325
   17CHL1    C6 1193   4.041   2.700  10.258  1.0380 -0.4461  0.2582
   17CHL1    H6 1194   4.035   2.774  10.340  0.2617 -0.7845  0.5123
   17CHL1    C7 1195   3.979   2.733  10.120  0.6961 -0.3342 -0.6133
   17CHL1   H7A 1196   3.876   2.768  10.144  0.3391 -4.0007  3.9437
   17CHL1   H7B 1197   4.028   2.822  10.075 -1.6301  0.6973 -1.2028
   17CHL1    C8 1198   3.982   2.619  10.021 -0.2422  0.0175  0.2714
   17CHL1    H8 1199   3.906   2.543  10.052  0.3530 -1.1616 -1.0764
   17CHL1   C14 1200   3.969   2.676   9.876  0.2875  0.0860  0.1618
   17CHL1   H14 1201   4.067   2.725   9.857  0.5533  0.4473  2.3475
   17CHL1   C15 1202   3.870   2.786   9.846 -0.5795  0.1152 -0.5597
   17CHL1  H15A 1203   3.772   2.759   9.892  0.5781 -0.9623  1.3891
   17CHL1  H15B 1204   3.886   2.886   9.893  0.7251  0.4413 -1.6968
   17CHL1   C16 1205   3.872   2.785   9.695 -0.3485  0.0140 -0.4828
   17CHL1  H16A 1206   3.767   2.770   9.661 -0.7142  1.3007  0.0067
   17CHL1  H16B 1207   3.907   2.883   9.655  3.2335 -0.0400  2.3230
   17CHL1   C17 1208   3.968   2.675   9.641 -0.1685  0.2602 -0.1561
   17CHL1   H17 1209   4.069   2.721   9.648 -1.0468  2.3097 -0.5565
   17CHL1   C13 1210   3.967   2.573   9.762  0.0964 -0.5721 -0.4362
   17CHL1   C18 1211   3.836   2.485   9.769  0.5462 -0.8415  0.2840
   17CHL1  H18A 1212   3.826   2.405   9.693  0.5407 -0.0368 -0.5642
   17CHL1  H18B 1213   3.831   2.448   9.874 -0.6566 -0.2223  0.4557
   17CHL1  H18C 1214   3.748   2.552   9.765  0.8705 -0.4113  0.3004
   17CHL1   C12 1215   4.100   2.479   9.775 -0.1119  0.8245 -0.1694
   17CHL1  H12A 1216   4.106   2.391   9.708 -2.8404  0.6955 -0.3131
   17CHL1  H12B 1217   4.181   2.550   9.749  1.8531 -1.4206 -0.2963
   17CHL1   C11 1218   4.111   2.424   9.918  0.6544  0.2131  0.0186
   17CHL1  H11A 1219   4.018   2.367   9.937  0.5596  0.4860  0.3669
   17CHL1  H11B 1220   4.205   2.365   9.920  0.1894 -0.5018  1.2060
   17CHL1    C9 1221   4.112   2.535  10.026  0.0337 -0.1317 -0.2915
   17CHL1    H9 1222   4.191   2.606   9.993  1.0405 -0.7143  0.8183
   17CHL1   C10 1223   4.144   2.490  10.168  0.1891  0.4025  0.5054
   17CHL1   C19 1224   4.068   2.361  10.210  0.4221  0.5776  0.6809
   17CHL1  H19A 1225   4.103   2.283  10.139  0.1404  1.9364 -0.9874
   17CHL1  H19B 1226   4.088   2.328  10.314  0.5470  1.8533  1.0693
   17CHL1  H19C 1227   3.959   2.370  10.190  0.4063 -0.8916 -0.0290
   17CHL1    C1 1228   4.289   2.453  10.172 -0.0031 -0.0687  0.1161
   17CHL1   H1A 1229   4.318   2.386  10.088  1.2861 -1.0702  1.3214
   17CHL1   H1B 1230   4.345   2.545  10.143 -0.6403  0.1640 -0.3737
   17CHL1    C2 1231   4.339   2.405  10.302 -0.3327 -0.0487 -0.4867
   17CHL1   H2A 1232   4.449   2.395  10.285 -0.3503  0.2641 -0.8004
   17CHL1   H2B 1233   4.297   2.304  10.322 -1.0116 -0.0355 -1.7525
   17CHL1   C20 1234   3.944   2.623   9.496  0.1836 -0.0231 -0.6466
   17CHL1   H20 1235   3.836   2.598   9.486  0.9775 -4.6337  1.3381
   17CHL1   C21 1236   4.015   2.494   9.471  0.4525  0.6126  0.2073
   17CHL1  H21A 1237   3.992   2.446   9.373  0.9984 -2.7011  1.6401
   17CHL1  H21B 1238   3.983   2.414   9.541  0.3788  0.1787 -0.3180
   17CHL1  H21C 1239   4.125   2.509   9.476  0.5546 -0.1581  0.3834
   17CHL1   C22 1240   3.969   2.737   9.393 -0.1673 -0.3563  0.3481
   17CHL1  H22A 1241   3.899   2.821   9.409  1.4124  0.8936  0.7553
   17CHL1  H22B 1242   4.073   2.775   9.405 -0.5352  1.3009 -1.5640
   17CHL1   C23 1243   3.948   2.697   9.246 -0.3755 -0.0882  0.3728
   17CHL1  H23A 1244   3.994   2.601   9.216  0.6466  0.5670 -0.1675
   17CHL1  H23B 1245   3.837   2.684   9.245 -0.3061 -0.7514  0.9417
   17CHL1   C24 1246   3.989   2.806   9.147  0.3312 -0.0406 -0.2077
   17CHL1  H24A 1247   3.941   2.901   9.177 -1.0578 -0.0090 -2.4483
   17CHL1  H24B 1248   4.095   2.833   9.169 -0.6520  2.0554  2.2152
   17CHL1   C25 1249   3.962   2.774   8.999 -0.2199 -0.1382  0.5918
   17CHL1   H25 1250   3.853   2.753   8.993 -0.5870  1.7948  0.2474
   17CHL1   C26 1251   4.002   2.895   8.917 -0.3378 -0.0730  0.3341
   17CHL1  H26A 1252   3.940   2.981   8.952  0.3765  1.4958 -2.0831
   17CHL1  H26B 1253   4.105   2.928   8.941 -0.4113 -0.7408  1.5857
   17CHL1  H26C 1254   3.985   2.881   8.808 -0.0350  1.4109  0.0805
   17CHL1   C27 1255   4.032   2.652   8.945  0.3680 -0.5300  0.0824
   17CHL1  H27A 1256   4.141   2.668   8.961  0.7683 -0.9518 -2.1020
   17CHL1  H27B 1257   4.006   2.559   8.999 -1.3415 -0.2083 -0.1673
   17CHL1  H27C 1258   4.004   2.625   8.841 -1.3257  0.6481  0.2093
   18CHL1    C3 1259   3.778   0.926  10.124  0.7507 -0.0520  0.2081
   18CHL1    H3 1260   3.782   0.816  10.117 -1.6108 -0.1797  0.3456
   18CHL1    O3 1261   3.769   0.961  10.263 -0.0322  0.5063  0.2254
   18CHL1   H3' 1262   3.689   1.012  10.275 -0.3166  0.3930 -1.1887
   18CHL1    C4 1263   3.888   0.999  10.055 -0.2481 -0.4704  0.9780
   18CHL1   H4A 1264   3.865   1.107  10.066  3.8883  0.9980 -2.8481
   18CHL1   H4B 1265   3.983   0.998  10.112  0.6576 -2.2489 -0.5044
   18CHL1    C5 1266   3.897   0.957   9.906 -0.9113  0.0458 -0.2658
   18CHL1    C6 1267   4.010   0.914   9.858 -0.4727  0.1804 -0.2314
   18CHL1    H6 1268   4.096   0.915   9.926  0.4529 -0.9490 -1.3519
   18CHL1    C7 1269   4.030   0.880   9.715  0.0007  0.1012  0.4115
   18CHL1   H7A 1270   4.128   0.909   9.671  0.8959 -1.2185  1.4918
   18CHL1   H7B 1271   4.029   0.769   9.709  0.6595  0.2045 -2.3914
   18CHL1    C8 1272   3.914   0.931   9.619  0.6760  0.5043 -0.0870
   18CHL1    H8 1273   3.931   1.034   9.583  0.2206 -0.0882 -2.0298
   18CHL1   C14 1274   3.905   0.853   9.485  0.0882 -0.0619  0.5058
   18CHL1   H14 1275   3.883   0.748   9.515 -1.0154 -0.2619 -0.9398
   18CHL1   C15 1276   4.042   0.840   9.415  0.3228 -0.4165 -0.0062
   18CHL1  H15A 1277   4.091   0.940   9.421  1.0358 -0.8133  0.9018
   18CHL1  H15B 1278   4.108   0.762   9.458  1.4903  1.4173  1.6290
   18CHL1   C16 1279   4.004   0.814   9.270 -0.1268 -0.1128 -0.1414
   18CHL1  H16A 1280   4.039   0.894   9.202  1.0931  0.6808  1.4206
   18CHL1  H16B 1281   4.041   0.715   9.236  0.7627  0.7305 -1.7063
   18CHL1   C17 1282   3.844   0.804   9.269 -0.1874 -1.0624 -0.6130
   18CHL1   H17 1283   3.819   0.698   9.292 -0.7272 -0.6992  0.5615
   18CHL1   C13 1284   3.801   0.892   9.382 -0.1037  0.5253  0.0935
   18CHL1   C18 1285   3.813   1.040   9.347  0.6560 -0.4028 -0.1204
   18CHL1  H18A 1286   3.743   1.071   9.266 -0.6787 -1.4168  0.6435
   18CHL1  H18B 1287   3.795   1.099   9.439  3.1169  1.6675 -0.9067
   18CHL1  H18C 1288   3.917   1.062   9.315  0.3739 -0.6427 -1.2346
   18CHL1   C12 1289   3.672   0.865   9.455 -0.0976  0.4278  0.2087
   18CHL1  H12A 1290   3.581   0.894   9.398 -0.8098  1.3343  1.7656
   18CHL1  H12B 1291   3.670   0.755   9.473 -0.8172 -0.1602 -3.1723
   18CHL1   C11 1292   3.661   0.933   9.590  0.0555 -0.2850  0.4463
   18CHL1  H11A 1293   3.650   1.042   9.571  1.9670 -0.1063  0.3117
   18CHL1  H11B 1294   3.567   0.895   9.636  1.0523 -0.8497  2.0750
   18CHL1    C9 1295   3.780   0.908   9.691 -0.3017  0.3502 -0.0618
   18CHL1    H9 1296   3.762   0.799   9.706  0.8857  0.0406 -0.7933
   18CHL1   C10 1297   3.773   0.975   9.824  0.4367 -0.0291 -0.2938
   18CHL1   C19 1298   3.759   1.131   9.805 -0.3138 -0.7697  0.9891
   18CHL1  H19A 1299   3.847   1.166   9.746  1.0382 -0.3536  3.1994
   18CHL1  H19B 1300   3.669   1.163   9.748  0.3416  1.7160  1.2594
   18CHL1  H19C 1301   3.762   1.187   9.901 -0.2312  2.4549 -0.8139
   18CHL1    C1 1302   3.645   0.923   9.899 -0.2702  0.0643  0.4103
   18CHL1   H1A 1303   3.555   0.981   9.871 -0.2117  0.3921  0.8925
   18CHL1   H1B 1304   3.625   0.816   9.878  1.0756 -0.5273  2.0695
   18CHL1    C2 1305   3.644   0.963  10.048 -0.0503 -0.4188  0.0670
   18CHL1   H2A 1306   3.555   0.918  10.097 -2.1987  1.0584 -2.3380
   18CHL1   H2B 1307   3.641   1.073  10.058  1.4902 -0.3930  0.3586
   18CHL1   C20 1308   3.772   0.815   9.136 -0.7018 -0.0232 -0.3977
   18CHL1   H20 1309   3.772   0.918   9.094  2.1290 -0.0492 -0.5256
   18CHL1   C21 1310   3.626   0.757   9.151 -0.3509  0.1980  0.9098
   18CHL1  H21A 1311   3.582   0.746   9.050  1.0794  0.9611  0.1906
   18CHL1  H21B 1312   3.564   0.829   9.209 -2.5603 -1.4599  0.6687
   18CHL1  H21C 1313   3.629   0.656   9.196 -0.5362 -0.4280 -0.4723
   18CHL1   C22 1314   3.849   0.742   9.022 -0.6238 -0.2013 -0.5279
   18CHL1  H22A 1315   3.957   0.767   9.032 -0.4076 -1.0884 -0.6373
   18CHL1  H22B 1316   3.847   0.632   9.037 -0.5817  0.0649  1.5297
   18CHL1   C23 1317   3.817   0.792   8.882 -0.1548 -0.9172 -0.3130
   18CHL1  H23A 1318   3.714   0.776   8.842 -0.3603  1.3592 -0.7710
   18CHL1  H23B 1319   3.828   0.903   8.876 -3.6835 -0.4695  0.1913
   18CHL1   C24 1320   3.925   0.736   8.792 -0.1490  0.0786  0.7613
   18CHL1  H24A 1321   4.019   0.786   8.826 -0.0984  1.6436 -1.5020
   18CHL1  H24B 1322   3.928   0.625   8.795  1.6669  0.0369 -1.0413
   18CHL1   C25 1323   3.912   0.776   8.642  0.5723  0.7005  0.9197
   18CHL1   H25 1324   3.876   0.881   8.633 -0.8720 -0.0507 -3.4906
   18CHL1   C26 1325   4.052   0.779   8.576  0.5935 -0.5756 -0.7750
   18CHL1  H26A 1326   4.033   0.794   8.468 -0.1763  1.4799 -0.3815
   18CHL1  H26B 1327   4.121   0.853   8.621  1.7494 -2.6350  0.9415
   18CHL1  H26C 1328   4.092   0.677   8.593 -0.7788 -0.7123  1.9798
   18CHL1   C27 1329   3.817   0.685   8.557  0.3502  0.2532  0.2213
   18CHL1  H27A 1330   3.836   0.717   8.453 -1.4611  0.8567  0.0703
   18CHL1  H27B 1331   3.839   0.576   8.569  0.9009  0.5575  2.2838
   18CHL1  H27C 1332   3.711   0.695   8.588 -0.7486  2.8795 -3.9550
   19CHL1    C3 1333   0.576   4.346  10.088 -0.4006 -0.3119 -0.9309
   19CHL1    H3 1334   0.648   4.425  10.120 -0.9367 -0.7685  1.5026
   19CHL1    O3 1335   0.529   4.265  10.196 -0.3814  0.3271  0.0898
   19CHL1   H3' 1336   0.598   4.201  10.212 -1.1795 -0.6341 -0.2150
   19CHL1    C4 1337   0.450   4.405  10.022 -0.0248 -0.0291  0.6267
   19CHL1   H4A 1338   0.378   4.322  10.010 -0.4403  0.6400 -1.7290
   19CHL1   H4B 1339   0.416   4.487  10.088 -0.0140  1.2756 -0.9501
   19CHL1    C5 1340   0.485   4.471   9.886  0.3033 -0.1936 -0.4691
   19CHL1    C6 1341   0.456   4.600   9.871 -0.1980  0.2341  0.6152
   19CHL1    H6 1342   0.406   4.651   9.954 -0.9601  3.1702 -1.5425
   19CHL1    C7 1343   0.488   4.669   9.744 -0.0726 -0.5070  0.7502
   19CHL1   H7A 1344   0.404   4.732   9.707 -0.1482 -0.1030  1.5956
   19CHL1   H7B 1345   0.577   4.731   9.766 -1.2338  1.1105  1.0196
   19CHL1    C8 1346   0.519   4.576   9.624  0.4120 -0.1689  0.8200
   19CHL1    H8 1347   0.424   4.534   9.585  1.3063 -2.8931  1.4843
   19CHL1   C14 1348   0.575   4.650   9.505  0.5935 -0.3363  0.3688
   19CHL1   H14 1349   0.672   4.692   9.540  0.8404 -2.9382  2.9722
   19CHL1   C15 1350   0.488   4.774   9.451 -0.1544 -0.1447 -0.1664
   19CHL1  H15A 1351   0.382   4.741   9.451  0.6758 -3.0915 -3.1956
   19CHL1  H15B 1352   0.502   4.858   9.523 -0.2813  1.0349 -1.5067
   19CHL1   C16 1353   0.549   4.788   9.310  0.8443 -0.4819  0.8740
   19CHL1  H16A 1354   0.473   4.787   9.229  1.1843  0.8409  0.5253
   19CHL1  H16B 1355   0.606   4.881   9.292  0.5536 -0.8792 -2.2972
   19CHL1   C17 1356   0.639   4.663   9.276 -0.2977  0.1146  0.2788
   19CHL1   H17 1357   0.740   4.695   9.309 -0.6962  1.4952  0.1838
   19CHL1   C13 1358   0.598   4.562   9.382  0.2848 -0.3306  0.4604
   19CHL1   C18 1359   0.468   4.493   9.329 -0.7314  0.1873  0.4076
   19CHL1  H18A 1360   0.420   4.433   9.409 -0.8551 -1.1509 -0.6502
   19CHL1  H18B 1361   0.399   4.568   9.285  1.1757  0.6587 -1.8767
   19CHL1  H18C 1362   0.496   4.426   9.244 -0.9297  2.0023 -1.1106
   19CHL1   C12 1363   0.708   4.456   9.428  0.6150 -0.3651 -0.1725
   19CHL1  H12A 1364   0.726   4.385   9.345  0.9020 -0.2428 -0.2152
   19CHL1  H12B 1365   0.805   4.503   9.454 -0.2885  1.8089 -0.6299
   19CHL1   C11 1366   0.650   4.368   9.543  0.2877 -0.3153 -1.0992
   19CHL1  H11A 1367   0.558   4.320   9.503 -0.0488  0.0181 -0.7286
   19CHL1  H11B 1368   0.722   4.289   9.574  0.2106  0.3734  0.9253
   19CHL1    C9 1369   0.611   4.461   9.662  0.1640 -0.1014  0.0396
   19CHL1    H9 1370   0.705   4.508   9.697 -0.2869  1.2184 -0.4856
   19CHL1   C10 1371   0.560   4.388   9.790  0.1996 -0.1631 -0.1562
   19CHL1   C19 1372   0.461   4.276   9.749 -0.1566 -0.4507 -0.3945
   19CHL1  H19A 1373   0.429   4.223   9.841 -0.6008 -0.6826 -0.6784
   19CHL1  H19B 1374   0.374   4.313   9.691  1.1374  2.2198 -0.6950
   19CHL1  H19C 1375   0.516   4.196   9.693  0.0654 -2.3583  2.4442
   19CHL1    C1 1376   0.681   4.326   9.865 -0.2959  0.1201 -0.3809
   19CHL1   H1A 1377   0.727   4.255   9.793 -3.0151 -1.4585 -0.6294
   19CHL1   H1B 1378   0.748   4.412   9.884 -0.6468  0.4213 -0.5045
   19CHL1    C2 1379   0.648   4.247   9.998 -0.1748 -0.2457  0.6492
   19CHL1   H2A 1380   0.741   4.211  10.046  1.0889  0.8721 -0.9327
   19CHL1   H2B 1381   0.586   4.157   9.975 -0.6214 -0.1521  1.4732
   19CHL1   C20 1382   0.661   4.622   9.124 -0.5514  0.6195 -1.2540
   19CHL1   H20 1383   0.567   4.574   9.090  0.6254 -0.0364 -3.6742
   19CHL1   C21 1384   0.765   4.515   9.104 -0.1459  0.8340  0.1103
   19CHL1  H21A 1385   0.731   4.412   9.127  1.0424  0.8119  1.9180
   19CHL1  H21B 1386   0.848   4.539   9.175 -0.9515 -1.9622  2.0622
   19CHL1  H21C 1387   0.809   4.523   9.003  0.5342  0.1856  0.3472
   19CHL1   C22 1388   0.685   4.740   9.029 -0.2230 -0.5847 -0.3710
   19CHL1  H22A 1389   0.606   4.816   9.044  1.1260  0.7624 -0.0271
   19CHL1  H22B 1390   0.776   4.797   9.056 -0.5274  0.0454 -0.6631
   19CHL1   C23 1391   0.676   4.707   8.879 -0.5095  0.3860  0.0056
   19CHL1  H23A 1392   0.758   4.639   8.848 -1.3088  0.0991 -1.5360
   19CHL1  H23B 1393   0.580   4.661   8.847 -1.3177  2.0112  0.0167
   19CHL1   C24 1394   0.693   4.845   8.803  0.2663  0.1192 -0.2217
   19CHL1  H24A 1395   0.614   4.911   8.845 -3.1795 -1.8571 -3.3799
   19CHL1  H24B 1396   0.788   4.886   8.844  0.9747 -1.1337 -0.5809
   19CHL1   C25 1397   0.671   4.849   8.650  0.2295  0.7959 -0.5484
   19CHL1   H25 1398   0.699   4.950   8.611  2.5601  0.4013  0.0655
   19CHL1   C26 1399   0.745   4.742   8.570 -0.1622 -0.3204 -0.4435
   19CHL1  H26A 1400   0.846   4.720   8.610 -0.9294 -0.3415  1.5275
   19CHL1  H26B 1401   0.683   4.650   8.565  1.3195 -1.5909  3.1056
   19CHL1  H26C 1402   0.754   4.771   8.463  3.3148  1.7344  0.3402
   19CHL1   C27 1403   0.520   4.822   8.619  0.3809  0.7596  0.0084
   19CHL1  H27A 1404   0.515   4.794   8.512 -1.4396 -2.4785  0.8528
   19CHL1  H27B 1405   0.475   4.741   8.681  0.4060 -0.8976 -2.0830
   19CHL1  H27C 1406   0.464   4.915   8.644  1.1626  1.4079 -0.6775
   20CHL1    C3 1407   3.287   5.178  10.336 -0.3935 -0.5714 -0.4695
   20CHL1    H3 1408   3.234   5.083  10.313 -1.9239  0.2393 -0.2965
   20CHL1    O3 1409   3.298   5.186  10.477 -0.4112 -0.4457  0.0565
   20CHL1   H3' 1410   3.292   5.281  10.493 -1.4609 -0.7217  1.3945
   20CHL1    C4 1411   3.418   5.186  10.258  0.2489  0.0424  0.3220
   20CHL1   H4A 1412   3.469   5.280  10.287  0.5957 -0.1879  0.4611
   20CHL1   H4B 1413   3.475   5.100  10.300  2.2088  0.4401 -1.4327
   20CHL1    C5 1414   3.403   5.179  10.106 -0.5338 -0.2190 -0.7155
   20CHL1    C6 1415   3.465   5.092  10.025  0.3752 -0.3197 -0.0595
   20CHL1    H6 1416   3.542   5.020  10.058 -1.2315 -0.5759  3.3439
   20CHL1    C7 1417   3.451   5.092   9.879  0.1275 -0.5640  0.3816
   20CHL1   H7A 1418   3.555   5.105   9.842  0.9306 -1.5850  2.2204
   20CHL1   H7B 1419   3.419   4.993   9.840 -0.1857  0.0843 -1.0196
   20CHL1    C8 1420   3.362   5.205   9.820  0.0288  0.0030  0.6533
   20CHL1    H8 1421   3.431   5.288   9.794  0.5606 -0.9677 -1.0591
   20CHL1   C14 1422   3.298   5.154   9.690  0.0128  0.1134 -0.0810
   20CHL1   H14 1423   3.241   5.065   9.724 -2.0184  0.9942 -1.0683
   20CHL1   C15 1424   3.391   5.089   9.594  0.2401  0.2201  0.0933
   20CHL1  H15A 1425   3.489   5.138   9.574  0.7590 -0.9686 -0.3879
   20CHL1  H15B 1426   3.414   4.983   9.619  0.5175  0.1117 -0.6145
   20CHL1   C16 1427   3.310   5.092   9.464  0.5799 -0.2451  0.6437
   20CHL1  H16A 1428   3.385   5.149   9.405  2.1348 -0.5485  2.2550
   20CHL1  H16B 1429   3.287   4.991   9.425  0.5182  0.5250 -1.3448
   20CHL1   C17 1430   3.179   5.164   9.497  0.7888 -0.2949 -0.0177
   20CHL1   H17 1431   3.109   5.089   9.539  3.2083 -0.9480  3.0464
   20CHL1   C13 1432   3.216   5.255   9.613 -0.2790  0.2770 -0.4254
   20CHL1   C18 1433   3.300   5.371   9.561 -0.2427  0.3769  0.1443
   20CHL1  H18A 1434   3.338   5.443   9.637 -0.4775 -0.3966  1.0173
   20CHL1  H18B 1435   3.390   5.341   9.504  1.0932  2.3824  1.1322
   20CHL1  H18C 1436   3.249   5.446   9.498  1.6656  2.4208  0.9759
   20CHL1   C12 1437   3.092   5.300   9.705 -0.1297  1.2641  0.8170
   20CHL1  H12A 1438   3.031   5.379   9.656 -0.4171  0.0031 -0.9437
   20CHL1  H12B 1439   3.031   5.207   9.707 -0.3545  1.3498 -1.1088
   20CHL1   C11 1440   3.145   5.337   9.840 -0.7312 -0.6589  0.0142
   20CHL1  H11A 1441   3.181   5.442   9.829  0.5222 -1.2552 -1.8001
   20CHL1  H11B 1442   3.063   5.350   9.913 -1.8258 -1.8378 -0.9876
   20CHL1    C9 1443   3.255   5.246   9.912  0.0502 -0.2337  0.0383
   20CHL1    H9 1444   3.201   5.152   9.935  0.4295 -0.5878 -0.5008
   20CHL1   C10 1445   3.304   5.286  10.050 -0.2264  0.5870  0.1966
   20CHL1   C19 1446   3.363   5.431  10.050  0.2227 -0.2252 -0.1791
   20CHL1  H19A 1447   3.410   5.455  10.148  1.4322  1.4549 -1.1452
   20CHL1  H19B 1448   3.432   5.433   9.963 -0.4211 -0.2200 -0.6981
   20CHL1  H19C 1449   3.278   5.502  10.040  1.0843  0.7563 -0.5849
   20CHL1    C1 1450   3.168   5.275  10.136  0.3699  0.0129  0.0125
   20CHL1   H1A 1451   3.092   5.349  10.104  0.7623 -1.2517 -4.0111
   20CHL1   H1B 1452   3.121   5.174  10.131  0.8503 -0.2286  0.3069
   20CHL1    C2 1453   3.187   5.287  10.289  0.1643  0.0415 -0.3082
   20CHL1   H2A 1454   3.085   5.284  10.334 -0.4333  0.2234 -1.6203
   20CHL1   H2B 1455   3.238   5.379  10.326  0.2348 -0.0813 -0.1001
   20CHL1   C20 1456   3.102   5.232   9.380 -0.7922  0.2042  0.2448
   20CHL1   H20 1457   3.057   5.320   9.430 -0.7506 -0.2270  1.0492
   20CHL1   C21 1458   2.993   5.133   9.330  0.2858 -0.5959 -0.0593
   20CHL1  H21A 1459   3.046   5.037   9.309  1.1002 -0.8344  2.8257
   20CHL1  H21B 1460   2.941   5.169   9.239  0.3679  2.3805  1.0247
   20CHL1  H21C 1461   2.910   5.129   9.404 -2.2040 -0.2517 -2.7382
   20CHL1   C22 1462   3.190   5.274   9.259  0.2700  0.0063  0.1732
   20CHL1  H22A 1463   3.265   5.347   9.298 -0.1943 -0.0364  1.1532
   20CHL1  H22B 1464   3.244   5.187   9.216 -2.5075 -2.0746  0.8074
   20CHL1   C23 1465   3.121   5.331   9.139 -0.6515  0.2305 -0.9282
   20CHL1  H23A 1466   3.057   5.252   9.094 -0.8436  0.7669 -1.6074
   20CHL1  H23B 1467   3.047   5.407   9.170 -2.8506 -1.8065 -1.0266
   20CHL1   C24 1468   3.216   5.399   9.036 -0.1474 -0.1972  0.3778
   20CHL1  H24A 1469   3.258   5.495   9.071  0.2413 -0.4140  0.5128
   20CHL1  H24B 1470   3.287   5.312   9.034  0.1816  0.0462  1.2739
   20CHL1   C25 1471   3.156   5.424   8.894  0.5623 -0.2162  0.5424
   20CHL1   H25 1472   3.069   5.492   8.904  0.0063 -0.8082 -0.1905
   20CHL1   C26 1473   3.252   5.488   8.796  0.6417  0.4020 -0.0857
   20CHL1  H26A 1474   3.207   5.487   8.695  0.2086  1.0858  0.0934
   20CHL1  H26B 1475   3.267   5.595   8.826  0.8420  0.0089  1.2676
   20CHL1  H26C 1476   3.354   5.444   8.791  0.7628  0.8610 -2.0363
   20CHL1   C27 1477   3.099   5.289   8.831  0.8023 -0.5414 -0.2623
   20CHL1  H27A 1478   3.061   5.301   8.728  1.0241 -0.0610 -0.2925
   20CHL1  H27B 1479   3.181   5.215   8.823 -0.2358 -2.1536  2.9810
   20CHL1  H27C 1480   3.025   5.232   8.890  2.3754 -1.4791  0.8568
   21CHL1    C3 1481   2.713   1.030  10.331  0.2804 -0.6757 -0.0976
   21CHL1    H3 1482   2.816   1.072  10.336  0.2328 -0.5459 -0.2117
   21CHL1    O3 1483   2.681   0.995  10.467 -0.1866  0.1843  0.2998
   21CHL1   H3' 1484   2.663   1.077  10.514 -0.7095 -1.0327  2.2926
   21CHL1    C4 1485   2.619   1.145  10.274 -0.0028  0.6717 -0.8699
   21CHL1   H4A 1486   2.515   1.108  10.260  0.9632 -1.3189 -3.2826
   21CHL1   H4B 1487   2.604   1.230  10.344  1.6230  0.4002 -0.1814
   21CHL1    C5 1488   2.671   1.204  10.146  0.3221  1.0414  0.7826
   21CHL1    C6 1489   2.704   1.338  10.137  0.2416 -0.2227 -0.0532
   21CHL1    H6 1490   2.677   1.407  10.218 -0.9111  0.4171 -0.9667
   21CHL1    C7 1491   2.774   1.389  10.014  0.0639 -0.3444 -0.1301
   21CHL1   H7A 1492   2.740   1.492   9.992  1.8122  0.5396  1.1826
   21CHL1   H7B 1493   2.884   1.394  10.027  0.1429 -1.0406 -0.5210
   21CHL1    C8 1494   2.751   1.298   9.885  0.3504 -0.1453 -0.0332
   21CHL1    H8 1495   2.650   1.316   9.845  0.4003 -0.4322 -0.2882
   21CHL1   C14 1496   2.858   1.327   9.779 -1.1522 -0.1974 -0.3587
   21CHL1   H14 1497   2.955   1.302   9.827 -2.2220 -1.0311  1.4205
   21CHL1   C15 1498   2.889   1.469   9.730  0.2833 -0.3401  0.2060
   21CHL1  H15A 1499   2.804   1.539   9.710 -0.2810 -1.6842 -2.3593
   21CHL1  H15B 1500   2.957   1.518   9.803  0.3204  0.7127 -0.5177
   21CHL1   C16 1501   2.967   1.459   9.600  0.3849 -0.1580 -0.4470
   21CHL1  H16A 1502   2.915   1.529   9.530 -0.0950 -0.1522 -0.0923
   21CHL1  H16B 1503   3.073   1.490   9.612  0.4679 -0.9331  0.8264
   21CHL1   C17 1504   2.961   1.312   9.555 -0.4235 -0.2003 -0.0515
   21CHL1   H17 1505   3.053   1.264   9.594 -0.1780  1.2068  1.1366
   21CHL1   C13 1506   2.841   1.252   9.647 -0.2269  0.3750  0.4255
   21CHL1   C18 1507   2.704   1.275   9.581 -0.7482  0.5025  0.1306
   21CHL1  H18A 1508   2.683   1.379   9.549 -1.5334  0.2593 -0.1567
   21CHL1  H18B 1509   2.712   1.209   9.492  2.6530  1.2019 -0.1740
   21CHL1  H18C 1510   2.624   1.239   9.648 -1.4924  0.3967 -0.8080
   21CHL1   C12 1511   2.856   1.104   9.687  0.4169  0.2706  0.5368
   21CHL1  H12A 1512   2.830   1.043   9.598 -0.1004 -0.6922  1.3395
   21CHL1  H12B 1513   2.960   1.087   9.721 -0.2173 -1.8690  1.4801
   21CHL1   C11 1514   2.766   1.053   9.798  0.3261  0.6103 -0.1139
   21CHL1  H11A 1515   2.663   1.055   9.757 -0.3220  0.3172  1.4752
   21CHL1  H11B 1516   2.793   0.948   9.821 -2.6063 -0.6964 -2.2957
   21CHL1    C9 1517   2.778   1.147   9.921 -0.0655  0.1792 -0.0223
   21CHL1    H9 1518   2.880   1.154   9.963  0.4670  0.8223 -1.3816
   21CHL1   C10 1519   2.695   1.091  10.040  0.1086 -0.7004  0.4776
   21CHL1   C19 1520   2.551   1.067   9.990  0.0512  0.0468  0.8450
   21CHL1  H19A 1521   2.488   1.022  10.070 -1.1668  2.1698  1.1248
   21CHL1  H19B 1522   2.500   1.161   9.957  1.0740 -0.0073 -0.9240
   21CHL1  H19C 1523   2.534   0.984   9.918 -1.3561  3.0885 -2.4958
   21CHL1    C1 1524   2.753   0.965  10.098 -0.0520 -0.1850 -0.8889
   21CHL1   H1A 1525   2.723   0.893  10.019  1.9044 -1.3078 -0.6554
   21CHL1   H1B 1526   2.864   0.972  10.100 -0.2100  2.7950  0.8676
   21CHL1    C2 1527   2.705   0.908  10.235  0.3292  0.7108 -0.5466
   21CHL1   H2A 1528   2.766   0.826  10.277  1.0004  1.1987 -0.5603
   21CHL1   H2B 1529   2.600   0.870  10.232 -0.1274  1.8892 -0.0325
   21CHL1   C20 1530   2.958   1.286   9.403  0.1136  0.3760  0.1749
   21CHL1   H20 1531   2.867   1.340   9.368 -1.1828 -0.6975  1.8081
   21CHL1   C21 1532   2.963   1.135   9.362 -0.5597 -0.1919  0.0115
   21CHL1  H21A 1533   3.056   1.089   9.402 -0.2159  0.4666 -0.0134
   21CHL1  H21B 1534   2.971   1.124   9.252  0.2516 -1.5657  0.1963
   21CHL1  H21C 1535   2.868   1.088   9.393 -0.5208  0.1661  0.6929
   21CHL1   C22 1536   3.074   1.369   9.337 -0.3862  0.4765  0.9837
   21CHL1  H22A 1537   3.146   1.388   9.418  1.5797 -0.7701 -0.4195
   21CHL1  H22B 1538   3.122   1.306   9.259 -1.5360 -0.7535  1.2382
   21CHL1   C23 1539   3.035   1.502   9.264  0.0645  0.1460  0.6743
   21CHL1  H23A 1540   2.947   1.533   9.324 -0.5055  0.9789 -0.5807
   21CHL1  H23B 1541   3.108   1.586   9.274 -1.1219  1.5659 -2.1470
   21CHL1   C24 1542   2.994   1.484   9.119  0.3845  0.4227  0.4519
   21CHL1  H24A 1543   3.080   1.433   9.070  0.0391 -0.7065  1.0073
   21CHL1  H24B 1544   2.906   1.417   9.119  0.0089  0.9176  0.0597
   21CHL1   C25 1545   2.970   1.612   9.051 -0.8132  0.8046  0.1216
   21CHL1   H25 1546   2.924   1.681   9.125  0.6133  1.0392  0.8071
   21CHL1   C26 1547   3.095   1.685   8.999 -0.4364 -0.0821  0.1839
   21CHL1  H26A 1548   3.156   1.719   9.086  0.2983  2.6486 -1.3574
   21CHL1  H26B 1549   3.152   1.627   8.924 -1.8563 -1.0352 -0.1677
   21CHL1  H26C 1550   3.061   1.779   8.951 -2.6014  0.1589  2.1040
   21CHL1   C27 1551   2.874   1.578   8.929  0.5292  0.4321 -0.2182
   21CHL1  H27A 1552   2.790   1.530   8.984  0.4854 -0.2925 -0.9031
   21CHL1  H27B 1553   2.850   1.675   8.881  0.6751  1.0662  0.9832
   21CHL1  H27C 1554   2.912   1.501   8.858  0.0649  1.6729 -1.8395
   22CHL1    C3 1555   2.366   3.086   9.860  0.5185 -0.6141 -0.7771
   22CHL1    H3 1556   2.260   3.117   9.850 -0.3015 -2.4296  1.6928
   22CHL1    O3 1557   2.407   3.119   9.992  0.3948 -0.1247 -0.5610
   22CHL1   H3' 1558   2.502   3.108   9.988  0.4599 -1.2600  2.5291
   22CHL1    C4 1559   2.359   2.934   9.847 -0.8531  0.2112 -0.3041
   22CHL1   H4A 1560   2.461   2.896   9.872 -2.0450 -0.2536  4.2564
   22CHL1   H4B 1561   2.287   2.881   9.913 -0.4927 -0.6284 -0.5810
   22CHL1    C5 1562   2.329   2.888   9.704  0.0821  0.1521 -0.9393
   22CHL1    C6 1563   2.236   2.792   9.677  0.8343 -0.6534  0.1405
   22CHL1    H6 1564   2.174   2.758   9.761  0.7351  0.5417  0.5563
   22CHL1    C7 1565   2.209   2.753   9.536  0.4590 -0.0894 -0.5160
   22CHL1   H7A 1566   2.203   2.642   9.536  1.3169 -0.1972  2.8565
   22CHL1   H7B 1567   2.111   2.796   9.506 -0.4101 -1.8366 -0.2388
   22CHL1    C8 1568   2.314   2.803   9.431 -0.2375  0.8686  0.3437
   22CHL1    H8 1569   2.410   2.748   9.437  0.7699  2.5683  0.1206
   22CHL1   C14 1570   2.253   2.796   9.290  0.0847 -1.3853  0.2153
   22CHL1   H14 1571   2.162   2.859   9.291  1.6259  0.8819  2.2047
   22CHL1   C15 1572   2.191   2.663   9.243  0.1263  0.3531  0.3622
   22CHL1  H15A 1573   2.264   2.582   9.266 -0.0650  0.3338  0.9209
   22CHL1  H15B 1574   2.103   2.645   9.309 -0.8926 -1.2830 -1.3878
   22CHL1   C16 1575   2.185   2.680   9.092 -0.2220 -0.8689  0.6990
   22CHL1  H16A 1576   2.229   2.590   9.045  0.7457 -0.5305  0.9529
   22CHL1  H16B 1577   2.084   2.695   9.048  0.7053 -0.9509 -1.5569
   22CHL1   C17 1578   2.265   2.803   9.047  0.7817  0.3787 -0.1744
   22CHL1   H17 1579   2.199   2.892   9.039  0.1952 -0.0615 -0.1855
   22CHL1   C13 1580   2.350   2.837   9.172  0.0162 -1.1009  0.3166
   22CHL1   C18 1581   2.475   2.751   9.170  0.0849  0.0889 -0.4645
   22CHL1  H18A 1582   2.520   2.760   9.272 -0.3275 -1.0758 -0.1767
   22CHL1  H18B 1583   2.452   2.645   9.149 -1.7578  0.5109 -0.7231
   22CHL1  H18C 1584   2.553   2.790   9.101  0.1376  0.5992 -0.1273
   22CHL1   C12 1585   2.383   2.990   9.203  0.9146  0.0771  0.0703
   22CHL1  H12A 1586   2.461   3.027   9.133  0.7701 -1.0678 -0.7091
   22CHL1  H12B 1587   2.291   3.049   9.184  0.5158 -0.3094  0.7930
   22CHL1   C11 1588   2.445   3.004   9.337  0.7304  0.6905  0.6988
   22CHL1  H11A 1589   2.541   2.948   9.337 -0.7907 -2.0001  0.5918
   22CHL1  H11B 1590   2.484   3.104   9.369  2.2736  0.8212 -1.4859
   22CHL1    C9 1591   2.352   2.946   9.456 -0.6471 -0.3336 -0.3316
   22CHL1    H9 1592   2.266   3.016   9.458 -0.5535 -0.2356  2.4399
   22CHL1   C10 1593   2.412   2.963   9.602 -0.2297  0.1212  0.5174
   22CHL1   C19 1594   2.551   2.901   9.605 -0.0955  0.1887 -0.3270
   22CHL1  H19A 1595   2.618   2.932   9.522 -0.8188 -0.0180 -0.9991
   22CHL1  H19B 1596   2.593   2.920   9.706  0.3006 -0.6564 -0.3305
   22CHL1  H19C 1597   2.544   2.792   9.585  1.6116  0.3268 -1.7962
   22CHL1    C1 1598   2.402   3.122   9.627  0.3004  0.5924 -0.1244
   22CHL1   H1A 1599   2.464   3.181   9.556  2.2130 -0.4021  0.6680
   22CHL1   H1B 1600   2.296   3.155   9.619  0.3531  1.4935  2.3281
   22CHL1    C2 1601   2.453   3.162   9.763 -0.2266  0.0433  0.0985
   22CHL1   H2A 1602   2.428   3.270   9.775 -0.1507  0.2773 -1.6236
   22CHL1   H2B 1603   2.562   3.148   9.782 -0.2826 -1.0770 -0.4078
   22CHL1   C20 1604   2.335   2.783   8.911  0.0006  0.5337  0.4274
   22CHL1   H20 1605   2.405   2.697   8.915  0.1340  0.7022  2.1831
   22CHL1   C21 1606   2.422   2.904   8.877  0.1766  0.0788  0.1727
   22CHL1  H21A 1607   2.479   2.895   8.782 -0.2858  0.6380 -0.1586
   22CHL1  H21B 1608   2.497   2.915   8.958 -0.6707 -2.2649  1.3146
   22CHL1  H21C 1609   2.360   2.995   8.867 -0.1392  0.0831  2.1175
   22CHL1   C22 1610   2.233   2.751   8.794  0.3692  0.0825 -0.0710
   22CHL1  H22A 1611   2.155   2.678   8.823  0.0861  0.7459  0.8577
   22CHL1  H22B 1612   2.180   2.845   8.767  0.4028 -0.2840 -1.4717
   22CHL1   C23 1613   2.302   2.677   8.679 -0.2113 -0.2040  0.2497
   22CHL1  H23A 1614   2.394   2.731   8.647 -0.7167 -0.3821 -1.5445
   22CHL1  H23B 1615   2.340   2.577   8.711  1.5977 -0.2827 -1.9803
   22CHL1   C24 1616   2.210   2.652   8.558  0.6174 -0.0560 -0.4938
   22CHL1  H24A 1617   2.148   2.744   8.553 -0.7256 -0.9118  0.3160
   22CHL1  H24B 1618   2.257   2.630   8.459 -2.1300 -0.7290 -1.6816
   22CHL1   C25 1619   2.122   2.519   8.567  0.3649  0.6438  0.1980
   22CHL1   H25 1620   2.113   2.506   8.677  0.1940 -1.2083 -0.0164
   22CHL1   C26 1621   1.986   2.546   8.492  0.6864 -0.0334 -0.9459
   22CHL1  H26A 1622   2.004   2.590   8.391 -0.0731 -1.4985 -1.7478
   22CHL1  H26B 1623   1.922   2.457   8.471  0.4286 -0.0759 -0.0050
   22CHL1  H26C 1624   1.930   2.617   8.556  1.0836 -0.8003  0.2533
   22CHL1   C27 1625   2.185   2.392   8.512 -0.3590 -0.3721 -0.1595
   22CHL1  H27A 1626   2.287   2.374   8.551 -0.8929  0.6658  1.7489
   22CHL1  H27B 1627   2.119   2.310   8.548 -1.4213  0.6016  0.1475
   22CHL1  H27C 1628   2.177   2.383   8.401 -0.8371 -1.6886 -0.0291
   23CHL1    C3 1629   5.759   3.515  10.074  0.6356  1.3484  0.4188
   23CHL1    H3 1630   5.811   3.614  10.073  1.4164  0.9341 -1.0483
   23CHL1    O3 1631   5.707   3.480  10.197  0.6348  0.2010 -0.1847
   23CHL1   H3' 1632   5.780   3.467  10.258  3.3277 -0.6710 -3.4502
   23CHL1    C4 1633   5.643   3.540   9.970  0.5680 -0.7393  0.5252
   23CHL1   H4A 1634   5.562   3.465   9.976 -0.0009 -0.2061 -0.2095
   23CHL1   H4B 1635   5.599   3.630  10.019 -2.6837 -0.9664 -1.8091
   23CHL1    C5 1636   5.693   3.537   9.826  0.3900  0.4775 -0.3098
   23CHL1    C6 1637   5.675   3.642   9.746  0.1655 -0.1946  1.1661
   23CHL1    H6 1638   5.620   3.727   9.789 -0.0220  0.3630 -0.1452
   23CHL1    C7 1639   5.714   3.647   9.600  1.0246  0.0689  0.8248
   23CHL1   H7A 1640   5.638   3.689   9.532  2.5657  3.0088  0.8467
   23CHL1   H7B 1641   5.803   3.706   9.568  0.8286 -0.3400 -0.5148
   23CHL1    C8 1642   5.746   3.504   9.545  0.0951  0.4976 -0.1970
   23CHL1    H8 1643   5.655   3.442   9.528 -2.1363  3.5062  0.4376
   23CHL1   C14 1644   5.809   3.514   9.403  0.8477 -0.5041  0.2360
   23CHL1   H14 1645   5.909   3.561   9.416  1.4757 -2.1353  1.3630
   23CHL1   C15 1646   5.737   3.587   9.293 -0.5208 -0.0566 -0.4682
   23CHL1  H15A 1647   5.629   3.560   9.291 -0.2833 -1.1989  1.5185
   23CHL1  H15B 1648   5.735   3.697   9.303  0.3335  0.0576 -1.4941
   23CHL1   C16 1649   5.808   3.538   9.169 -0.0002  0.0695 -0.1495
   23CHL1  H16A 1650   5.717   3.513   9.111  1.5501 -0.9624 -2.1939
   23CHL1  H16B 1651   5.861   3.614   9.109  0.8991 -0.2567  0.2200
   23CHL1   C17 1652   5.891   3.415   9.211  0.1286  0.4265  0.9253
   23CHL1   H17 1653   5.991   3.457   9.233 -0.1218  0.0946  2.7646
   23CHL1   C13 1654   5.839   3.373   9.349  0.3882 -0.7085  0.2022
   23CHL1   C18 1655   5.713   3.295   9.325 -0.2647  0.3394 -0.4861
   23CHL1  H18A 1656   5.753   3.195   9.300  1.0812  0.4034  1.3237
   23CHL1  H18B 1657   5.650   3.282   9.416  2.3105  0.3430  1.3336
   23CHL1  H18C 1658   5.655   3.333   9.238  0.3408 -0.5099 -1.2692
   23CHL1   C12 1659   5.938   3.304   9.438  0.0151  0.3491 -0.1914
   23CHL1  H12A 1660   5.953   3.202   9.398  2.6331  0.4978  0.3400
   23CHL1  H12B 1661   6.028   3.369   9.452 -1.0647  1.9616 -0.5404
   23CHL1   C11 1662   5.882   3.295   9.584 -0.6191  0.3294 -0.2183
   23CHL1  H11A 1663   5.806   3.215   9.571 -0.9608  0.6621 -0.2971
   23CHL1  H11B 1664   5.958   3.242   9.646  0.1062 -0.5635 -1.8649
   23CHL1    C9 1665   5.837   3.425   9.641 -0.0480  0.0765  0.7963
   23CHL1    H9 1666   5.933   3.477   9.661 -0.8127  0.7004  3.1046
   23CHL1   C10 1667   5.775   3.413   9.782  0.7957 -0.2186  0.3888
   23CHL1   C19 1668   5.678   3.299   9.787  0.8784 -0.2989 -0.5315
   23CHL1  H19A 1669   5.637   3.283   9.889 -3.3689  1.4827 -1.8506
   23CHL1  H19B 1670   5.591   3.325   9.723 -0.8112 -1.3078  1.2913
   23CHL1  H19C 1671   5.725   3.201   9.762  1.0111 -0.8713  1.8519
   23CHL1    C1 1672   5.889   3.401   9.884 -0.4537 -0.3517  0.0424
   23CHL1   H1A 1673   5.937   3.301   9.879 -1.8727 -1.0264 -0.4106
   23CHL1   H1B 1674   5.963   3.479   9.860 -2.5852  1.3298 -1.2964
   23CHL1    C2 1675   5.841   3.396  10.032  0.1557 -0.1785 -0.7392
   23CHL1   H2A 1676   5.937   3.389  10.088 -0.0425  0.1985 -0.3462
   23CHL1   H2B 1677   5.788   3.300  10.050  0.1490  0.0772  0.6556
   23CHL1   C20 1678   5.905   3.313   9.101  0.3865  1.1347  0.2900
   23CHL1   H20 1679   5.818   3.244   9.097  0.4837  0.8575  2.4003
   23CHL1   C21 1680   6.027   3.226   9.132 -0.4865 -0.0638  0.3931
   23CHL1  H21A 1681   6.071   3.179   9.042 -3.3496  1.3456 -1.8024
   23CHL1  H21B 1682   6.011   3.141   9.202 -2.1379  0.6611  0.9419
   23CHL1  H21C 1683   6.110   3.291   9.166 -1.4115  1.9618 -1.1313
   23CHL1   C22 1684   5.926   3.366   8.954 -0.3398 -0.3074  0.7966
   23CHL1  H22A 1685   5.864   3.457   8.936 -1.8470 -1.4225  0.2599
   23CHL1  H22B 1686   6.032   3.397   8.948 -0.0646 -1.4450 -0.5648
   23CHL1   C23 1687   5.902   3.271   8.838 -0.2426 -0.2865 -0.0283
   23CHL1  H23A 1688   5.975   3.187   8.840 -2.0507 -1.9438 -1.5337
   23CHL1  H23B 1689   5.806   3.217   8.858  0.0292 -0.9399 -0.5028
   23CHL1   C24 1690   5.935   3.358   8.705  0.7606 -0.2686 -0.7361
   23CHL1  H24A 1691   5.861   3.440   8.703  1.4630  0.3693 -0.6924
   23CHL1  H24B 1692   6.037   3.400   8.714  0.5520  0.0792  0.1210
   23CHL1   C25 1693   5.916   3.274   8.589  0.4910  0.5514  0.2780
   23CHL1   H25 1694   5.817   3.225   8.587  1.7514 -2.2586  2.9891
   23CHL1   C26 1695   5.914   3.354   8.453 -0.0268 -1.5405 -0.3020
   23CHL1  H26A 1696   5.884   3.291   8.367  1.8284 -1.9468 -0.6697
   23CHL1  H26B 1697   5.845   3.437   8.480  2.1698 -0.2515  1.5479
   23CHL1  H26C 1698   6.011   3.400   8.424  0.1953 -0.7256  1.6773
   23CHL1   C27 1699   6.030   3.171   8.578  0.1875  0.0837  0.2006
   23CHL1  H27A 1700   6.129   3.221   8.571 -0.5082  1.3589 -0.8204
   23CHL1  H27B 1701   6.039   3.108   8.669  2.0730  0.9681  0.6475
   23CHL1  H27C 1702   6.012   3.113   8.485 -0.3424 -1.1668  1.0706
   24CHL1    C3 1703   0.325   5.097   9.944  0.9384 -0.5368  0.1732
   24CHL1    H3 1704   0.430   5.132   9.958  0.9132 -0.9867  1.5755
   24CHL1    O3 1705   0.277   5.065  10.071 -0.4065  0.3432  0.1398
   24CHL1   H3' 1706   0.223   5.139  10.101 -0.4056 -0.1731  1.4648
   24CHL1    C4 1707   0.248   5.214   9.895  0.7883  0.2422  0.2388
   24CHL1   H4A 1708   0.139   5.195   9.908  0.6907  0.0850 -0.7749
   24CHL1   H4B 1709   0.277   5.297   9.962  0.9447  1.5688 -1.4477
   24CHL1    C5 1710   0.272   5.246   9.751 -0.5315 -0.1348  0.2869
   24CHL1    C6 1711   0.286   5.380   9.726 -0.9080 -0.2529  0.1357
   24CHL1    H6 1712   0.288   5.446   9.814  0.5919 -1.2151  0.8344
   24CHL1    C7 1713   0.295   5.443   9.591 -0.0699  0.2935  0.5108
   24CHL1   H7A 1714   0.221   5.526   9.584  2.0216  2.1539  0.2064
   24CHL1   H7B 1715   0.401   5.474   9.588  1.1630 -3.4190  2.3457
   24CHL1    C8 1716   0.269   5.339   9.482 -0.4615 -0.6833 -0.4607
   24CHL1    H8 1717   0.158   5.332   9.477 -0.7861  2.5647  1.1623
   24CHL1   C14 1718   0.327   5.392   9.351  0.9220 -0.3875 -0.1831
   24CHL1   H14 1719   0.437   5.396   9.360  0.9579 -0.0804 -0.7762
   24CHL1   C15 1720   0.287   5.540   9.310  0.4185 -0.3539 -0.4003
   24CHL1  H15A 1721   0.177   5.557   9.312  0.3806 -0.6520  0.5632
   24CHL1  H15B 1722   0.347   5.608   9.373 -0.5391  0.0445  0.0894
   24CHL1   C16 1723   0.315   5.536   9.161  0.2702 -0.0546  0.5169
   24CHL1  H16A 1724   0.223   5.560   9.102  0.3131 -2.3603 -0.5277
   24CHL1  H16B 1725   0.389   5.603   9.113 -0.0751 -0.3258 -0.4099
   24CHL1   C17 1726   0.350   5.380   9.123  0.5001  0.2531  0.0803
   24CHL1   H17 1727   0.460   5.392   9.130  0.2029  2.0805  2.2491
   24CHL1   C13 1728   0.298   5.291   9.239  0.5935  0.3342  0.0204
   24CHL1   C18 1729   0.146   5.271   9.218 -0.3276  0.4885  0.0933
   24CHL1  H18A 1730   0.125   5.212   9.125  0.5792 -0.6454  0.5957
   24CHL1  H18B 1731   0.104   5.210   9.301 -0.1921 -0.8622 -0.7941
   24CHL1  H18C 1732   0.084   5.360   9.196 -1.3476  0.0507  1.1676
   24CHL1   C12 1733   0.362   5.146   9.265  0.8008 -0.4606  0.5942
   24CHL1  H12A 1734   0.325   5.076   9.186  1.0489  0.1216 -0.0445
   24CHL1  H12B 1735   0.472   5.160   9.262  0.9986 -0.9586  3.8145
   24CHL1   C11 1736   0.327   5.098   9.406 -0.3140 -1.0628 -0.1933
   24CHL1  H11A 1737   0.226   5.053   9.409 -0.9442  0.3101 -0.8402
   24CHL1  H11B 1738   0.403   5.022   9.436  3.2036  2.0139 -0.8487
   24CHL1    C9 1739   0.328   5.201   9.520 -1.2342  0.2042  0.2662
   24CHL1    H9 1740   0.437   5.217   9.535 -1.2375 -0.3841  1.0143
   24CHL1   C10 1741   0.278   5.140   9.656 -0.0835  0.1471 -0.3959
   24CHL1   C19 1742   0.131   5.082   9.637 -1.1198 -0.5122  0.3961
   24CHL1  H19A 1743   0.135   4.988   9.577 -1.6379 -0.2234 -0.0962
   24CHL1  H19B 1744   0.080   5.055   9.732 -0.8842  1.7278  1.1803
   24CHL1  H19C 1745   0.073   5.158   9.579 -0.4120 -0.1128  0.2037
   24CHL1    C1 1746   0.365   5.029   9.707  0.5160 -0.2114 -0.6923
   24CHL1   H1A 1747   0.364   4.938   9.643  2.7261 -1.7659  1.4015
   24CHL1   H1B 1748   0.465   5.073   9.725 -0.6780  2.8233 -1.2605
   24CHL1    C2 1749   0.318   4.981   9.840 -0.3613 -0.5763  0.1129
   24CHL1   H2A 1750   0.389   4.906   9.881 -0.3413 -0.5592  0.1102
   24CHL1   H2B 1751   0.224   4.921   9.845 -1.6907  1.2583 -2.1864
   24CHL1   C20 1752   0.322   5.333   8.976  0.0193  0.9684 -0.4426
   24CHL1   H20 1753   0.212   5.320   8.974  0.0255  0.5479  1.1906
   24CHL1   C21 1754   0.359   5.192   8.942 -0.2089 -0.1225  0.0329
   24CHL1  H21A 1755   0.320   5.173   8.840  1.3864 -0.3124 -0.5523
   24CHL1  H21B 1756   0.307   5.118   9.007  0.4063  0.3753  1.1009
   24CHL1  H21C 1757   0.469   5.179   8.950  0.3439  2.2773 -3.0582
   24CHL1   C22 1758   0.376   5.435   8.869 -0.3897  0.2945 -0.5385
   24CHL1  H22A 1759   0.330   5.534   8.887  2.1711  1.1828  1.2803
   24CHL1  H22B 1760   0.485   5.447   8.887 -1.0258  1.5975  2.9407
   24CHL1   C23 1761   0.353   5.401   8.722 -0.4058 -0.2838  0.4345
   24CHL1  H23A 1762   0.379   5.496   8.670  2.2111 -0.2527  1.7363
   24CHL1  H23B 1763   0.418   5.319   8.686  0.4632  0.3713  0.4831
   24CHL1   C24 1764   0.208   5.374   8.688  0.3941 -0.6765 -0.6809
   24CHL1  H24A 1765   0.156   5.288   8.737  1.5818 -0.2410  1.4324
   24CHL1  H24B 1766   0.167   5.472   8.720  0.5758 -1.2328  1.3519
   24CHL1   C25 1767   0.199   5.346   8.533 -0.8144  0.3931 -0.3704
   24CHL1   H25 1768   0.217   5.238   8.517 -4.6534 -0.4419  0.5916
   24CHL1   C26 1769   0.051   5.378   8.498  0.1454 -0.4392 -0.7420
   24CHL1  H26A 1770   0.031   5.384   8.389 -0.2079  1.5207 -0.5754
   24CHL1  H26B 1771  -0.019   5.307   8.548 -0.7095  0.9067 -0.0149
   24CHL1  H26C 1772   0.031   5.477   8.544  0.4068 -0.7666  0.0897
   24CHL1   C27 1773   0.301   5.431   8.445 -0.4133  0.0372  0.3967
   24CHL1  H27A 1774   0.276   5.429   8.337 -1.5529 -0.1881  0.6525
   24CHL1  H27B 1775   0.282   5.537   8.471  1.3513  0.4040  0.2367
   24CHL1  H27C 1776   0.409   5.408   8.455 -0.5172 -0.5961  0.0940
   25CHL1    C3 1777   1.782   6.153  10.290  0.4041  0.1564  0.3153
   25CHL1    H3 1778   1.676   6.188  10.290  0.8766  1.6656  1.1487
   25CHL1    O3 1779   1.819   6.120  10.425 -0.2657  0.4562  0.2436
   25CHL1   H3' 1780   1.754   6.056  10.456 -0.3003  0.1573 -0.4305
   25CHL1    C4 1781   1.801   6.027  10.207 -0.1452 -0.5677 -0.1668
   25CHL1   H4A 1782   1.912   6.016  10.215  0.1630  2.9179  1.4031
   25CHL1   H4B 1783   1.753   5.938  10.253 -1.1022  1.0843  2.1684
   25CHL1    C5 1784   1.767   6.047  10.061  0.1070 -0.3044 -0.8687
   25CHL1    C6 1785   1.673   5.976  10.007 -0.2804  0.0855  1.0819
   25CHL1    H6 1786   1.618   5.901  10.067  0.7086 -1.6384 -0.1287
   25CHL1    C7 1787   1.638   5.977   9.864  0.6922 -0.3362 -0.1061
   25CHL1   H7A 1788   1.640   5.874   9.823 -1.5995  0.5195 -2.5119
   25CHL1   H7B 1789   1.536   6.022   9.859  0.2275 -1.1849  1.5401
   25CHL1    C8 1790   1.730   6.065   9.774 -0.3381  0.2849  0.6177
   25CHL1    H8 1791   1.808   5.988   9.753 -1.5560 -0.3785 -1.7262
   25CHL1   C14 1792   1.659   6.105   9.649  0.0883 -0.8383 -0.4675
   25CHL1   H14 1793   1.577   6.173   9.679 -0.0390 -0.8550 -0.7704
   25CHL1   C15 1794   1.590   5.993   9.568 -1.1527  0.1218  0.3587
   25CHL1  H15A 1795   1.653   5.901   9.570 -0.3738  0.5990 -1.3016
   25CHL1  H15B 1796   1.483   5.974   9.591 -1.8865  1.9642 -1.4128
   25CHL1   C16 1797   1.591   6.057   9.426 -0.1298 -0.8103 -0.0764
   25CHL1  H16A 1798   1.647   5.986   9.362 -1.3049 -1.4710 -0.4006
   25CHL1  H16B 1799   1.490   6.073   9.383 -0.0498 -0.9021 -0.2992
   25CHL1   C17 1800   1.661   6.195   9.430 -0.2593 -0.0300 -0.0050
   25CHL1   H17 1801   1.577   6.266   9.449 -2.5611 -3.0167  1.4326
   25CHL1   C13 1802   1.752   6.180   9.559  0.5011 -0.0376  0.5205
   25CHL1   C18 1803   1.883   6.096   9.516 -0.6391 -0.5061 -0.4989
   25CHL1  H18A 1804   1.941   6.152   9.439  1.1139 -1.4294  0.1357
   25CHL1  H18B 1805   1.943   6.080   9.608 -2.6612  0.5735  1.0566
   25CHL1  H18C 1806   1.856   6.004   9.461 -2.3878  1.0804 -2.3944
   25CHL1   C12 1807   1.782   6.321   9.634  0.4242 -0.1358  0.4400
   25CHL1  H12A 1808   1.845   6.396   9.581  1.8460 -0.9141  0.9845
   25CHL1  H12B 1809   1.682   6.359   9.664  0.6691  0.3682  0.6167
   25CHL1   C11 1810   1.859   6.290   9.761  0.5073  0.7441 -0.2751
   25CHL1  H11A 1811   1.955   6.249   9.725  1.0210  2.6538 -1.1207
   25CHL1  H11B 1812   1.875   6.384   9.818  1.6006 -0.5420  1.6128
   25CHL1    C9 1813   1.783   6.185   9.853  0.5504 -0.4433  1.2858
   25CHL1    H9 1814   1.689   6.242   9.867  0.1368 -0.9205  0.5012
   25CHL1   C10 1815   1.851   6.159   9.992  0.6247  0.6349 -0.3637
   25CHL1   C19 1816   1.997   6.123   9.975  0.0850  0.1392  0.4595
   25CHL1  H19A 1817   2.046   6.100  10.072  0.9494 -2.5528 -0.5828
   25CHL1  H19B 1818   2.013   6.034   9.911  2.0214 -0.6257  1.9559
   25CHL1  H19C 1819   2.054   6.209   9.932 -2.1111  0.4091 -2.0634
   25CHL1    C1 1820   1.843   6.287  10.091 -0.7185  0.3017  0.6940
   25CHL1   H1A 1821   1.886   6.375  10.040 -2.2835  2.7698  3.4663
   25CHL1   H1B 1822   1.737   6.320  10.091 -1.0411 -0.6904  0.2540
   25CHL1    C2 1823   1.868   6.266  10.233 -0.2523  0.0591  0.1474
   25CHL1   H2A 1824   1.838   6.365  10.273 -1.0204  0.4553 -1.3834
   25CHL1   H2B 1825   1.977   6.256  10.247 -0.5052 -4.2718 -0.1774
   25CHL1   C20 1826   1.709   6.231   9.287 -0.5835  0.0157  0.3223
   25CHL1   H20 1827   1.792   6.172   9.242 -0.9213 -0.3234  0.1361
   25CHL1   C21 1828   1.774   6.375   9.300 -0.4926 -0.3136  0.2824
   25CHL1  H21A 1829   1.849   6.377   9.382 -0.8022 -0.9380  0.5797
   25CHL1  H21B 1830   1.700   6.454   9.324  0.9539  1.4726 -0.9221
   25CHL1  H21C 1831   1.830   6.394   9.205  2.4408 -1.9010  1.6598
   25CHL1   C22 1832   1.593   6.214   9.188 -0.0992  0.2559  0.0422
   25CHL1  H22A 1833   1.573   6.106   9.176  2.2684 -0.1180 -0.7882
   25CHL1  H22B 1834   1.507   6.267   9.234 -0.1706  0.3506 -0.1999
   25CHL1   C23 1835   1.620   6.268   9.052  0.4923  0.8626 -0.1808
   25CHL1  H23A 1836   1.629   6.378   9.070  0.9014  0.5070  1.9103
   25CHL1  H23B 1837   1.721   6.245   9.010  0.1678 -1.8402  0.4355
   25CHL1   C24 1838   1.521   6.232   8.946 -0.6386  0.3067  0.9645
   25CHL1  H24A 1839   1.488   6.127   8.956 -2.6013  0.6963 -0.8694
   25CHL1  H24B 1840   1.430   6.295   8.961  0.7541  2.3822  0.9891
   25CHL1   C25 1841   1.575   6.272   8.813  0.1210 -0.0545  0.2268
   25CHL1   H25 1842   1.628   6.367   8.832 -1.4191  0.9026 -0.2063
   25CHL1   C26 1843   1.662   6.161   8.750  0.0016  0.4640 -0.4399
   25CHL1  H26A 1844   1.700   6.200   8.653 -0.6597 -2.1167 -1.7851
   25CHL1  H26B 1845   1.751   6.127   8.809 -0.8630 -4.2566 -1.6580
   25CHL1  H26C 1846   1.598   6.072   8.731  0.9952 -0.5693  0.9003
   25CHL1   C27 1847   1.464   6.299   8.711  0.1242  0.0635 -0.4014
   25CHL1  H27A 1848   1.391   6.374   8.750 -0.6079 -0.9483  0.1724
   25CHL1  H27B 1849   1.512   6.336   8.618  0.4566  0.3513 -0.1226
   25CHL1  H27C 1850   1.407   6.205   8.697  1.2253 -0.7294  0.3279
   26CHL1    C3 1851   3.300   1.782  10.249  0.1925  0.2823 -0.4650
   26CHL1    H3 1852   3.243   1.877  10.253 -3.0238 -1.6233  0.8225
   26CHL1    O3 1853   3.304   1.729  10.383  0.2024  0.3194 -0.4524
   26CHL1   H3' 1854   3.297   1.634  10.375  0.3412  0.2622  0.0963
   26CHL1    C4 1855   3.209   1.683  10.166 -0.4731 -0.0328  0.8479
   26CHL1   H4A 1856   3.247   1.579  10.177  0.0495  0.1850  1.1135
   26CHL1   H4B 1857   3.107   1.681  10.209 -0.1820 -0.9749  1.5184
   26CHL1    C5 1858   3.206   1.727  10.015 -0.5844 -0.2035  0.4255
   26CHL1    C6 1859   3.099   1.755   9.940 -0.6679 -0.1842 -0.2777
   26CHL1    H6 1860   3.000   1.743   9.986 -0.4087 -0.0056  0.3340
   26CHL1    C7 1861   3.076   1.795   9.797 -0.2193  0.1051  0.0752
   26CHL1   H7A 1862   2.998   1.743   9.738  2.7782 -1.7431 -2.4600
   26CHL1   H7B 1863   3.057   1.904   9.804  0.1963  0.1819  0.0127
   26CHL1    C8 1864   3.212   1.774   9.730 -0.7129  0.3412  0.0246
   26CHL1    H8 1865   3.224   1.664   9.716  0.1625  0.8201 -3.4877
   26CHL1   C14 1866   3.217   1.839   9.592 -0.4145  0.2038  0.1116
   26CHL1   H14 1867   3.208   1.947   9.616 -1.6745  0.5147 -1.6680
   26CHL1   C15 1868   3.107   1.805   9.494 -0.2170 -0.0336 -0.3921
   26CHL1  H15A 1869   3.085   1.696   9.498  1.2091 -0.3387 -0.6400
   26CHL1  H15B 1870   3.009   1.856   9.511 -0.7114 -1.0149 -0.2081
   26CHL1   C16 1871   3.160   1.855   9.357 -0.4371 -0.0799 -0.1695
   26CHL1  H16A 1872   3.148   1.775   9.281  1.6670 -0.6810  0.0968
   26CHL1  H16B 1873   3.097   1.937   9.316 -0.4767 -0.4894 -0.9310
   26CHL1   C17 1874   3.307   1.897   9.378 -0.0200 -0.0304  0.1181
   26CHL1   H17 1875   3.301   1.999   9.422 -1.2261 -0.2936  0.5912
   26CHL1   C13 1876   3.346   1.823   9.512 -0.0835  0.1096  0.4640
   26CHL1   C18 1877   3.387   1.674   9.476 -0.1610 -0.3831  0.0042
   26CHL1  H18A 1878   3.483   1.673   9.421  0.1703  0.4433  0.5580
   26CHL1  H18B 1879   3.397   1.616   9.570 -1.5275  0.8213  0.9202
   26CHL1  H18C 1880   3.303   1.638   9.412 -1.6977 -1.6580  2.6644
   26CHL1   C12 1881   3.449   1.901   9.598  0.2275  0.7763 -0.0418
   26CHL1  H12A 1882   3.552   1.898   9.556 -0.0387  2.9630 -0.9086
   26CHL1  H12B 1883   3.418   2.007   9.607 -2.2546  0.0479  0.3930
   26CHL1   C11 1884   3.465   1.838   9.735 -0.1724  0.0211  0.9520
   26CHL1  H11A 1885   3.502   1.735   9.717 -0.5513  0.1269 -0.4713
   26CHL1  H11B 1886   3.534   1.890   9.804 -0.2261 -0.9116  1.7296
   26CHL1    C9 1887   3.329   1.832   9.809  0.7887 -0.7008 -0.3276
   26CHL1    H9 1888   3.311   1.939   9.835 -0.8762 -0.4836 -2.2741
   26CHL1   C10 1889   3.342   1.766   9.947  0.0280 -0.0836  0.7634
   26CHL1   C19 1890   3.419   1.635   9.920 -0.2426  0.6083 -0.5574
   26CHL1  H19A 1891   3.419   1.569  10.009 -0.7331  1.0061 -0.2551
   26CHL1  H19B 1892   3.383   1.569   9.839 -0.7903 -0.1580  0.2945
   26CHL1  H19C 1893   3.526   1.654   9.894 -0.1929  1.8248  0.4614
   26CHL1    C1 1894   3.429   1.842  10.046 -1.2893 -0.6044 -0.6238
   26CHL1   H1A 1895   3.529   1.867  10.004 -2.1205  1.9326 -1.1721
   26CHL1   H1B 1896   3.377   1.940  10.053 -0.1772  0.0346 -1.1188
   26CHL1    C2 1897   3.443   1.797  10.193  1.0196  0.1485  0.1540
   26CHL1   H2A 1898   3.489   1.885  10.243 -0.8047  3.0851 -3.0129
   26CHL1   H2B 1899   3.502   1.704  10.202  0.9114  0.1887  1.3271
   26CHL1   C20 1900   3.398   1.892   9.257  0.4338  0.9575  0.3458
   26CHL1   H20 1901   3.409   1.785   9.230 -1.5564  0.7002  0.5171
   26CHL1   C21 1902   3.536   1.963   9.281 -0.3368  0.0918  0.1040
   26CHL1  H21A 1903   3.601   1.964   9.191  1.6459 -1.5362  1.4913
   26CHL1  H21B 1904   3.587   1.916   9.367  1.1469 -1.4829 -1.5978
   26CHL1  H21C 1905   3.519   2.071   9.304  0.5170  0.3560 -0.4781
   26CHL1   C22 1906   3.333   1.968   9.135 -0.0181 -0.4014  0.2298
   26CHL1  H22A 1907   3.236   1.924   9.102  0.7990 -0.7643 -1.7909
   26CHL1  H22B 1908   3.323   2.078   9.146  1.7676 -0.3141  1.1137
   26CHL1   C23 1909   3.413   1.962   9.001 -0.4592 -0.2871  0.2888
   26CHL1  H23A 1910   3.520   1.986   9.021  0.1622  0.0581 -3.1381
   26CHL1  H23B 1911   3.410   1.858   8.962 -0.5572 -0.4092  0.6252
   26CHL1   C24 1912   3.377   2.062   8.894 -0.0780  0.3488  0.2446
   26CHL1  H24A 1913   3.267   2.069   8.880 -0.0454 -2.4824 -1.7461
   26CHL1  H24B 1914   3.414   2.159   8.935 -2.9123  1.3932  0.4521
   26CHL1   C25 1915   3.445   2.047   8.749 -0.1962  0.1225  0.4722
   26CHL1   H25 1916   3.417   2.132   8.684  0.6105 -0.4050 -0.5707
   26CHL1   C26 1917   3.599   2.053   8.754  0.1049 -1.0467 -0.2244
   26CHL1  H26A 1918   3.639   2.069   8.652  1.3760  2.5448  0.7497
   26CHL1  H26B 1919   3.634   2.133   8.822 -0.9546 -0.3942 -0.4518
   26CHL1  H26C 1920   3.632   1.959   8.804  1.0112 -0.8851 -0.5092
   26CHL1   C27 1921   3.389   1.927   8.666  0.7857 -0.0875  0.3170
   26CHL1  H27A 1922   3.421   1.924   8.560 -0.4283  0.6382 -0.0739
   26CHL1  H27B 1923   3.403   1.828   8.714 -3.6042 -2.0008 -2.0594
   26CHL1  H27C 1924   3.279   1.936   8.658  0.5246  0.0778  3.4280
   27CHL1    C3 1925   2.384   6.121  10.380  0.1996 -0.0834  0.7964
   27CHL1    H3 1926   2.322   6.029  10.366  1.0611 -0.2301 -2.1795
   27CHL1    O3 1927   2.400   6.144  10.523  0.2572  0.0329 -0.7430
   27CHL1   H3' 1928   2.436   6.231  10.541 -1.6457  0.4216  1.4765
   27CHL1    C4 1929   2.522   6.114  10.316  0.6522 -0.5471  0.1526
   27CHL1   H4A 1930   2.586   6.201  10.342  1.6798 -0.7049 -1.7402
   27CHL1   H4B 1931   2.576   6.024  10.351 -0.6671 -2.2246 -1.9803
   27CHL1    C5 1932   2.503   6.111  10.167 -0.5460 -0.2212 -0.0901
   27CHL1    C6 1933   2.550   6.011  10.088 -0.6360  0.4113  0.4234
   27CHL1    H6 1934   2.604   5.926  10.132  0.3322  0.4259 -0.7211
   27CHL1    C7 1935   2.564   6.026   9.937  0.1468 -0.1310  0.1623
   27CHL1   H7A 1936   2.670   6.006   9.914 -0.1814 -0.5601 -1.0271
   27CHL1   H7B 1937   2.508   5.950   9.879  1.3833  0.4434 -1.8326
   27CHL1    C8 1938   2.526   6.168   9.879 -0.1816  0.5183  0.5051
   27CHL1    H8 1939   2.619   6.224   9.898  1.4751 -1.3811 -1.7549
   27CHL1   C14 1940   2.508   6.166   9.728  0.4445  0.0724  0.1597
   27CHL1   H14 1941   2.423   6.097   9.711 -0.4381  1.4751 -1.3908
   27CHL1   C15 1942   2.612   6.101   9.632 -0.9404  1.0044 -0.6545
   27CHL1  H15A 1943   2.706   6.148   9.668 -0.7940 -1.9677  3.1084
   27CHL1  H15B 1944   2.607   5.992   9.653  1.8596  0.7836 -0.9335
   27CHL1   C16 1945   2.566   6.148   9.498 -0.3077  0.1156  0.3447
   27CHL1  H16A 1946   2.656   6.197   9.454 -0.1675 -0.0164  0.4787
   27CHL1  H16B 1947   2.534   6.068   9.429 -1.0698  1.3542 -0.7594
   27CHL1   C17 1948   2.453   6.248   9.521  0.7344 -0.8736 -0.8187
   27CHL1   H17 1949   2.353   6.200   9.522  0.3637 -0.1282  1.1883
   27CHL1   C13 1950   2.463   6.295   9.667  0.0476 -0.4032 -0.1355
   27CHL1   C18 1951   2.570   6.402   9.683 -0.4682 -0.4839 -0.1243
   27CHL1  H18A 1952   2.527   6.500   9.653  0.3290 -0.1078 -0.0536
   27CHL1  H18B 1953   2.602   6.402   9.789 -1.1497  0.2139  0.0846
   27CHL1  H18C 1954   2.664   6.377   9.629 -0.6936 -1.1086 -0.2314
   27CHL1   C12 1955   2.324   6.336   9.729  0.2779  0.1213  0.3600
   27CHL1  H12A 1956   2.281   6.420   9.671  0.0235  0.4553  1.0285
   27CHL1  H12B 1957   2.259   6.246   9.724 -0.1810  0.4280  0.7665
   27CHL1   C11 1958   2.347   6.359   9.880 -0.8776 -0.0806  0.1634
   27CHL1  H11A 1959   2.430   6.432   9.890  0.7368 -1.7939 -0.3855
   27CHL1  H11B 1960   2.257   6.408   9.923 -0.8187  1.3219 -1.2592
   27CHL1    C9 1961   2.402   6.224   9.954  0.1157  0.2310  0.2413
   27CHL1    H9 1962   2.331   6.138   9.951  0.4446 -0.1718  2.7140
   27CHL1   C10 1963   2.430   6.233  10.106 -0.1005 -1.0102  0.4257
   27CHL1   C19 1964   2.508   6.358  10.139 -0.3566  0.0055  0.2820
   27CHL1  H19A 1965   2.611   6.342  10.100 -0.1665 -0.6488  1.0445
   27CHL1  H19B 1966   2.462   6.447  10.090  1.3565  0.6683 -0.1712
   27CHL1  H19C 1967   2.510   6.383  10.247 -0.0958  1.8334 -0.1169
   27CHL1    C1 1968   2.295   6.239  10.168 -0.2275 -0.3899 -0.7036
   27CHL1   H1A 1969   2.244   6.332  10.134  0.9564  1.0618  1.3667
   27CHL1   H1B 1970   2.238   6.149  10.139 -1.6033 -0.4571  2.0813
   27CHL1    C2 1971   2.287   6.229  10.320 -0.3046 -0.8447 -0.9745
   27CHL1   H2A 1972   2.188   6.219  10.369 -0.1520  1.8832 -0.0263
   27CHL1   H2B 1973   2.317   6.331  10.353 -1.5284 -0.6265 -0.5228
   27CHL1   C20 1974   2.444   6.345   9.402  0.2359 -0.3291  0.2315
   27CHL1   H20 1975   2.541   6.394   9.380  0.0995  0.3031  1.0087
   27CHL1   C21 1976   2.348   6.464   9.429 -0.0524  0.6142  0.3766
   27CHL1  H21A 1977   2.385   6.543   9.498  0.8721 -0.0371  0.6343
   27CHL1  H21B 1978   2.246   6.433   9.462 -0.4453  2.1571  0.6479
   27CHL1  H21C 1979   2.324   6.514   9.333 -2.4440 -2.1203 -0.5357
   27CHL1   C22 1980   2.409   6.278   9.261 -0.8993 -0.1384  0.2499
   27CHL1  H22A 1981   2.420   6.363   9.189 -0.4502  0.0459  0.5342
   27CHL1  H22B 1982   2.492   6.210   9.233  1.7935  2.2799  2.0824
   27CHL1   C23 1983   2.275   6.212   9.237 -0.4710  0.2280 -0.5569
   27CHL1  H23A 1984   2.276   6.108   9.278  3.4937  0.5991  0.5633
   27CHL1  H23B 1985   2.195   6.258   9.299 -0.1466  0.7910 -0.5581
   27CHL1   C24 1986   2.246   6.192   9.085 -0.0009 -0.0857 -0.1139
   27CHL1  H24A 1987   2.215   6.291   9.044 -1.0941 -1.0298 -1.6064
   27CHL1  H24B 1988   2.344   6.165   9.039  0.0341  0.2769 -0.2589
   27CHL1   C25 1989   2.146   6.081   9.043 -0.6652 -0.5660  0.0041
   27CHL1   H25 1990   2.192   5.981   9.060 -1.8762 -0.7822  2.1030
   27CHL1   C26 1991   2.009   6.088   9.118  0.0236  0.5053 -0.1344
   27CHL1  H26A 1992   2.025   6.057   9.223 -1.8149  0.6374  0.2031
   27CHL1  H26B 1993   1.963   6.189   9.115 -2.0983 -0.2494  3.6612
   27CHL1  H26C 1994   1.937   6.016   9.073  0.5580  0.7458 -1.3835
   27CHL1   C27 1995   2.128   6.090   8.893  0.3197  0.0733 -0.1809
   27CHL1  H27A 1996   2.217   6.106   8.830  0.1188  0.9139 -0.2544
   27CHL1  H27B 1997   2.075   5.999   8.858  0.9781 -0.3258 -0.1374
   27CHL1  H27C 1998   2.086   6.185   8.854  1.6208 -0.3104 -2.6159
   28CHL1    C3 1999   1.090   4.624   9.970 -0.1938  0.5559 -0.4634
   28CHL1    H3 2000   1.182   4.561   9.967  1.4697  2.9289 -0.6415
   28CHL1    O3 2001   1.038   4.636  10.100  0.3282 -0.5213  0.2809
   28CHL1   H3' 2002   1.110   4.658  10.159 -0.2266  1.4314  0.2384
   28CHL1    C4 2003   1.130   4.761   9.910 -0.4900 -0.4981  0.3809
   28CHL1   H4A 2004   1.043   4.830   9.909  1.4987  2.0848 -0.5455
   28CHL1   H4B 2005   1.196   4.821   9.976 -0.0339 -0.5627 -0.0082
   28CHL1    C5 2006   1.207   4.739   9.778 -0.2477  0.6295 -0.2955
   28CHL1    C6 2007   1.328   4.784   9.758  0.0093 -0.1327 -0.0304
   28CHL1    H6 2008   1.379   4.831   9.844 -0.0724  2.4603 -1.3385
   28CHL1    C7 2009   1.393   4.769   9.628 -0.4672 -0.3572 -0.8204
   28CHL1   H7A 2010   1.443   4.861   9.592  3.2483 -1.3932  1.4061
   28CHL1   H7B 2011   1.467   4.687   9.631 -0.7492 -0.5768  2.0345
   28CHL1    C8 2012   1.300   4.743   9.503 -0.8419 -0.6785 -0.1397
   28CHL1    H8 2013   1.240   4.835   9.482  0.3764 -0.4751 -2.9149
   28CHL1   C14 2014   1.383   4.700   9.379  0.2243  0.1354  0.2440
   28CHL1   H14 2015   1.434   4.603   9.395  1.6697  0.6802 -1.0023
   28CHL1   C15 2016   1.506   4.778   9.336  0.5924 -0.8371 -0.0890
   28CHL1  H15A 2017   1.494   4.888   9.344  1.1386 -0.6138 -2.2263
   28CHL1  H15B 2018   1.586   4.746   9.407  0.6138  0.0532  0.2865
   28CHL1   C16 2019   1.533   4.728   9.192 -0.2086  0.0483  0.3765
   28CHL1  H16A 2020   1.541   4.815   9.123 -1.0280  1.0111  1.4841
   28CHL1  H16B 2021   1.632   4.678   9.197  0.6539  1.5135 -1.4008
   28CHL1   C17 2022   1.416   4.644   9.153  0.0879  0.0397  0.6492
   28CHL1   H17 2023   1.456   4.543   9.178 -1.8097 -1.4771 -2.0943
   28CHL1   C13 2024   1.299   4.669   9.250  0.1728  0.1655  0.2740
   28CHL1   C18 2025   1.216   4.786   9.199  0.0073 -0.0078 -0.5263
   28CHL1  H18A 2026   1.283   4.867   9.165  0.0626 -0.7103 -2.1086
   28CHL1  H18B 2027   1.146   4.757   9.118 -0.1300 -0.3237 -0.2937
   28CHL1  H18C 2028   1.153   4.828   9.281 -1.8024 -3.5816  0.0408
   28CHL1   C12 2029   1.208   4.546   9.294  0.0954 -0.4162 -0.4093
   28CHL1  H12A 2030   1.153   4.505   9.207  1.2975 -0.7758 -1.0205
   28CHL1  H12B 2031   1.282   4.465   9.312  0.7728  0.3534  0.3443
   28CHL1   C11 2032   1.124   4.580   9.418  0.5499  0.0894  0.1327
   28CHL1  H11A 2033   1.041   4.651   9.398 -1.4821 -2.4597 -0.8021
   28CHL1  H11B 2034   1.080   4.486   9.457 -2.0808  2.1373  2.3986
   28CHL1    C9 2035   1.204   4.633   9.542  0.4646 -0.2852 -0.3149
   28CHL1    H9 2036   1.268   4.546   9.565 -0.9539 -1.2086  0.2041
   28CHL1   C10 2037   1.121   4.672   9.662  0.0125  0.0182 -0.4500
   28CHL1   C19 2038   1.003   4.767   9.620  0.1549  0.0563  0.2885
   28CHL1  H19A 2039   0.925   4.717   9.559  2.0893 -2.8083  0.0615
   28CHL1  H19B 2040   0.952   4.790   9.717 -0.4409 -1.5566  0.3932
   28CHL1  H19C 2041   1.043   4.859   9.575  1.0632 -0.2266  0.5158
   28CHL1    C1 2042   1.060   4.547   9.732  0.3403  0.1091 -0.3800
   28CHL1   H1A 2043   0.989   4.509   9.655 -2.1154  3.3671  0.1818
   28CHL1   H1B 2044   1.140   4.471   9.746 -1.8346 -2.4221 -1.2430
   28CHL1    C2 2045   0.988   4.565   9.870 -0.0410 -0.0987  0.4124
   28CHL1   H2A 2046   0.949   4.469   9.910 -1.2871  0.8444  1.5151
   28CHL1   H2B 2047   0.898   4.625   9.844  1.5495  1.9672 -0.4377
   28CHL1   C20 2048   1.391   4.641   9.000  0.2329 -0.2969  0.9049
   28CHL1   H20 2049   1.329   4.729   8.974  0.8020 -0.3309 -0.6062
   28CHL1   C21 2050   1.295   4.529   8.966  0.4984  0.0503 -0.0052
   28CHL1  H21A 2051   1.200   4.526   9.023 -1.0361 -5.0286 -2.5172
   28CHL1  H21B 2052   1.360   4.439   8.978  0.1154  0.1201  2.8738
   28CHL1  H21C 2053   1.263   4.532   8.859  0.6812 -0.4493 -0.0783
   28CHL1   C22 2054   1.509   4.638   8.911 -0.0114  0.4508  0.2129
   28CHL1  H22A 2055   1.574   4.726   8.926  0.9908 -0.1902 -0.3136
   28CHL1  H22B 2056   1.563   4.543   8.933  0.1908  0.6069  0.3876
   28CHL1   C23 2057   1.470   4.631   8.764 -0.4531 -0.0634  0.1061
   28CHL1  H23A 2058   1.447   4.525   8.740  2.1637 -1.4915  3.4470
   28CHL1  H23B 2059   1.400   4.710   8.729  1.6070  2.0976  0.6849
   28CHL1   C24 2060   1.601   4.653   8.675 -0.1142 -0.2539 -1.2570
   28CHL1  H24A 2061   1.678   4.588   8.721  0.3028  1.2309  0.1838
   28CHL1  H24B 2062   1.590   4.633   8.566 -2.1706 -1.9340 -0.7724
   28CHL1   C25 2063   1.654   4.799   8.674 -0.7019 -0.0238  0.0954
   28CHL1   H25 2064   1.663   4.842   8.776  0.5173  0.3466 -0.1627
   28CHL1   C26 2065   1.788   4.817   8.607 -0.3278  0.2864 -0.5131
   28CHL1  H26A 2066   1.862   4.741   8.640 -0.8937 -0.7322 -1.5258
   28CHL1  H26B 2067   1.780   4.791   8.499  1.1487 -1.2035 -0.2976
   28CHL1  H26C 2068   1.830   4.919   8.614  1.3530 -0.4669  0.6751
   28CHL1   C27 2069   1.560   4.889   8.599 -0.6601 -0.1676 -0.2491
   28CHL1  H27A 2070   1.462   4.907   8.647 -0.2914 -1.0653  0.8717
   28CHL1  H27B 2071   1.608   4.988   8.588  1.0389 -1.1529 -2.3070
   28CHL1  H27C 2072   1.548   4.844   8.498  0.2425 -2.7779  0.7430
   29CHL1    C3 2073   2.621   3.120   6.458  0.1318 -0.2390  0.3660
   29CHL1    H3 2074   2.518   3.150   6.484  0.2186  1.9062 -1.6135
   29CHL1    O3 2075   2.616   3.123   6.318 -0.5488  0.2301  0.2928
   29CHL1   H3' 2076   2.605   3.214   6.290 -0.7132  0.1754  0.1790
   29CHL1    C4 2077   2.722   3.213   6.519 -0.4107  1.0577  0.1060
   29CHL1   H4A 2078   2.827   3.185   6.496 -0.7945 -1.1904  0.9440
   29CHL1   H4B 2079   2.703   3.319   6.489  0.8203  1.3502  0.3484
   29CHL1    C5 2080   2.720   3.199   6.669 -0.1874  0.4514  0.1730
   29CHL1    C6 2081   2.696   3.303   6.750 -0.1252 -0.2558 -0.1859
   29CHL1    H6 2082   2.663   3.398   6.707 -0.6273  0.0781  0.9214
   29CHL1    C7 2083   2.707   3.292   6.898 -0.0224 -0.2020  0.1574
   29CHL1   H7A 2084   2.763   3.381   6.934  0.0437  0.9178 -2.5712
   29CHL1   H7B 2085   2.605   3.304   6.941 -0.5521 -0.3036 -1.0632
   29CHL1    C8 2086   2.770   3.163   6.953 -0.6990 -0.4067  0.5835
   29CHL1    H8 2087   2.880   3.173   6.938 -0.5277  0.1482  2.0747
   29CHL1   C14 2088   2.749   3.155   7.104 -0.4016  0.0642  0.8072
   29CHL1   H14 2089   2.639   3.141   7.110 -0.3098 -0.9271  0.2671
   29CHL1   C15 2090   2.782   3.280   7.185  0.4083  0.3196  0.6359
   29CHL1  H15A 2091   2.881   3.323   7.158  0.5924  0.1298  1.0045
   29CHL1  H15B 2092   2.696   3.347   7.161 -1.3235 -1.2662  2.2143
   29CHL1   C16 2093   2.769   3.223   7.326 -0.2469 -0.3887  0.3026
   29CHL1  H16A 2094   2.862   3.260   7.374 -0.6205  2.5882 -1.1272
   29CHL1  H16B 2095   2.676   3.259   7.375 -0.7736 -0.7368 -0.4283
   29CHL1   C17 2096   2.765   3.065   7.312  0.0871  0.0576  0.3163
   29CHL1   H17 2097   2.657   3.044   7.303  0.3033 -0.0503 -2.3854
   29CHL1   C13 2098   2.811   3.030   7.171 -0.2344  0.9200  0.3796
   29CHL1   C18 2099   2.966   3.040   7.148  0.0703 -0.0612 -0.6441
   29CHL1  H18A 2100   2.989   3.137   7.195  1.0168 -1.7662  2.5523
   29CHL1  H18B 2101   3.034   2.966   7.195  0.0307 -0.9498 -1.9429
   29CHL1  H18C 2102   2.994   3.039   7.040  0.3845  2.2168 -0.5955
   29CHL1   C12 2103   2.759   2.909   7.098  0.2845 -0.0800  0.1525
   29CHL1  H12A 2104   2.819   2.820   7.128  2.3540  1.3051  0.2703
   29CHL1  H12B 2105   2.649   2.896   7.106  0.3187 -0.0690  0.6227
   29CHL1   C11 2106   2.782   2.913   6.942 -0.3242 -0.0090 -0.9364
   29CHL1  H11A 2107   2.890   2.898   6.922 -0.4205 -1.0517 -0.7511
   29CHL1  H11B 2108   2.728   2.828   6.895 -0.7518  0.1360 -0.7155
   29CHL1    C9 2109   2.726   3.043   6.878 -0.2853  0.0944  0.6924
   29CHL1    H9 2110   2.616   3.039   6.893 -0.1382 -0.3010  1.6793
   29CHL1   C10 2111   2.746   3.057   6.726  0.0752 -0.0335  0.3492
   29CHL1   C19 2112   2.898   3.018   6.695  0.5332  0.0952 -0.5709
   29CHL1  H19A 2113   2.918   2.911   6.714 -0.4052 -0.4465 -2.4804
   29CHL1  H19B 2114   2.930   3.037   6.590  0.8646 -0.6222 -0.5974
   29CHL1  H19C 2115   2.965   3.081   6.757 -0.1260  0.8927 -0.6484
   29CHL1    C1 2116   2.647   2.959   6.661  0.4761 -0.4574 -0.0223
   29CHL1   H1A 2117   2.668   2.858   6.702 -0.5697 -0.1657  1.2811
   29CHL1   H1B 2118   2.546   2.994   6.688  0.6958 -1.7227  2.6141
   29CHL1    C2 2119   2.643   2.971   6.506 -0.2357 -0.8382  0.1995
   29CHL1   H2A 2120   2.557   2.908   6.476  0.7068 -2.0875  0.0266
   29CHL1   H2B 2121   2.736   2.935   6.456  0.2553  1.0316 -0.2788
   29CHL1   C20 2122   2.827   2.992   7.434 -0.0033  0.1297 -0.8328
   29CHL1   H20 2123   2.933   3.023   7.434 -0.0046  0.5442  3.8636
   29CHL1   C21 2124   2.807   2.838   7.410  1.0480 -0.7030 -0.2619
   29CHL1  H21A 2125   2.876   2.809   7.328  1.4536  0.0003 -0.1787
   29CHL1  H21B 2126   2.701   2.822   7.381  0.5680  0.9724  0.5208
   29CHL1  H21C 2127   2.829   2.778   7.501 -0.5219 -0.4193  0.3247
   29CHL1   C22 2128   2.760   3.049   7.568  0.2189  0.1842 -0.2127
   29CHL1  H22A 2129   2.749   3.159   7.579  1.9070  0.4210 -0.7917
   29CHL1  H22B 2130   2.657   3.007   7.572 -0.0293  0.4551 -2.8885
   29CHL1   C23 2131   2.841   3.000   7.694  0.6091 -0.0850 -0.6963
   29CHL1  H23A 2132   2.872   2.894   7.686 -1.0967 -0.5185 -1.9738
   29CHL1  H23B 2133   2.936   3.057   7.701  0.7345 -0.5833  2.4004
   29CHL1   C24 2134   2.760   3.022   7.827  0.2004  0.4793  0.7003
   29CHL1  H24A 2135   2.683   3.102   7.815 -0.9072 -0.3632  2.0784
   29CHL1  H24B 2136   2.688   2.938   7.829  1.6609 -0.7844  0.5149
   29CHL1   C25 2137   2.836   3.034   7.963 -0.5284  0.6032 -0.6878
   29CHL1   H25 2138   2.888   3.131   7.950 -0.2020  0.6760  1.1503
   29CHL1   C26 2139   2.747   3.029   8.086 -0.4317 -0.2677 -0.2546
   29CHL1  H26A 2140   2.677   2.944   8.073 -0.5081  0.0666 -2.1728
   29CHL1  H26B 2141   2.805   3.016   8.180  0.0266 -0.0238 -0.5060
   29CHL1  H26C 2142   2.679   3.117   8.083 -2.9115 -1.9729  2.8287
   29CHL1   C27 2143   2.945   2.928   7.988  0.6390 -0.4190  0.4149
   29CHL1  H27A 2144   3.023   2.951   7.912  1.0611 -1.3870  0.5440
   29CHL1  H27B 2145   2.986   2.932   8.091 -1.0154  2.2294  1.0112
   29CHL1  H27C 2146   2.912   2.823   7.980 -1.4532  0.0589  2.3485
   30CHL1    C3 2147   0.441   1.370   7.372  0.0667  0.1849  0.5094
   30CHL1    H3 2148   0.547   1.352   7.399 -0.3124 -0.5045  1.5716
   30CHL1    O3 2149   0.405   1.338   7.236 -0.5774 -0.0410 -0.2824
   30CHL1   H3' 2150   0.395   1.428   7.203 -0.6448 -0.0573 -0.3079
   30CHL1    C4 2151   0.361   1.279   7.469 -0.1162  0.9156  0.3432
   30CHL1   H4A 2152   0.251   1.288   7.452 -0.2273  0.5824  0.9072
   30CHL1   H4B 2153   0.391   1.177   7.438  0.6580  1.6809 -1.5676
   30CHL1    C5 2154   0.403   1.297   7.614  0.7543 -0.1784  0.2293
   30CHL1    C6 2155   0.461   1.197   7.691  0.0144 -0.2805  0.1053
   30CHL1    H6 2156   0.481   1.100   7.642  1.6742 -0.4482  1.0845
   30CHL1    C7 2157   0.498   1.219   7.832  0.1636  0.2930  0.4463
   30CHL1   H7A 2158   0.459   1.130   7.887 -1.3125 -0.3143 -1.5412
   30CHL1   H7B 2159   0.608   1.225   7.847  0.2061  0.2120  0.1671
   30CHL1    C8 2160   0.432   1.345   7.901 -0.3071  0.9848  0.2609
   30CHL1    H8 2161   0.323   1.329   7.905 -0.2399  0.3642 -0.3297
   30CHL1   C14 2162   0.493   1.357   8.035  0.5273 -0.1392  0.1186
   30CHL1   H14 2163   0.601   1.374   8.013  0.5533 -0.4012  0.0416
   30CHL1   C15 2164   0.493   1.236   8.135 -0.9131 -0.2184  0.4495
   30CHL1  H15A 2165   0.389   1.201   8.154 -0.7122 -1.7369 -1.1603
   30CHL1  H15B 2166   0.569   1.158   8.112 -0.5235  0.2430  0.1760
   30CHL1   C16 2167   0.529   1.316   8.264 -0.0268 -0.6106  0.3025
   30CHL1  H16A 2168   0.452   1.290   8.339  0.5794 -0.9098  0.8212
   30CHL1  H16B 2169   0.626   1.282   8.307  1.2122  1.0546 -1.0925
   30CHL1   C17 2170   0.535   1.468   8.235 -0.6205 -0.4131 -0.1380
   30CHL1   H17 2171   0.639   1.485   8.198  0.4091 -4.4221  0.6145
   30CHL1   C13 2172   0.449   1.481   8.108 -0.4767 -0.7063 -1.1917
   30CHL1   C18 2173   0.299   1.475   8.152  0.2312  0.4766 -0.0982
   30CHL1  H18A 2174   0.224   1.456   8.073  0.0105  0.5229  0.0975
   30CHL1  H18B 2175   0.297   1.389   8.223 -0.5701  0.5270 -0.0611
   30CHL1  H18C 2176   0.271   1.565   8.211 -0.9576 -0.1207  0.2667
   30CHL1   C12 2177   0.471   1.601   8.017 -0.3770 -0.1750 -0.2073
   30CHL1  H12A 2178   0.425   1.688   8.069 -1.5471 -1.3133  0.7020
   30CHL1  H12B 2179   0.578   1.630   8.014 -0.0448 -0.8282  3.2683
   30CHL1   C11 2180   0.401   1.587   7.881  0.0912  0.7022  0.3311
   30CHL1  H11A 2181   0.290   1.592   7.893  0.0555  2.9653 -0.7674
   30CHL1  H11B 2182   0.424   1.676   7.819 -2.9424  0.8698 -0.6596
   30CHL1    C9 2183   0.446   1.460   7.807  0.0409 -0.0347  1.6719
   30CHL1    H9 2184   0.556   1.471   7.796 -0.5596  4.9035 -0.4728
   30CHL1   C10 2185   0.376   1.433   7.664 -0.4085 -0.6764 -0.0018
   30CHL1   C19 2186   0.223   1.441   7.672  0.4565  0.4571 -0.5216
   30CHL1  H19A 2187   0.177   1.442   7.570 -1.7587  2.9699  0.4510
   30CHL1  H19B 2188   0.186   1.354   7.731  0.6206  0.7814  0.0559
   30CHL1  H19C 2189   0.179   1.535   7.712 -0.8320  0.2738 -1.4735
   30CHL1    C1 2190   0.432   1.543   7.563  0.7665  0.8222  0.0185
   30CHL1   H1A 2191   0.380   1.638   7.588  1.7977  1.2362  0.6546
   30CHL1   H1B 2192   0.542   1.547   7.580  0.8867 -1.0982 -0.2799
   30CHL1    C2 2193   0.407   1.517   7.416 -0.3629  0.8839  0.6097
   30CHL1   H2A 2194   0.453   1.596   7.353  0.1024  1.3615  1.5420
   30CHL1   H2B 2195   0.299   1.533   7.392 -0.9240 -0.3837  2.1917
   30CHL1   C20 2196   0.519   1.559   8.358 -0.3968 -0.5002 -0.1746
   30CHL1   H20 2197   0.415   1.553   8.397 -0.7032  0.8665 -0.7542
   30CHL1   C21 2198   0.540   1.703   8.318  0.2454 -0.1376  0.3019
   30CHL1  H21A 2199   0.555   1.773   8.403  1.2565 -1.1228  0.9354
   30CHL1  H21B 2200   0.447   1.743   8.272 -0.0128 -0.0045  0.9311
   30CHL1  H21C 2201   0.633   1.719   8.260  0.1561  0.2963  0.2686
   30CHL1   C22 2202   0.613   1.523   8.475 -0.2479 -0.2136  0.0061
   30CHL1  H22A 2203   0.639   1.415   8.476 -0.9444 -0.3950  1.7750
   30CHL1  H22B 2204   0.711   1.571   8.454  0.0496  0.1322  2.0313
   30CHL1   C23 2205   0.547   1.571   8.607 -0.5654  0.3633 -0.7631
   30CHL1  H23A 2206   0.534   1.681   8.614 -2.1731  0.1661 -0.6414
   30CHL1  H23B 2207   0.445   1.529   8.615 -0.1513 -0.1757  2.4172
   30CHL1   C24 2208   0.636   1.535   8.725 -0.3690  0.3910  0.6114
   30CHL1  H24A 2209   0.646   1.425   8.716 -1.6130  0.1673  1.7893
   30CHL1  H24B 2210   0.734   1.583   8.701 -1.1461  0.8330 -1.7990
   30CHL1   C25 2211   0.588   1.557   8.870  0.4575 -0.1696  0.0461
   30CHL1   H25 2212   0.586   1.667   8.885 -2.6942 -0.4288  1.9000
   30CHL1   C26 2213   0.445   1.516   8.890  0.7614 -0.0880 -0.5835
   30CHL1  H26A 2214   0.379   1.559   8.811 -0.6931  1.5946  1.4804
   30CHL1  H26B 2215   0.419   1.409   8.900 -0.0975  0.0616 -1.1548
   30CHL1  H26C 2216   0.401   1.561   8.981 -3.3163 -1.3099 -1.8475
   30CHL1   C27 2217   0.685   1.498   8.972  0.9243  0.3850  0.2855
   30CHL1  H27A 2218   0.646   1.487   9.076  0.4695  0.9840  0.1813
   30CHL1  H27B 2219   0.713   1.394   8.944  0.2760 -0.8014  3.6815
   30CHL1  H27C 2220   0.775   1.562   8.958  0.0359  1.2724 -1.4346
   31CHL1    C3 2221   0.226   2.847   6.544  0.1830  0.3716  0.3016
   31CHL1    H3 2222   0.314   2.915   6.547  2.0026 -1.8627 -1.1412
   31CHL1    O3 2223   0.207   2.817   6.410  0.0541 -0.4484 -0.2248
   31CHL1   H3' 2224   0.114   2.797   6.401 -0.1750  1.0033 -1.2950
   31CHL1    C4 2225   0.273   2.722   6.614 -0.0338  0.1929 -0.2444
   31CHL1   H4A 2226   0.197   2.641   6.602  0.0762  0.2686 -1.4418
   31CHL1   H4B 2227   0.354   2.681   6.551  0.1963  2.3793 -1.4171
   31CHL1    C5 2228   0.305   2.748   6.763  0.0206 -0.3560  0.7489
   31CHL1    C6 2229   0.429   2.723   6.806  0.1682 -0.7184 -0.0017
   31CHL1    H6 2230   0.516   2.696   6.745  0.0590  0.9363 -0.9147
   31CHL1    C7 2231   0.469   2.746   6.952 -0.1959  0.2795 -0.6612
   31CHL1   H7A 2232   0.542   2.670   6.987 -0.4393  0.9251  1.3358
   31CHL1   H7B 2233   0.528   2.840   6.946  1.3763 -0.7417 -1.3093
   31CHL1    C8 2234   0.341   2.768   7.045  0.0937  0.0552 -0.8511
   31CHL1    H8 2235   0.288   2.672   7.064  0.3363  0.1606  0.4425
   31CHL1   C14 2236   0.391   2.823   7.177 -0.1522  0.3303  0.2783
   31CHL1   H14 2237   0.432   2.924   7.156  1.0886 -0.1403  0.3999
   31CHL1   C15 2238   0.499   2.738   7.257 -0.3857 -0.0939  0.4477
   31CHL1  H15A 2239   0.461   2.634   7.258  0.9025 -0.5838  2.3918
   31CHL1  H15B 2240   0.599   2.756   7.212 -1.1502 -0.9972 -1.6924
   31CHL1   C16 2241   0.487   2.797   7.397  0.0315  0.5842 -0.3959
   31CHL1  H16A 2242   0.477   2.711   7.467 -1.6197  1.8542  0.9724
   31CHL1  H16B 2243   0.579   2.853   7.425  1.8002 -2.0359 -0.7234
   31CHL1   C17 2244   0.367   2.896   7.392 -0.2291 -0.4209 -0.2920
   31CHL1   H17 2245   0.401   2.996   7.360 -2.7884  0.0397 -1.7391
   31CHL1   C13 2246   0.285   2.844   7.276 -0.8711 -0.1798 -0.4254
   31CHL1   C18 2247   0.212   2.711   7.314 -0.1755 -0.4609  0.5619
   31CHL1  H18A 2248   0.160   2.657   7.232  0.7897 -1.6839  0.7457
   31CHL1  H18B 2249   0.281   2.642   7.367  0.3794 -1.7346 -1.7948
   31CHL1  H18C 2250   0.133   2.735   7.389 -0.9079 -0.8441 -0.0823
   31CHL1   C12 2251   0.186   2.953   7.229  0.3075 -0.2001  0.2276
   31CHL1  H12A 2252   0.100   2.954   7.300  1.1291  3.1700  1.2943
   31CHL1  H12B 2253   0.235   3.053   7.225  0.6766 -0.4699 -2.9742
   31CHL1   C11 2254   0.131   2.916   7.086  0.2135 -0.5427 -0.0671
   31CHL1  H11A 2255   0.049   2.842   7.096  1.4500 -1.8093  0.8199
   31CHL1  H11B 2256   0.079   3.009   7.052 -0.8502 -1.3245 -0.5893
   31CHL1    C9 2257   0.245   2.869   6.984  0.8426 -0.6810  0.1131
   31CHL1    H9 2258   0.298   2.966   6.969 -1.7506  0.2674 -3.5078
   31CHL1   C10 2259   0.195   2.824   6.850  0.5725  0.0736  0.1307
   31CHL1   C19 2260   0.083   2.713   6.869 -0.9251 -0.1311  0.6157
   31CHL1  H19A 2261   0.120   2.629   6.931 -0.2101  0.0156  0.3941
   31CHL1  H19B 2262  -0.004   2.759   6.920 -1.0950  0.9798 -0.6370
   31CHL1  H19C 2263   0.048   2.674   6.771 -0.5525 -0.2191  0.5143
   31CHL1    C1 2264   0.142   2.941   6.762 -0.8262 -0.6249 -0.0215
   31CHL1   H1A 2265   0.046   2.978   6.805 -0.6768  1.0881 -1.0981
   31CHL1   H1B 2266   0.218   3.022   6.771 -0.8889 -0.6248  0.5271
   31CHL1    C2 2267   0.107   2.912   6.615 -0.1797 -0.5191 -0.2252
   31CHL1   H2A 2268   0.080   3.004   6.559 -0.6274 -1.6233 -1.8781
   31CHL1   H2B 2269   0.025   2.837   6.602 -0.7880 -0.2084  1.7385
   31CHL1   C20 2270   0.297   2.915   7.532  0.0396 -0.3515 -0.3357
   31CHL1   H20 2271   0.195   2.958   7.523 -0.7410 -2.2026 -0.7901
   31CHL1   C21 2272   0.386   3.016   7.606  0.3311 -0.1894  0.6051
   31CHL1  H21A 2273   0.329   3.049   7.696 -1.3797  0.1965 -0.5895
   31CHL1  H21B 2274   0.391   3.102   7.536  1.3335  0.1882  1.1168
   31CHL1  H21C 2275   0.483   2.964   7.621  1.0268  1.0676  0.5531
   31CHL1   C22 2276   0.283   2.785   7.624 -0.3380  0.0816 -0.3483
   31CHL1  H22A 2277   0.217   2.719   7.565 -0.3287  0.2783 -0.5779
   31CHL1  H22B 2278   0.377   2.729   7.647 -0.2435  0.1630 -0.5369
   31CHL1   C23 2279   0.208   2.816   7.758 -0.5269  0.4627  0.2369
   31CHL1  H23A 2280   0.292   2.864   7.812 -0.2008  2.2045 -1.7312
   31CHL1  H23B 2281   0.128   2.894   7.750 -1.0090 -0.0894 -0.3767
   31CHL1   C24 2282   0.170   2.686   7.834  0.1111  0.4265  0.5492
   31CHL1  H24A 2283   0.100   2.623   7.775 -0.5487  0.6773  1.0651
   31CHL1  H24B 2284   0.266   2.635   7.858 -1.1302 -0.1602  4.5078
   31CHL1   C25 2285   0.107   2.700   7.972 -0.3148  0.0988 -0.0662
   31CHL1   H25 2286   0.118   2.607   8.032  1.3163  0.4490  0.1856
   31CHL1   C26 2287   0.174   2.811   8.050 -0.1684 -0.0725 -0.1202
   31CHL1  H26A 2288   0.192   2.901   7.989  1.2722  1.5488  2.5804
   31CHL1  H26B 2289   0.107   2.839   8.134  1.3305 -0.7333  1.3508
   31CHL1  H26C 2290   0.275   2.783   8.088 -1.7542 -2.5768  2.4947
   31CHL1   C27 2291  -0.040   2.734   7.949  0.3185 -0.0887 -0.1616
   31CHL1  H27A 2292  -0.080   2.660   7.876 -1.5086  1.7121 -1.0380
   31CHL1  H27B 2293  -0.047   2.827   7.889  0.6257  0.0762  0.0552
   31CHL1  H27C 2294  -0.091   2.747   8.046  0.2141 -1.4959 -0.0145
   32CHL1    C3 2295   0.921   1.571   7.063 -1.3023 -0.0161 -0.3312
   32CHL1    H3 2296   1.012   1.518   7.027 -0.4831  1.4124 -0.4051
   32CHL1    O3 2297   0.879   1.652   6.958  0.2152 -0.0592 -0.0102
   32CHL1   H3' 2298   0.953   1.707   6.932  0.3267 -0.3679 -0.3409
   32CHL1    C4 2299   0.812   1.466   7.085  0.2434 -0.7945  0.5151
   32CHL1   H4A 2300   0.713   1.512   7.103 -0.0736 -1.2959  0.0726
   32CHL1   H4B 2301   0.802   1.420   6.984  1.5552 -0.3375  0.1734
   32CHL1    C5 2302   0.844   1.360   7.193  0.0415 -0.4652  0.3608
   32CHL1    C6 2303   0.829   1.226   7.179 -0.4423 -0.2046  0.3710
   32CHL1    H6 2304   0.791   1.191   7.082  0.7970  1.3164 -0.6968
   32CHL1    C7 2305   0.859   1.120   7.284  0.0539  0.2372  0.9046
   32CHL1   H7A 2306   0.771   1.053   7.294 -0.4914  1.0025  1.3359
   32CHL1   H7B 2307   0.945   1.060   7.250 -1.3507 -1.5157  0.3480
   32CHL1    C8 2308   0.889   1.183   7.425 -1.1584  0.0877  0.2015
   32CHL1    H8 2309   0.791   1.206   7.472 -0.9787  1.9630 -0.2934
   32CHL1   C14 2310   0.965   1.075   7.506  0.5480  0.3829  0.3174
   32CHL1   H14 2311   1.064   1.072   7.455  0.2258  0.7073 -0.3331
   32CHL1   C15 2312   0.920   0.932   7.512 -0.0183  0.8684 -0.1268
   32CHL1  H15A 2313   0.811   0.920   7.527  0.2129  0.6319  1.4562
   32CHL1  H15B 2314   0.952   0.864   7.430 -2.3540  0.0253 -0.3589
   32CHL1   C16 2315   1.001   0.871   7.626 -0.5566 -0.5745  0.1523
   32CHL1  H16A 2316   0.926   0.824   7.694 -1.2207  0.8247  0.4140
   32CHL1  H16B 2317   1.072   0.793   7.594 -2.6735 -1.6341 -2.1004
   32CHL1   C17 2318   1.070   0.990   7.700 -0.3007 -0.3840  0.0548
   32CHL1   H17 2319   1.177   0.988   7.667 -0.5669 -2.3250 -0.7757
   32CHL1   C13 2320   0.994   1.118   7.653  0.9645  0.0198  0.6361
   32CHL1   C18 2321   0.864   1.140   7.740 -0.3765 -0.1743 -0.0741
   32CHL1  H18A 2322   0.794   1.054   7.749  0.5078 -0.8567  0.3890
   32CHL1  H18B 2323   0.892   1.169   7.843  1.0458  0.9008 -0.7594
   32CHL1  H18C 2324   0.814   1.233   7.705  0.9909  0.6873  0.2248
   32CHL1   C12 2325   1.073   1.248   7.645  0.6917 -0.0834 -0.2324
   32CHL1  H12A 2326   1.098   1.285   7.747 -0.2134  3.0685 -1.0785
   32CHL1  H12B 2327   1.163   1.230   7.583  2.8382 -0.8915  2.9671
   32CHL1   C11 2328   1.008   1.361   7.560  0.1477 -0.3869  0.0374
   32CHL1  H11A 2329   0.915   1.403   7.604  0.5350  0.5441 -0.0025
   32CHL1  H11B 2330   1.074   1.450   7.568  0.9427 -1.0895  1.5214
   32CHL1    C9 2331   0.969   1.311   7.419  0.4131 -0.3012  0.4320
   32CHL1    H9 2332   1.067   1.282   7.375 -0.4197 -1.9454 -0.3743
   32CHL1   C10 2333   0.906   1.421   7.322  0.0016 -0.0865  0.7901
   32CHL1   C19 2334   0.789   1.493   7.400  0.1599  0.2060  0.0591
   32CHL1  H19A 2335   0.822   1.574   7.469  1.3985 -0.6046  0.4225
   32CHL1  H19B 2336   0.722   1.551   7.333  1.3448  0.3346 -1.0310
   32CHL1  H19C 2337   0.729   1.416   7.452 -0.9628  0.7363 -0.4181
   32CHL1    C1 2338   1.002   1.535   7.286 -0.2908 -0.3419 -0.6976
   32CHL1   H1A 2339   1.040   1.579   7.380 -2.5726  1.3832 -0.5464
   32CHL1   H1B 2340   1.090   1.492   7.235  1.2610  0.7916  0.9853
   32CHL1    C2 2341   0.954   1.647   7.196  0.3232 -1.0002  0.7930
   32CHL1   H2A 2342   1.033   1.724   7.182  2.0516 -2.7930  0.5257
   32CHL1   H2B 2343   0.853   1.686   7.222 -0.0400 -0.9205 -0.6851
   32CHL1   C20 2344   1.074   0.958   7.850 -0.6894 -0.2303  0.0453
   32CHL1   H20 2345   0.969   0.945   7.884 -0.3792 -0.6420  0.8678
   32CHL1   C21 2346   1.136   1.081   7.933 -0.4198  0.4083  0.0038
   32CHL1  H21A 2347   1.076   1.172   7.915  0.2112  0.8995  0.3302
   32CHL1  H21B 2348   1.240   1.106   7.901 -0.2159 -0.6528 -0.1777
   32CHL1  H21C 2349   1.134   1.048   8.039 -1.8147 -0.4297 -0.2776
   32CHL1   C22 2350   1.158   0.829   7.872 -0.0910 -0.2725 -0.1954
   32CHL1  H22A 2351   1.130   0.756   7.793  0.3274 -0.2989 -0.3192
   32CHL1  H22B 2352   1.265   0.853   7.855  0.1822 -1.1205  0.2946
   32CHL1   C23 2353   1.155   0.765   8.008  0.1628 -0.4319  0.1970
   32CHL1  H23A 2354   1.219   0.675   8.000  0.9242  0.0664  0.5651
   32CHL1  H23B 2355   1.200   0.839   8.078 -0.6482  0.2369  0.0273
   32CHL1   C24 2356   1.017   0.729   8.062  0.6369  0.7329  0.0960
   32CHL1  H24A 2357   0.959   0.824   8.067 -0.0262  0.4799 -2.1254
   32CHL1  H24B 2358   0.958   0.669   7.989 -2.7119  2.1354  1.5189
   32CHL1   C25 2359   1.022   0.649   8.194  0.2019 -0.4367  0.0001
   32CHL1   H25 2360   0.915   0.636   8.219  0.0537  0.4873 -0.1309
   32CHL1   C26 2361   1.072   0.505   8.182 -0.5054 -0.1290 -0.3996
   32CHL1  H26A 2362   1.021   0.454   8.098 -1.0373 -2.2158  1.1425
   32CHL1  H26B 2363   1.182   0.499   8.169 -0.3219  0.5021  0.7530
   32CHL1  H26C 2364   1.063   0.455   8.281  0.6638  3.5417  1.6611
   32CHL1   C27 2365   1.081   0.736   8.303  0.1256  0.1445  0.1062
   32CHL1  H27A 2366   1.189   0.758   8.286 -0.4530  1.8066 -1.6740
   32CHL1  H27B 2367   1.021   0.830   8.301 -0.4710 -0.2133  1.0393
   32CHL1  H27C 2368   1.064   0.693   8.404 -0.2340  0.5251  0.2114
   33CHL1    C3 2369   2.073   1.946   6.860  0.2288  0.2873  0.5219
   33CHL1    H3 2370   2.125   2.043   6.849  2.9742 -1.0543  1.3032
   33CHL1    O3 2371   2.023   1.897   6.739  0.4177 -0.5550  0.4299
   33CHL1   H3' 2372   1.975   1.969   6.699 -2.3665 -1.4586  2.0195
   33CHL1    C4 2373   2.181   1.846   6.908 -0.5192 -0.0105  0.1111
   33CHL1   H4A 2374   2.131   1.747   6.908 -0.6212  0.0342 -0.8801
   33CHL1   H4B 2375   2.262   1.848   6.832  1.3652  1.9356  2.0907
   33CHL1    C5 2376   2.233   1.881   7.050 -0.6372 -0.7535  0.0174
   33CHL1    C6 2377   2.363   1.905   7.075 -0.2629 -0.6197 -0.7872
   33CHL1    H6 2378   2.437   1.890   6.996  0.8032  0.0366  0.0704
   33CHL1    C7 2379   2.417   1.929   7.211 -0.4849  0.1056 -0.5094
   33CHL1   H7A 2380   2.509   1.869   7.221 -0.1435  0.6565 -0.2824
   33CHL1   H7B 2381   2.446   2.036   7.206 -0.7303  0.2082  0.2263
   33CHL1    C8 2382   2.317   1.903   7.328 -0.5155 -0.4695  0.1412
   33CHL1    H8 2383   2.301   1.795   7.349 -1.0882 -0.1458  1.4419
   33CHL1   C14 2384   2.363   1.965   7.456 -0.1746  0.1708  0.5792
   33CHL1   H14 2385   2.382   2.070   7.424  2.0995 -0.2643  0.4543
   33CHL1   C15 2386   2.499   1.925   7.515 -0.5501  0.0386 -0.1821
   33CHL1  H15A 2387   2.529   1.818   7.519  1.5259  0.5417 -1.4691
   33CHL1  H15B 2388   2.584   1.969   7.458  2.8234 -3.0644  2.1975
   33CHL1   C16 2389   2.499   1.997   7.647  0.3417 -0.0054  0.3678
   33CHL1  H16A 2390   2.532   1.919   7.718 -0.6651  0.0808  0.9488
   33CHL1  H16B 2391   2.561   2.089   7.658 -1.0840  0.9551  0.4613
   33CHL1   C17 2392   2.352   2.037   7.687 -0.1474  0.4949 -0.1499
   33CHL1   H17 2393   2.336   2.145   7.668  0.7974  0.5792 -0.4660
   33CHL1   C13 2394   2.268   1.969   7.573  0.7061 -0.4673 -0.1178
   33CHL1   C18 2395   2.228   1.820   7.611  0.0550  0.1067 -0.2685
   33CHL1  H18A 2396   2.142   1.822   7.681 -0.0216 -1.3754 -0.3028
   33CHL1  H18B 2397   2.201   1.756   7.524  0.2555 -1.6703  0.9315
   33CHL1  H18C 2398   2.312   1.769   7.664 -1.2604 -0.8609  0.9120
   33CHL1   C12 2399   2.140   2.041   7.528  0.0161 -0.1649 -0.4334
   33CHL1  H12A 2400   2.065   2.049   7.610 -0.3795  0.5609 -0.8649
   33CHL1  H12B 2401   2.168   2.145   7.501 -0.6858  0.2389  0.3547
   33CHL1   C11 2402   2.076   1.965   7.409  0.9824  0.4916  0.2927
   33CHL1  H11A 2403   2.040   1.867   7.447  0.4179  0.4659 -0.3247
   33CHL1  H11B 2404   1.988   2.027   7.384  0.7466  0.6502  1.4605
   33CHL1    C9 2405   2.173   1.962   7.291 -0.4228  0.5046 -0.2810
   33CHL1    H9 2406   2.184   2.071   7.271 -0.5930  0.7744  1.0715
   33CHL1   C10 2407   2.119   1.906   7.158 -0.1462 -0.4296  0.6800
   33CHL1   C19 2408   2.070   1.762   7.185 -0.7252  1.2571 -0.3943
   33CHL1  H19A 2409   1.988   1.750   7.260  1.7008 -0.2279  2.1016
   33CHL1  H19B 2410   2.033   1.718   7.090  0.5746 -1.4504  0.3050
   33CHL1  H19C 2411   2.148   1.693   7.224 -2.3645 -0.1214  0.5287
   33CHL1    C1 2412   2.008   2.002   7.106  0.4478  0.1495 -0.3985
   33CHL1   H1A 2413   1.922   1.990   7.176  0.4154  0.4131 -0.3897
   33CHL1   H1B 2414   2.047   2.106   7.102 -0.3335  0.5135  0.8656
   33CHL1    C2 2415   1.965   1.968   6.964  1.2281 -0.2326  0.3230
   33CHL1   H2A 2416   1.892   2.046   6.934  1.5447  1.4894  3.7761
   33CHL1   H2B 2417   1.910   1.871   6.969 -0.0760  0.4320 -0.9357
   33CHL1   C20 2418   2.312   2.015   7.837  0.6882  0.4983 -0.2043
   33CHL1   H20 2419   2.325   1.907   7.860 -0.3841  0.8347  2.0901
   33CHL1   C21 2420   2.169   2.059   7.860  0.1418 -0.1126 -0.1611
   33CHL1  H21A 2421   2.165   2.166   7.830  1.1713 -0.4623 -1.6122
   33CHL1  H21B 2422   2.140   2.054   7.967 -1.8824  1.4097 -0.6240
   33CHL1  H21C 2423   2.090   2.006   7.803 -2.9014  2.4006  1.5596
   33CHL1   C22 2424   2.410   2.092   7.935 -0.4569  0.0766  0.8869
   33CHL1  H22A 2425   2.507   2.096   7.881 -0.2847  1.8538  1.3076
   33CHL1  H22B 2426   2.370   2.195   7.935  1.6670  0.9966 -2.8188
   33CHL1   C23 2427   2.425   2.038   8.076  0.3116  0.3436 -0.3567
   33CHL1  H23A 2428   2.324   2.038   8.121  0.0689  1.2741 -0.8992
   33CHL1  H23B 2429   2.462   1.933   8.069 -0.4606  0.1145 -1.1262
   33CHL1   C24 2430   2.520   2.133   8.156  0.4850  0.2415 -0.5835
   33CHL1  H24A 2431   2.622   2.127   8.112  1.1555  0.1986  0.9482
   33CHL1  H24B 2432   2.494   2.240   8.142  0.3902  0.1554 -1.0608
   33CHL1   C25 2433   2.518   2.110   8.305 -0.1461  0.5042 -0.0302
   33CHL1   H25 2434   2.534   2.001   8.317  2.0884  0.7493 -0.5342
   33CHL1   C26 2435   2.642   2.170   8.376  0.3146  0.2113  0.1438
   33CHL1  H26A 2436   2.644   2.281   8.368 -1.4468  0.1643 -1.1515
   33CHL1  H26B 2437   2.662   2.136   8.480 -1.6169  2.2202  1.1986
   33CHL1  H26C 2438   2.731   2.122   8.328  1.1637 -1.6191  3.3851
   33CHL1   C27 2439   2.393   2.163   8.378  0.3333  0.0560  0.3183
   33CHL1  H27A 2440   2.390   2.269   8.346  2.2800 -0.3674 -1.3761
   33CHL1  H27B 2441   2.305   2.107   8.339  1.9692 -1.9721 -0.6000
   33CHL1  H27C 2442   2.401   2.163   8.489 -1.4682  1.9953  0.4724
   34CHL1    C3 2443   3.098   0.424   7.065 -0.2919 -0.2388 -0.5079
   34CHL1    H3 2444   3.200   0.423   7.110 -0.4689 -2.7747 -0.0700
   34CHL1    O3 2445   3.113   0.422   6.924  0.2096 -0.1390  0.2030
   34CHL1   H3' 2446   3.070   0.337   6.910  0.5249  0.0429 -2.0502
   34CHL1    C4 2447   3.045   0.288   7.117 -0.1606 -0.5362  0.7723
   34CHL1   H4A 2448   2.943   0.279   7.073  0.2397  0.4111 -0.3838
   34CHL1   H4B 2449   3.121   0.213   7.088  1.3254  0.2060  2.6815
   34CHL1    C5 2450   3.017   0.287   7.266  0.2876  0.4257  0.4940
   34CHL1    C6 2451   3.062   0.188   7.337 -0.4676 -0.1407 -0.3847
   34CHL1    H6 2452   3.123   0.107   7.295 -1.7103 -2.3988  2.0852
   34CHL1    C7 2453   3.029   0.164   7.484  0.5183  0.2942  0.5805
   34CHL1   H7A 2454   2.977   0.068   7.502 -3.4082  1.7327 -2.3695
   34CHL1   H7B 2455   3.120   0.171   7.548 -0.9897  0.9972  2.7262
   34CHL1    C8 2456   2.930   0.270   7.545 -0.3461  0.0378 -0.5826
   34CHL1    H8 2457   2.832   0.236   7.505  0.0837 -0.0484 -1.5817
   34CHL1   C14 2458   2.939   0.270   7.690 -0.3860 -0.3796 -0.4900
   34CHL1   H14 2459   3.044   0.296   7.716 -0.2147 -1.5036  0.0168
   34CHL1   C15 2460   2.918   0.136   7.768 -0.1915  0.1351 -0.3034
   34CHL1  H15A 2461   2.822   0.088   7.740 -0.0903  0.3254 -0.9699
   34CHL1  H15B 2462   3.000   0.065   7.746  1.2192  1.0063  1.8554
   34CHL1   C16 2463   2.904   0.182   7.916  0.1564  0.9499  0.8022
   34CHL1  H16A 2464   2.825   0.130   7.974 -1.5069 -0.1923 -2.4321
   34CHL1  H16B 2465   3.000   0.162   7.968  0.4193 -0.5236 -0.2323
   34CHL1   C17 2466   2.901   0.342   7.909 -0.4395 -0.1775 -0.1440
   34CHL1   H17 2467   3.005   0.379   7.903 -0.5561 -0.2781 -4.8815
   34CHL1   C13 2468   2.855   0.376   7.762 -0.2775 -0.4878  0.2055
   34CHL1   C18 2469   2.703   0.346   7.760  0.4440 -0.4757  0.7175
   34CHL1  H18A 2470   2.645   0.438   7.786 -1.4111 -0.7754 -2.1012
   34CHL1  H18B 2471   2.673   0.337   7.653 -3.5592  0.8255  1.6461
   34CHL1  H18C 2472   2.667   0.255   7.812  2.1697 -0.5994  1.7305
   34CHL1   C12 2473   2.886   0.514   7.702  0.1783 -0.3175 -0.1386
   34CHL1  H12A 2474   2.816   0.592   7.740  0.5355  0.1131 -0.3793
   34CHL1  H12B 2475   2.987   0.540   7.738 -0.9537  2.5253  1.1968
   34CHL1   C11 2476   2.876   0.516   7.548 -0.3876 -0.2013 -0.0319
   34CHL1  H11A 2477   2.767   0.511   7.526  0.1911 -2.0996 -2.6834
   34CHL1  H11B 2478   2.904   0.619   7.518 -0.5479 -0.5237 -1.3082
   34CHL1    C9 2479   2.952   0.404   7.483  0.4196 -0.2819  0.0901
   34CHL1    H9 2480   3.058   0.432   7.502  0.4407  1.5092 -2.4367
   34CHL1   C10 2481   2.941   0.407   7.323 -0.6017 -0.5012  0.0892
   34CHL1   C19 2482   2.791   0.400   7.285  0.2913  0.1480 -0.3212
   34CHL1  H19A 2483   2.754   0.308   7.335 -2.1980  1.1579 -0.2360
   34CHL1  H19B 2484   2.739   0.490   7.325  2.6063  0.5111  1.9867
   34CHL1  H19C 2485   2.766   0.397   7.176 -1.3747 -1.8397  0.0828
   34CHL1    C1 2486   3.011   0.533   7.262  0.1894 -0.5966 -0.4284
   34CHL1   H1A 2487   2.958   0.627   7.290  2.4573  1.4851 -2.8434
   34CHL1   H1B 2488   3.112   0.548   7.303  0.0152 -0.5082 -0.0332
   34CHL1    C2 2489   3.019   0.545   7.108 -0.6383 -0.4778 -0.1875
   34CHL1   H2A 2490   3.082   0.632   7.081 -1.7536 -0.1672 -1.9359
   34CHL1   H2B 2491   2.917   0.547   7.062 -1.8272 -0.8125  2.3495
   34CHL1   C20 2492   2.820   0.425   8.012 -0.4672  0.4262 -0.6313
   34CHL1   H20 2493   2.803   0.525   7.967 -1.8832 -0.3804 -1.9496
   34CHL1   C21 2494   2.928   0.440   8.129  0.1269  0.1107  0.5025
   34CHL1  H21A 2495   2.913   0.530   8.193 -0.3999 -0.2335  0.8697
   34CHL1  H21B 2496   3.023   0.459   8.075 -0.2422  0.1210 -0.1419
   34CHL1  H21C 2497   2.926   0.346   8.189 -0.0166  0.0883  0.4624
   34CHL1   C22 2498   2.685   0.375   8.076 -0.0271  0.4825 -0.0050
   34CHL1  H22A 2499   2.607   0.374   7.997 -1.1716  3.3692  1.0091
   34CHL1  H22B 2500   2.708   0.269   8.101 -0.9208  0.0594 -0.9377
   34CHL1   C23 2501   2.625   0.461   8.189  0.5743  0.1733 -0.1453
   34CHL1  H23A 2502   2.696   0.465   8.275 -0.3005 -1.2970  0.6564
   34CHL1  H23B 2503   2.615   0.563   8.148  0.7698 -0.3595 -1.5249
   34CHL1   C24 2504   2.496   0.396   8.234 -0.4901 -0.1472 -0.2234
   34CHL1  H24A 2505   2.439   0.369   8.142  0.6518 -2.1794 -0.3698
   34CHL1  H24B 2506   2.528   0.305   8.290 -0.7200 -0.2296 -0.2281
   34CHL1   C25 2507   2.418   0.485   8.326 -1.0480 -0.3932  0.0377
   34CHL1   H25 2508   2.332   0.425   8.364 -1.5404  1.3542  1.8318
   34CHL1   C26 2509   2.489   0.542   8.452  0.4301  0.1168 -0.2731
   34CHL1  H26A 2510   2.420   0.607   8.509 -0.9146 -0.5957 -1.0608
   34CHL1  H26B 2511   2.526   0.453   8.507 -1.3679  0.8074  2.1520
   34CHL1  H26C 2512   2.574   0.610   8.430 -0.3556  1.0032 -0.5774
   34CHL1   C27 2513   2.341   0.592   8.245 -0.3536 -0.6740  0.4711
   34CHL1  H27A 2514   2.430   0.637   8.196  0.2188 -0.5166  1.6422
   34CHL1  H27B 2515   2.271   0.546   8.172 -1.8639 -1.9429  2.6586
   34CHL1  H27C 2516   2.288   0.654   8.320 -0.8199 -2.3721  1.5735
   35CHL1    C3 2517   6.132   1.124   7.196 -0.6342  0.5498  0.1184
   35CHL1    H3 2518   6.022   1.139   7.202 -0.6119  3.1285 -4.2903
   35CHL1    O3 2519   6.151   1.113   7.057  0.4466  0.1247  0.3424
   35CHL1   H3' 2520   6.231   1.064   7.038  1.3973  1.8303 -0.2145
   35CHL1    C4 2521   6.205   1.244   7.258 -0.4252 -0.5948 -0.1143
   35CHL1   H4A 2522   6.312   1.228   7.234 -0.5069 -0.8798 -0.2931
   35CHL1   H4B 2523   6.171   1.336   7.205  1.0522 -1.2375 -2.2514
   35CHL1    C5 2524   6.204   1.248   7.407  0.0242 -0.4281 -0.6142
   35CHL1    C6 2525   6.184   1.367   7.472 -0.0514 -0.1707  0.4160
   35CHL1    H6 2526   6.167   1.458   7.412 -0.2595  0.9392  2.1396
   35CHL1    C7 2527   6.189   1.386   7.619 -0.8056  0.0717 -0.1327
   35CHL1   H7A 2528   6.253   1.472   7.649 -0.0742 -0.5527  0.1185
   35CHL1   H7B 2529   6.087   1.391   7.662 -0.5084 -0.0641  0.5894
   35CHL1    C8 2530   6.243   1.260   7.690  0.0072  0.2052 -0.3155
   35CHL1    H8 2531   6.352   1.241   7.685 -0.2512 -2.1306  1.6174
   35CHL1   C14 2532   6.210   1.274   7.838 -0.6670 -0.1409  0.2484
   35CHL1   H14 2533   6.099   1.276   7.833 -0.5777  0.8066 -2.3519
   35CHL1   C15 2534   6.252   1.403   7.909  0.1093 -0.4248  0.1972
   35CHL1  H15A 2535   6.358   1.424   7.886  0.9105 -1.9237  2.3501
   35CHL1  H15B 2536   6.174   1.479   7.887  1.3562  0.6744 -0.4468
   35CHL1   C16 2537   6.235   1.370   8.063  0.8469  0.5776  0.2137
   35CHL1  H16A 2538   6.330   1.404   8.110  2.3247 -1.1456 -1.4274
   35CHL1  H16B 2539   6.157   1.427   8.117 -0.8265 -2.6819  1.3217
   35CHL1   C17 2540   6.207   1.218   8.064  0.1206 -0.4800  0.2154
   35CHL1   H17 2541   6.096   1.216   8.066  0.1237  0.4870  2.3052
   35CHL1   C13 2542   6.258   1.157   7.929 -0.0889 -0.3987  0.2926
   35CHL1   C18 2543   6.414   1.146   7.932  0.0229  0.3246 -0.1696
   35CHL1  H18A 2544   6.451   1.053   7.980 -0.3585  0.4883  0.4437
   35CHL1  H18B 2545   6.454   1.139   7.829 -2.0756 -4.1303 -0.8059
   35CHL1  H18C 2546   6.459   1.235   7.981  2.0409 -0.1611 -1.0983
   35CHL1   C12 2547   6.198   1.028   7.872  0.2961  0.0238 -0.0181
   35CHL1  H12A 2548   6.240   0.936   7.917 -0.1731  0.3141  1.0177
   35CHL1  H12B 2549   6.091   1.043   7.899  0.6592  1.5635  0.6274
   35CHL1   C11 2550   6.230   1.018   7.721  0.5818 -0.5998 -0.4648
   35CHL1  H11A 2551   6.341   1.014   7.722  0.5809 -0.4412  2.1371
   35CHL1  H11B 2552   6.196   0.921   7.679 -3.0816  0.3183  0.1622
   35CHL1    C9 2553   6.180   1.138   7.633 -0.5945 -0.1027  0.3058
   35CHL1    H9 2554   6.070   1.149   7.633 -0.6322 -0.2505 -1.9882
   35CHL1   C10 2555   6.220   1.114   7.487  0.2557  0.2108 -0.6393
   35CHL1   C19 2556   6.363   1.071   7.484  0.7244 -1.2958  0.4814
   35CHL1  H19A 2557   6.406   1.098   7.385  0.5038 -0.8767  0.4998
   35CHL1  H19B 2558   6.427   1.115   7.563  2.4700 -2.1272 -0.4290
   35CHL1  H19C 2559   6.378   0.960   7.488  0.5392 -1.2264  4.7694
   35CHL1    C1 2560   6.129   1.005   7.421 -0.0107 -0.0691  0.2337
   35CHL1   H1A 2561   6.156   0.909   7.470  0.7316 -0.8327 -1.5996
   35CHL1   H1B 2562   6.018   1.014   7.428 -0.1659 -0.3167 -1.5334
   35CHL1    C2 2563   6.156   0.996   7.274 -0.4043  0.3659 -0.0095
   35CHL1   H2A 2564   6.090   0.918   7.230 -0.8121 -0.8599  2.6383
   35CHL1   H2B 2565   6.263   0.970   7.262 -0.3559 -0.4612  1.8932
   35CHL1   C20 2566   6.243   1.144   8.197 -0.0829  0.1529  0.7230
   35CHL1   H20 2567   6.342   1.095   8.197 -0.0676  0.1640 -0.2399
   35CHL1   C21 2568   6.149   1.019   8.189  0.1831 -0.7184  0.1889
   35CHL1  H21A 2569   6.161   0.963   8.284  1.0754 -2.5174 -0.9646
   35CHL1  H21B 2570   6.185   0.949   8.111  1.6026  0.3119 -0.0891
   35CHL1  H21C 2571   6.049   1.062   8.167 -0.0811 -2.2062 -1.6155
   35CHL1   C22 2572   6.214   1.202   8.336 -0.3477  0.0483 -0.3648
   35CHL1  H22A 2573   6.130   1.273   8.325 -0.1325  0.4855  0.7924
   35CHL1  H22B 2574   6.193   1.119   8.406 -1.5241 -0.9023 -1.7970
   35CHL1   C23 2575   6.316   1.297   8.401 -0.1655 -0.1975  0.0470
   35CHL1  H23A 2576   6.312   1.392   8.343 -1.2390 -0.0463  0.3631
   35CHL1  H23B 2577   6.270   1.311   8.501  0.1343 -0.0390  0.1627
   35CHL1   C24 2578   6.465   1.248   8.415  0.5438 -0.0450  0.1476
   35CHL1  H24A 2579   6.470   1.161   8.485  1.5696 -0.5978 -0.6010
   35CHL1  H24B 2580   6.502   1.216   8.315 -0.5911  0.9860 -0.6096
   35CHL1   C25 2581   6.567   1.355   8.470 -0.0109 -0.7960  0.3753
   35CHL1   H25 2582   6.587   1.430   8.390  0.9097 -0.1957  1.1537
   35CHL1   C26 2583   6.522   1.421   8.606 -0.1139 -0.1704  0.4943
   35CHL1  H26A 2584   6.448   1.496   8.571 -0.2919 -0.8632 -0.6509
   35CHL1  H26B 2585   6.480   1.342   8.672 -1.3900  0.6998  0.7377
   35CHL1  H26C 2586   6.596   1.487   8.658  0.9298 -1.1278  0.2467
   35CHL1   C27 2587   6.701   1.286   8.494 -0.2322  0.2617  0.1970
   35CHL1  H27A 2588   6.761   1.359   8.552 -0.6894  0.0566  0.9372
   35CHL1  H27B 2589   6.752   1.279   8.395 -0.2623  0.4757  0.1654
   35CHL1  H27C 2590   6.676   1.191   8.545 -0.0590 -0.3760 -0.8898
   36CHL1    C3 2591   0.197   0.256   7.026  0.7017  0.1636  0.0660
   36CHL1    H3 2592   0.166   0.356   7.065 -1.2700  0.2942 -1.7260
   36CHL1    O3 2593   0.203   0.257   6.880  0.0291  0.4927 -0.1703
   36CHL1   H3' 2594   0.274   0.194   6.865 -0.9329 -0.7330  0.3206
   36CHL1    C4 2595   0.339   0.215   7.074 -0.3459  0.1459 -0.4528
   36CHL1   H4A 2596   0.371   0.122   7.021 -0.4262 -0.9034  1.3060
   36CHL1   H4B 2597   0.408   0.297   7.045 -1.1339  0.6095 -1.0015
   36CHL1    C5 2598   0.335   0.194   7.223 -0.2970  0.5360  0.3481
   36CHL1    C6 2599   0.431   0.252   7.302 -0.2927  0.4694  0.4426
   36CHL1    H6 2600   0.513   0.309   7.257  1.5505  0.2897  3.4674
   36CHL1    C7 2601   0.445   0.225   7.446  0.3256  0.0014  0.3591
   36CHL1   H7A 2602   0.554   0.218   7.469  0.0272  0.6516  2.0285
   36CHL1   H7B 2603   0.412   0.313   7.505  1.2881  0.6695 -0.0831
   36CHL1    C8 2604   0.376   0.093   7.482  0.6410 -0.0122 -0.4129
   36CHL1    H8 2605   0.423   0.004   7.436 -1.8498 -0.7474 -1.6323
   36CHL1   C14 2606   0.367   0.081   7.637  0.0913 -0.0238 -0.4363
   36CHL1   H14 2607   0.297   0.165   7.657  2.1276  1.4332  0.7622
   36CHL1   C15 2608   0.488   0.111   7.726 -0.0915  0.8848  0.0110
   36CHL1  H15A 2609   0.576   0.058   7.683 -1.0273  0.5701 -1.5368
   36CHL1  H15B 2610   0.496   0.222   7.730 -2.1080  1.0736 -0.6371
   36CHL1   C16 2611   0.439   0.075   7.866 -0.3894 -0.2832 -0.6212
   36CHL1  H16A 2612   0.515   0.012   7.917 -0.3384  1.8254  2.0268
   36CHL1  H16B 2613   0.419   0.165   7.928 -2.6896  0.6335 -2.6032
   36CHL1   C17 2614   0.303   0.005   7.848  0.3656  0.4706 -0.5685
   36CHL1   H17 2615   0.226   0.085   7.859  0.0510  0.0345  0.5029
   36CHL1   C13 2616   0.295  -0.034   7.696  0.8073  0.9663  0.4651
   36CHL1   C18 2617   0.369  -0.163   7.675 -0.4683 -0.3238  0.3135
   36CHL1  H18A 2618   0.475  -0.163   7.709 -0.6080 -1.0076  0.7677
   36CHL1  H18B 2619   0.310  -0.242   7.727 -2.1701  1.0887  0.5544
   36CHL1  H18C 2620   0.380  -0.196   7.569 -0.8589 -0.5111  0.3283
   36CHL1   C12 2621   0.154  -0.045   7.638  0.5365  0.4010 -0.7710
   36CHL1  H12A 2622   0.105  -0.140   7.667  2.0651  0.0969  0.8502
   36CHL1  H12B 2623   0.098   0.033   7.695  0.5596  2.6855 -3.7306
   36CHL1   C11 2624   0.156  -0.036   7.482 -0.5036 -0.2103  0.2666
   36CHL1  H11A 2625   0.218  -0.124   7.453 -1.7630 -0.5290 -1.5243
   36CHL1  H11B 2626   0.054  -0.053   7.441  0.0295  0.8485 -1.5627
   36CHL1    C9 2627   0.233   0.089   7.428 -0.5010 -0.2151  0.7302
   36CHL1    H9 2628   0.186   0.180   7.470  2.6042  2.2927 -1.0073
   36CHL1   C10 2629   0.231   0.087   7.273 -0.1976 -0.3393  0.2071
   36CHL1   C19 2630   0.257  -0.056   7.210 -0.2507  0.3096  0.6328
   36CHL1  H19A 2631   0.179  -0.132   7.228 -0.3574  0.2343 -0.1256
   36CHL1  H19B 2632   0.269  -0.048   7.099 -0.3380 -0.1973  0.5883
   36CHL1  H19C 2633   0.354  -0.090   7.252  0.5893  1.6510 -0.1702
   36CHL1    C1 2634   0.090   0.131   7.223  0.3482  0.2950 -0.8225
   36CHL1   H1A 2635   0.021   0.045   7.236  1.3869 -0.2793  1.1417
   36CHL1   H1B 2636   0.048   0.214   7.284 -1.0219 -0.1485 -1.1489
   36CHL1    C2 2637   0.082   0.151   7.066  0.1055 -0.7517  0.1463
   36CHL1   H2A 2638  -0.017   0.187   7.029 -0.1952  0.9282  2.4286
   36CHL1   H2B 2639   0.109   0.055   7.017  0.8367  0.2825 -1.5431
   36CHL1   C20 2640   0.286  -0.094   7.969  0.4731 -0.0609 -0.8096
   36CHL1   H20 2641   0.357  -0.179   7.972 -0.5826 -0.9156  0.7509
   36CHL1   C21 2642   0.149  -0.153   7.960 -0.5126 -0.8653 -0.2020
   36CHL1  H21A 2643   0.076  -0.073   7.988 -0.9336 -0.4485 -2.4297
   36CHL1  H21B 2644   0.132  -0.242   8.024 -0.3057 -1.4714 -0.9874
   36CHL1  H21C 2645   0.122  -0.185   7.857 -1.1371  0.4293 -0.4513
   36CHL1   C22 2646   0.297  -0.014   8.110 -0.2990  0.2280  0.3852
   36CHL1  H22A 2647   0.397   0.032   8.125 -0.4640  0.3312  1.1679
   36CHL1  H22B 2648   0.218   0.064   8.120 -0.5726  0.0104 -0.0817
   36CHL1   C23 2649   0.282  -0.098   8.236 -0.3570 -0.6555 -0.4567
   36CHL1  H23A 2650   0.268  -0.019   8.313  0.0543 -1.0461  0.0151
   36CHL1  H23B 2651   0.183  -0.150   8.238 -0.6612 -0.0619  0.2408
   36CHL1   C24 2652   0.393  -0.203   8.277  0.2823  0.8926  0.4606
   36CHL1  H24A 2653   0.420  -0.283   8.205 -0.1525  1.7105 -0.6335
   36CHL1  H24B 2654   0.491  -0.152   8.286  0.1424  0.8247  2.6905
   36CHL1   C25 2655   0.358  -0.287   8.397 -0.4468  0.2912  0.0028
   36CHL1   H25 2656   0.453  -0.336   8.428 -0.4363  0.9529  1.0523
   36CHL1   C26 2657   0.303  -0.204   8.521  0.3524  0.4111  0.0854
   36CHL1  H26A 2658   0.372  -0.119   8.543 -0.7463  1.5452 -0.8309
   36CHL1  H26B 2659   0.200  -0.164   8.510 -0.4808 -1.8214 -0.5304
   36CHL1  H26C 2660   0.305  -0.266   8.614 -0.9672  0.4738  0.1622
   36CHL1   C27 2661   0.256  -0.398   8.364 -0.3786  0.0734 -0.0709
   36CHL1  H27A 2662   0.250  -0.466   8.452  2.8969  0.9994  0.9437
   36CHL1  H27B 2663   0.159  -0.349   8.342 -0.5873 -1.4076 -2.6039
   36CHL1  H27C 2664   0.290  -0.454   8.275  0.7068 -0.8321  0.8889
   37CHL1    C3 2665   3.842   2.872   6.987  0.3616 -0.1070  0.3536
   37CHL1    H3 2666   3.838   2.761   6.992 -0.8214 -0.1259 -0.6985
   37CHL1    O3 2667   3.895   2.917   6.867  0.0299  0.1541  0.2507
   37CHL1   H3' 2668   3.845   2.997   6.851 -0.0437  0.1328  0.3723
   37CHL1    C4 2669   3.699   2.926   7.026  0.0116  0.1974  0.2197
   37CHL1   H4A 2670   3.708   3.033   6.995  0.3861  0.1817  0.2724
   37CHL1   H4B 2671   3.631   2.886   6.948  0.8595  0.1985 -0.5195
   37CHL1    C5 2672   3.651   2.916   7.172 -0.9684 -0.7718  0.2340
   37CHL1    C6 2673   3.536   2.859   7.204  0.1564  0.0359  0.0550
   37CHL1    H6 2674   3.470   2.827   7.122 -0.3902  0.1844  0.4396
   37CHL1    C7 2675   3.480   2.835   7.346 -0.3381  0.4266  0.5337
   37CHL1   H7A 2676   3.383   2.887   7.356 -0.5613  0.2093 -0.4731
   37CHL1   H7B 2677   3.466   2.725   7.357 -0.2818  0.1888 -1.5221
   37CHL1    C8 2678   3.566   2.912   7.445 -0.8603 -0.5516 -0.0267
   37CHL1    H8 2679   3.548   3.022   7.439  2.0293  0.0672  1.7989
   37CHL1   C14 2680   3.541   2.864   7.587 -0.0029  0.1988 -0.5108
   37CHL1   H14 2681   3.584   2.762   7.591  1.4136  0.6658 -2.7994
   37CHL1   C15 2682   3.397   2.863   7.637  0.1042  0.2068 -0.2555
   37CHL1  H15A 2683   3.327   2.939   7.596  0.0506  1.4664  2.0882
   37CHL1  H15B 2684   3.356   2.761   7.619  1.6989 -0.1355 -2.0605
   37CHL1   C16 2685   3.404   2.874   7.787  0.4184  0.5966 -0.2187
   37CHL1  H16A 2686   3.349   2.961   7.829  0.8170  0.5117  0.5001
   37CHL1  H16B 2687   3.344   2.791   7.831  0.9838 -0.7449 -1.9631
   37CHL1   C17 2688   3.555   2.883   7.831 -0.2710 -1.0863  0.1251
   37CHL1   H17 2689   3.596   2.781   7.843  3.3934  0.3575  0.5270
   37CHL1   C13 2690   3.622   2.935   7.701  0.4114  0.1687  0.3895
   37CHL1   C18 2691   3.607   3.089   7.700  0.5110 -0.1647 -0.0278
   37CHL1  H18A 2692   3.625   3.142   7.604 -2.3024  1.8214  0.4744
   37CHL1  H18B 2693   3.507   3.116   7.740  0.0596 -1.1016 -0.5086
   37CHL1  H18C 2694   3.694   3.124   7.760  0.4971  0.7625 -0.5346
   37CHL1   C12 2695   3.764   2.901   7.672 -0.0354  0.3663 -0.5690
   37CHL1  H12A 2696   3.841   2.944   7.739 -0.5164 -1.7087  1.3755
   37CHL1  H12B 2697   3.782   2.792   7.682 -1.1314  0.2181 -0.0953
   37CHL1   C11 2698   3.815   2.936   7.527 -0.6054 -0.4559  0.4361
   37CHL1  H11A 2699   3.817   3.047   7.534 -3.1622 -0.3708  0.2272
   37CHL1  H11B 2700   3.921   2.911   7.505  0.2887  3.3872 -0.0039
   37CHL1    C9 2701   3.716   2.896   7.417  0.3710  0.5136  0.6131
   37CHL1    H9 2702   3.721   2.785   7.422  0.6591  0.4372 -1.0230
   37CHL1   C10 2703   3.756   2.948   7.279 -0.4964  0.8428  0.8787
   37CHL1   C19 2704   3.770   3.107   7.289  0.4069 -0.1600  0.5377
   37CHL1  H19A 2705   3.793   3.145   7.187 -3.6150  0.5778 -0.1891
   37CHL1  H19B 2706   3.667   3.147   7.302 -0.0098 -0.4062 -1.8013
   37CHL1  H19C 2707   3.842   3.143   7.365 -0.2117  2.3321 -0.0179
   37CHL1    C1 2708   3.894   2.897   7.231 -0.1979 -0.0475  0.2713
   37CHL1   H1A 2709   3.966   2.936   7.306 -0.3762  0.0025  0.4175
   37CHL1   H1B 2710   3.875   2.788   7.234 -1.4214  0.1961  2.0071
   37CHL1    C2 2711   3.944   2.922   7.089 -0.0619  0.5887 -0.1865
   37CHL1   H2A 2712   4.037   2.863   7.079 -1.4802 -1.8872  0.9405
   37CHL1   H2B 2713   3.958   3.031   7.071  0.6410  0.3469 -1.1753
   37CHL1   C20 2714   3.581   2.962   7.966  1.1526  0.3467 -0.2856
   37CHL1   H20 2715   3.558   3.069   7.949  1.4733  0.5346  0.4539
   37CHL1   C21 2716   3.725   2.946   8.013 -0.7359  0.4895  0.0548
   37CHL1  H21A 2717   3.799   2.999   7.949  1.2609 -2.2303  0.0308
   37CHL1  H21B 2718   3.747   2.837   8.012  2.9120  1.1685  0.1363
   37CHL1  H21C 2719   3.760   2.978   8.113 -2.5388 -1.1168  1.2349
   37CHL1   C22 2720   3.483   2.917   8.085  0.1649  0.3506  0.0306
   37CHL1  H22A 2721   3.478   2.806   8.082 -3.0601  0.4184  0.9015
   37CHL1  H22B 2722   3.534   2.951   8.178  2.6308 -2.0165 -0.3856
   37CHL1   C23 2723   3.336   2.971   8.085  0.2598  0.1269 -0.3667
   37CHL1  H23A 2724   3.326   3.076   8.049 -0.5082 -0.0847 -0.7860
   37CHL1  H23B 2725   3.278   2.901   8.021  1.4680 -0.1488 -1.1807
   37CHL1   C24 2726   3.259   2.946   8.216  0.5568 -0.2595  0.2752
   37CHL1  H24A 2727   3.162   2.898   8.190  1.3460 -0.5560 -2.2891
   37CHL1  H24B 2728   3.325   2.868   8.259  1.2688 -0.1540 -0.6118
   37CHL1   C25 2729   3.243   3.056   8.321 -0.0834 -1.0701  0.1097
   37CHL1   H25 2730   3.191   3.138   8.268 -1.1718 -0.3754  2.1912
   37CHL1   C26 2731   3.164   3.004   8.446 -0.3097 -0.0921 -0.5549
   37CHL1  H26A 2732   3.056   2.991   8.423  0.2909 -0.1457 -3.6516
   37CHL1  H26B 2733   3.201   2.905   8.481  1.0118 -0.3152 -2.4856
   37CHL1  H26C 2734   3.173   3.076   8.530 -1.7672  0.5750 -0.9628
   37CHL1   C27 2735   3.377   3.109   8.379  0.2964 -0.7184 -0.4419
   37CHL1  H27A 2736   3.353   3.193   8.447  3.0777  1.0774 -1.6097
   37CHL1  H27B 2737   3.422   3.023   8.433 -0.6879 -1.8782 -1.4280
   37CHL1  H27C 2738   3.444   3.137   8.296  1.3170 -0.2544  0.5353
   38CHL1    C3 2739   0.380   3.273   6.639 -0.0024  0.8278  0.1073
   38CHL1    H3 2740   0.285   3.224   6.668  0.0801  0.8085  0.3470
   38CHL1    O3 2741   0.351   3.298   6.499  0.4230 -0.6062 -0.7265
   38CHL1   H3' 2742   0.424   3.347   6.460  0.5666  0.6349  0.9836
   38CHL1    C4 2743   0.418   3.398   6.712  1.1849 -0.0431  0.0749
   38CHL1   H4A 2744   0.507   3.449   6.668 -0.0880 -1.1350 -3.9533
   38CHL1   H4B 2745   0.342   3.478   6.707  0.1018 -0.9647  1.4162
   38CHL1    C5 2746   0.451   3.366   6.850 -0.3523  0.1645  0.7683
   38CHL1    C6 2747   0.381   3.421   6.950 -0.1705  0.1786  0.3023
   38CHL1    H6 2748   0.309   3.500   6.922 -1.4498 -1.1278 -0.1652
   38CHL1    C7 2749   0.413   3.395   7.094 -0.0448 -0.0549  1.5062
   38CHL1   H7A 2750   0.390   3.481   7.160  0.1270 -0.5972  2.2944
   38CHL1   H7B 2751   0.341   3.320   7.134  0.5576 -1.9597 -0.8130
   38CHL1    C8 2752   0.552   3.321   7.125  0.1289 -0.2571 -0.2805
   38CHL1    H8 2753   0.640   3.387   7.110  0.2781 -0.0278  1.4918
   38CHL1   C14 2754   0.567   3.274   7.273  0.8122 -0.8101  0.2486
   38CHL1   H14 2755   0.498   3.189   7.288  0.2002 -0.4274 -0.3609
   38CHL1   C15 2756   0.554   3.387   7.370 -0.6681  0.1090 -0.4182
   38CHL1  H15A 2757   0.612   3.479   7.348 -0.7743 -0.1121 -1.6776
   38CHL1  H15B 2758   0.447   3.411   7.389 -0.0073  1.1770  2.0111
   38CHL1   C16 2759   0.619   3.328   7.486  0.2120  0.1107 -0.2153
   38CHL1  H16A 2760   0.687   3.405   7.530 -1.0372  0.0281  1.9416
   38CHL1  H16B 2761   0.547   3.300   7.566 -1.4719  1.6736 -1.1376
   38CHL1   C17 2762   0.686   3.191   7.443 -0.2456 -0.3451 -0.1542
   38CHL1   H17 2763   0.611   3.110   7.454  1.1017 -1.9055 -2.1975
   38CHL1   C13 2764   0.705   3.198   7.295 -0.5094 -0.1673 -0.1655
   38CHL1   C18 2765   0.824   3.295   7.261  0.6274 -0.5452  0.6719
   38CHL1  H18A 2766   0.817   3.390   7.317 -0.0384 -1.2016  1.7234
   38CHL1  H18B 2767   0.922   3.250   7.290  0.2139 -0.8403  1.6252
   38CHL1  H18C 2768   0.837   3.320   7.153 -1.2368 -0.5893  0.4166
   38CHL1   C12 2769   0.708   3.078   7.202 -0.2912 -0.7924  0.1262
   38CHL1  H12A 2770   0.803   3.024   7.225 -0.2312 -0.0211  1.8246
   38CHL1  H12B 2771   0.632   3.004   7.233  0.0694 -0.5096  1.7559
   38CHL1   C11 2772   0.683   3.111   7.049  0.4710 -0.1365 -0.0449
   38CHL1  H11A 2773   0.780   3.159   7.025  1.1060 -1.3966 -0.0447
   38CHL1  H11B 2774   0.677   3.014   6.996 -0.9327 -0.1128  0.0522
   38CHL1    C9 2775   0.564   3.206   7.019 -0.4812 -1.0160 -0.5417
   38CHL1    H9 2776   0.468   3.150   7.020 -1.6361  0.9093 -0.7605
   38CHL1   C10 2777   0.567   3.260   6.867 -0.3576  0.6716 -0.6127
   38CHL1   C19 2778   0.714   3.319   6.830  0.2462  0.3348 -0.0004
   38CHL1  H19A 2779   0.763   3.229   6.787  1.9073  0.9536  0.5694
   38CHL1  H19B 2780   0.704   3.391   6.746 -0.8140  1.9332  1.4847
   38CHL1  H19C 2781   0.764   3.351   6.924  0.2459  2.2832 -0.6487
   38CHL1    C1 2782   0.538   3.131   6.782  0.2305 -0.1758  0.5002
   38CHL1   H1A 2783   0.628   3.066   6.779  0.9556  0.8572 -0.9277
   38CHL1   H1B 2784   0.452   3.074   6.822 -0.3416  0.3641  0.0426
   38CHL1    C2 2785   0.497   3.164   6.642  0.1890  0.0585  0.1804
   38CHL1   H2A 2786   0.479   3.073   6.581 -0.8041  0.5991 -0.3568
   38CHL1   H2B 2787   0.584   3.213   6.592  1.2189 -0.8998  1.0352
   38CHL1   C20 2788   0.794   3.155   7.535 -0.1133 -0.3253 -0.1167
   38CHL1   H20 2789   0.878   3.215   7.494 -1.7971  1.9358 -0.3212
   38CHL1   C21 2790   0.828   3.000   7.524  0.5151  0.6908  0.2820
   38CHL1  H21A 2791   0.862   2.971   7.422 -2.3174  0.4174 -0.6050
   38CHL1  H21B 2792   0.745   2.938   7.562  0.2276  1.5901  1.1469
   38CHL1  H21C 2793   0.908   2.975   7.597  0.6113 -0.7567 -0.3139
   38CHL1   C22 2794   0.762   3.184   7.682 -0.1496 -0.4678  0.1099
   38CHL1  H22A 2795   0.730   3.289   7.697 -3.1127 -1.3479  0.1819
   38CHL1  H22B 2796   0.668   3.129   7.704 -0.8485  0.0109 -1.6116
   38CHL1   C23 2797   0.888   3.166   7.771 -0.7508  0.0673  0.8418
   38CHL1  H23A 2798   0.912   3.060   7.796  1.0392  0.4969  0.9927
   38CHL1  H23B 2799   0.981   3.212   7.733  0.0956 -2.5451 -0.3906
   38CHL1   C24 2800   0.857   3.215   7.917  0.4569  0.3581  0.5235
   38CHL1  H24A 2801   0.840   3.325   7.916 -1.6955  0.0392 -0.2845
   38CHL1  H24B 2802   0.758   3.178   7.950 -0.1286  1.6219  0.2169
   38CHL1   C25 2803   0.969   3.180   8.020 -0.3895 -0.2057 -0.3289
   38CHL1   H25 2804   0.948   3.075   8.048 -1.4885  0.0171 -0.2939
   38CHL1   C26 2805   1.114   3.191   7.963  0.5154 -0.2549  0.6121
   38CHL1  H26A 2806   1.186   3.186   8.048  0.3481  1.0107  0.8304
   38CHL1  H26B 2807   1.135   3.112   7.888  0.9418  0.7202 -0.3145
   38CHL1  H26C 2808   1.141   3.287   7.914  0.3354  0.4823  1.9281
   38CHL1   C27 2809   0.960   3.271   8.149  0.3696  0.5401  0.4613
   38CHL1  H27A 2810   0.993   3.374   8.122  0.6879  0.8638  2.0722
   38CHL1  H27B 2811   0.855   3.262   8.184  0.9082 -1.8584  1.5714
   38CHL1  H27C 2812   1.027   3.230   8.227 -0.3887 -0.2813  0.6824
   39CHL1    C3 2813   6.316   2.659   6.801 -0.3283 -0.7219  0.6187
   39CHL1    H3 2814   6.242   2.742   6.794  0.1833 -0.3624 -0.7153
   39CHL1    O3 2815   6.311   2.597   6.677  0.4170  0.2740 -0.0383
   39CHL1   H3' 2816   6.219   2.582   6.658  0.5404 -1.9611  0.9911
   39CHL1    C4 2817   6.462   2.713   6.817  0.0687  0.3490  0.7318
   39CHL1   H4A 2818   6.532   2.628   6.803 -0.4213  0.2279 -1.1181
   39CHL1   H4B 2819   6.471   2.791   6.738 -0.8142  0.9927  1.2547
   39CHL1    C5 2820   6.468   2.781   6.950 -0.2631 -0.0163  0.3636
   39CHL1    C6 2821   6.486   2.912   6.967  0.4508 -0.1076  0.0547
   39CHL1    H6 2822   6.501   2.977   6.879 -1.6617 -0.7576 -0.8239
   39CHL1    C7 2823   6.516   2.982   7.095 -0.1758 -0.7111  0.5759
   39CHL1   H7A 2824   6.611   3.030   7.062  0.2642 -0.5546  2.0414
   39CHL1   H7B 2825   6.447   3.068   7.109 -0.0238 -0.3994 -0.4986
   39CHL1    C8 2826   6.519   2.886   7.216  0.1559  0.9305 -0.3681
   39CHL1    H8 2827   6.613   2.829   7.202 -0.1542  0.6917 -1.6006
   39CHL1   C14 2828   6.500   2.961   7.345  0.4673  0.2799  0.1727
   39CHL1   H14 2829   6.397   3.002   7.347  0.4476  0.3447 -1.4344
   39CHL1   C15 2830   6.583   3.083   7.357  0.2362 -0.5041 -0.3636
   39CHL1  H15A 2831   6.686   3.064   7.319  1.0044 -0.2578  1.5680
   39CHL1  H15B 2832   6.538   3.170   7.303  0.9429  1.5833  2.3070
   39CHL1   C16 2833   6.580   3.114   7.506 -0.1406  0.0204  0.1734
   39CHL1  H16A 2834   6.681   3.117   7.553 -0.3693  3.2969  0.5562
   39CHL1  H16B 2835   6.519   3.202   7.536 -0.7508 -0.8111  1.4072
   39CHL1   C17 2836   6.499   3.003   7.575 -0.9604 -0.6335 -0.8572
   39CHL1   H17 2837   6.393   3.037   7.568 -0.3275  1.4167 -0.8758
   39CHL1   C13 2838   6.508   2.887   7.472 -0.2318  0.3128 -0.3967
   39CHL1   C18 2839   6.647   2.822   7.497 -0.1105  0.3255 -0.3910
   39CHL1  H18A 2840   6.672   2.761   7.408  0.0186  0.4684 -0.4523
   39CHL1  H18B 2841   6.728   2.898   7.502 -1.5511  1.8000  1.0377
   39CHL1  H18C 2842   6.640   2.756   7.586 -2.3849  0.2314 -0.6031
   39CHL1   C12 2843   6.402   2.773   7.465 -0.3736 -0.0866  0.5899
   39CHL1  H12A 2844   6.401   2.707   7.554  0.3659 -2.3074 -1.0096
   39CHL1  H12B 2845   6.309   2.834   7.452  0.0396  0.0067 -2.4195
   39CHL1   C11 2846   6.403   2.683   7.336 -0.0530  0.6235 -0.3858
   39CHL1  H11A 2847   6.487   2.612   7.350  1.8384  2.6882 -0.9764
   39CHL1  H11B 2848   6.302   2.638   7.321  0.0962  0.1956 -0.1106
   39CHL1    C9 2849   6.416   2.771   7.204 -0.3121 -0.4191  0.0524
   39CHL1    H9 2850   6.317   2.821   7.204 -0.1693 -0.1426 -0.1322
   39CHL1   C10 2851   6.433   2.692   7.068  0.1467  0.0022  0.1511
   39CHL1   C19 2852   6.532   2.581   7.087 -0.3476 -0.1959  0.0117
   39CHL1  H19A 2853   6.490   2.503   7.154  0.6575  0.9471  2.0366
   39CHL1  H19B 2854   6.562   2.522   6.998  1.4218  1.4108 -0.4970
   39CHL1  H19C 2855   6.624   2.609   7.142 -2.5666 -0.3680  3.9624
   39CHL1    C1 2856   6.298   2.624   7.045  0.3796  0.4603  0.3903
   39CHL1   H1A 2857   6.291   2.547   7.125 -0.4564  2.3924  2.1944
   39CHL1   H1B 2858   6.210   2.688   7.067  1.6110  1.9064  1.1761
   39CHL1    C2 2859   6.285   2.554   6.908  0.1672 -0.1729  0.7070
   39CHL1   H2A 2860   6.177   2.525   6.903 -0.0075 -0.3640  4.2530
   39CHL1   H2B 2861   6.356   2.469   6.914 -2.0820 -1.9766  2.5199
   39CHL1   C20 2862   6.537   2.985   7.727  0.5286 -0.1568 -0.2769
   39CHL1   H20 2863   6.644   2.956   7.736  0.4915 -0.1213  0.3289
   39CHL1   C21 2864   6.448   2.881   7.780 -0.3806 -0.9637 -0.5602
   39CHL1  H21A 2865   6.445   2.882   7.891 -3.4137 -0.7737 -0.6079
   39CHL1  H21B 2866   6.474   2.783   7.733 -1.7934 -0.6531 -2.0389
   39CHL1  H21C 2867   6.340   2.897   7.759  0.0137 -0.4069 -2.1837
   39CHL1   C22 2868   6.524   3.108   7.824 -0.8200  0.6913 -0.9060
   39CHL1  H22A 2869   6.559   3.200   7.773 -0.3282 -0.9550 -3.6335
   39CHL1  H22B 2870   6.418   3.116   7.854 -0.8218 -2.4604  0.0383
   39CHL1   C23 2871   6.601   3.096   7.959  0.1775  0.2914  0.2060
   39CHL1  H23A 2872   6.576   3.001   8.012 -1.2499  0.5911  0.0866
   39CHL1  H23B 2873   6.708   3.089   7.929  0.1104  2.0999 -0.4838
   39CHL1   C24 2874   6.589   3.209   8.052 -0.1344  0.3215  0.0820
   39CHL1  H24A 2875   6.578   3.300   7.989  0.0063 -0.0793 -0.5222
   39CHL1  H24B 2876   6.487   3.209   8.097 -0.3552  0.7235 -0.4149
   39CHL1   C25 2877   6.709   3.247   8.141 -0.0469  0.3230  0.0660
   39CHL1   H25 2878   6.796   3.262   8.074 -0.8014  0.6018 -0.8712
   39CHL1   C26 2879   6.677   3.383   8.197 -0.3621  0.3736 -0.0172
   39CHL1  H26A 2880   6.768   3.405   8.258 -0.1603 -2.4587  0.7631
   39CHL1  H26B 2881   6.669   3.465   8.123  0.1921 -0.2829 -0.8160
   39CHL1  H26C 2882   6.588   3.365   8.260 -2.7268  0.3487 -3.2608
   39CHL1   C27 2883   6.750   3.158   8.252 -0.6453  0.3595 -0.1997
   39CHL1  H27A 2884   6.799   3.069   8.207  1.2158 -0.4758  3.2963
   39CHL1  H27B 2885   6.823   3.211   8.316  3.5126 -2.4513 -2.3558
   39CHL1  H27C 2886   6.668   3.131   8.321  0.4068 -0.8946  0.5818
   40CHL1    C3 2887   2.567   2.178   6.935  0.0792 -0.4497 -1.1800
   40CHL1    H3 2888   2.555   2.086   6.995 -0.8567  2.5787  3.4625
   40CHL1    O3 2889   2.555   2.146   6.800  0.4743  0.2435 -0.0223
   40CHL1   H3' 2890   2.581   2.222   6.748 -3.3078  1.4103 -0.3674
   40CHL1    C4 2891   2.462   2.287   6.964  1.1757  0.1959 -0.3879
   40CHL1   H4A 2892   2.486   2.366   6.890 -2.6030  0.3241 -1.6071
   40CHL1   H4B 2893   2.360   2.246   6.949  1.9158 -1.4095 -1.2569
   40CHL1    C5 2894   2.473   2.341   7.108 -0.3293  0.5412  0.3531
   40CHL1    C6 2895   2.360   2.349   7.178  0.3222 -0.1214 -0.2131
   40CHL1    H6 2896   2.268   2.312   7.132  1.2079 -2.5493 -0.0782
   40CHL1    C7 2897   2.342   2.375   7.321  0.3968 -0.0442 -0.3868
   40CHL1   H7A 2898   2.265   2.453   7.339  1.2505  0.3054  1.8789
   40CHL1   H7B 2899   2.301   2.280   7.364 -1.5241  0.6921 -0.5213
   40CHL1    C8 2900   2.478   2.424   7.379 -0.1282  1.0558  0.6834
   40CHL1    H8 2901   2.489   2.531   7.350  0.1889  0.4962 -1.3733
   40CHL1   C14 2902   2.472   2.401   7.530 -0.1389  0.3761  0.4315
   40CHL1   H14 2903   2.457   2.291   7.539 -1.7509  0.4065 -1.5749
   40CHL1   C15 2904   2.353   2.473   7.601 -0.5581  0.4169  0.4191
   40CHL1  H15A 2905   2.333   2.571   7.553 -2.1860  0.4045  1.0239
   40CHL1  H15B 2906   2.256   2.419   7.593  0.0033 -0.4017 -1.1169
   40CHL1   C16 2907   2.409   2.478   7.745  0.4388 -0.3010  0.1905
   40CHL1  H16A 2908   2.412   2.585   7.772  1.2777 -0.6038  1.3493
   40CHL1  H16B 2909   2.335   2.417   7.802 -0.4518  0.0022 -0.6189
   40CHL1   C17 2910   2.554   2.410   7.747  0.3407  0.0631 -0.3807
   40CHL1   H17 2911   2.517   2.308   7.770 -1.0617  1.1855  2.5888
   40CHL1   C13 2912   2.603   2.431   7.608  0.7352 -0.5950  0.2821
   40CHL1   C18 2913   2.624   2.583   7.579 -1.1863  0.0300 -0.5800
   40CHL1  H18A 2914   2.542   2.650   7.612  1.0691  3.5221 -1.8271
   40CHL1  H18B 2915   2.714   2.615   7.636 -2.2200  1.3548  0.3394
   40CHL1  H18C 2916   2.657   2.591   7.473  3.1014  1.0377  0.6968
   40CHL1   C12 2917   2.718   2.345   7.552 -0.5152  0.0251 -0.3062
   40CHL1  H12A 2918   2.808   2.361   7.616 -1.4904 -0.0061  1.1094
   40CHL1  H12B 2919   2.691   2.237   7.552 -0.3574 -0.0457  1.9760
   40CHL1   C11 2920   2.737   2.361   7.405  0.0241  0.3654  0.2416
   40CHL1  H11A 2921   2.792   2.451   7.372  1.5128  0.2665  2.3340
   40CHL1  H11B 2922   2.797   2.274   7.369 -1.1707  0.1225 -1.2267
   40CHL1    C9 2923   2.603   2.339   7.325 -0.7069  0.4264 -0.7275
   40CHL1    H9 2924   2.581   2.231   7.334 -0.7060  0.2708 -2.3480
   40CHL1   C10 2925   2.618   2.362   7.171 -0.1393 -0.0684  0.1088
   40CHL1   C19 2926   2.669   2.508   7.132 -0.1400 -0.2094 -1.2153
   40CHL1  H19A 2927   2.675   2.523   7.022  0.7327  1.9594 -0.8962
   40CHL1  H19B 2928   2.598   2.582   7.174  1.2183  0.7502 -0.5867
   40CHL1  H19C 2929   2.770   2.526   7.174  0.3881 -4.3430 -0.5539
   40CHL1    C1 2930   2.728   2.262   7.108 -0.2384 -1.0339 -0.4716
   40CHL1   H1A 2931   2.828   2.307   7.128 -1.6947  1.8391  0.6586
   40CHL1   H1B 2932   2.721   2.172   7.173  0.1079  0.7016  2.0336
   40CHL1    C2 2933   2.707   2.238   6.959  0.3563 -0.5278  0.4343
   40CHL1   H2A 2934   2.788   2.173   6.922 -1.5068 -1.0108 -3.0032
   40CHL1   H2B 2935   2.706   2.334   6.903 -1.2919 -0.3360  0.7477
   40CHL1   C20 2936   2.651   2.447   7.866  0.0942 -0.0720  0.0828
   40CHL1   H20 2937   2.718   2.526   7.825  1.4803 -1.1590  0.2347
   40CHL1   C21 2938   2.739   2.322   7.898  0.1855 -0.2990 -0.0493
   40CHL1  H21A 2939   2.827   2.345   7.962 -3.0169  1.4193  3.9631
   40CHL1  H21B 2940   2.776   2.286   7.799  0.0380  1.4465 -0.7643
   40CHL1  H21C 2941   2.680   2.236   7.936 -4.0413  1.4417 -2.3205
   40CHL1   C22 2942   2.573   2.503   7.989 -0.6352  0.0226 -0.0557
   40CHL1  H22A 2943   2.517   2.598   7.971  0.4930  0.7901  0.4154
   40CHL1  H22B 2944   2.508   2.419   8.020 -1.7198  0.7062 -0.4191
   40CHL1   C23 2945   2.675   2.521   8.110  0.3619  0.9321 -0.1561
   40CHL1  H23A 2946   2.710   2.421   8.143 -0.4784  0.6771 -0.0392
   40CHL1  H23B 2947   2.772   2.562   8.072  0.8616  1.8534  2.0515
   40CHL1   C24 2948   2.625   2.611   8.219  0.0041  0.4463  0.3292
   40CHL1  H24A 2949   2.566   2.701   8.193 -0.8132 -0.0751  0.3940
   40CHL1  H24B 2950   2.558   2.543   8.274  2.0198 -2.1886 -0.3777
   40CHL1   C25 2951   2.732   2.666   8.315 -0.8874  0.6565  0.5899
   40CHL1   H25 2952   2.794   2.734   8.254 -0.2310 -1.3665 -1.0482
   40CHL1   C26 2953   2.660   2.754   8.421  0.1686 -0.2116 -0.1079
   40CHL1  H26A 2954   2.601   2.690   8.490 -3.3265  1.1893 -1.6474
   40CHL1  H26B 2955   2.729   2.810   8.488 -0.9051 -0.4371  1.1920
   40CHL1  H26C 2956   2.590   2.822   8.368  2.9437  2.9793  0.1154
   40CHL1   C27 2957   2.811   2.560   8.395 -0.0528  0.0478  0.2067
   40CHL1  H27A 2958   2.878   2.615   8.464  0.6236 -0.5476  0.0211
   40CHL1  H27B 2959   2.737   2.496   8.447  0.2987  0.7663  1.6020
   40CHL1  H27C 2960   2.864   2.487   8.330  0.8710  1.2326 -0.3906
   41CHL1    C3 2961   3.241   2.160   7.108  0.4151  0.2889 -0.4982
   41CHL1    H3 2962   3.229   2.266   7.140  0.0281  0.0310  0.2257
   41CHL1    O3 2963   3.280   2.160   6.971 -0.1541  0.1237 -0.7837
   41CHL1   H3' 2964   3.299   2.067   6.960  2.4720  0.4777  0.2944
   41CHL1    C4 2965   3.338   2.089   7.199  0.4350  0.1364 -0.6866
   41CHL1   H4A 2966   3.355   1.985   7.162 -3.4255 -1.1163  0.8440
   41CHL1   H4B 2967   3.440   2.134   7.200  0.7469 -0.5489  1.9914
   41CHL1    C5 2968   3.286   2.083   7.340  0.0538  0.1724  0.3130
   41CHL1    C6 2969   3.356   2.133   7.444  0.7065  0.2837  0.5856
   41CHL1    H6 2970   3.460   2.165   7.428  0.3670  2.7496  2.9911
   41CHL1    C7 2971   3.300   2.118   7.581 -0.4659 -0.5676 -0.1656
   41CHL1   H7A 2972   3.375   2.064   7.643 -1.3004  0.0356  1.3938
   41CHL1   H7B 2973   3.286   2.222   7.617 -1.2456  0.4267 -3.1883
   41CHL1    C8 2974   3.170   2.025   7.596  0.1650 -0.0491 -0.3268
   41CHL1    H8 2975   3.211   1.922   7.582 -2.0117 -0.8956 -0.6870
   41CHL1   C14 2976   3.113   2.039   7.738 -0.0268 -0.3377 -0.3701
   41CHL1   H14 2977   3.082   2.145   7.740  0.9537 -0.0487 -0.5291
   41CHL1   C15 2978   3.204   2.021   7.860 -0.4313  0.7084 -0.8764
   41CHL1  H15A 2979   3.266   1.932   7.838 -2.0882 -1.3423  2.3276
   41CHL1  H15B 2980   3.273   2.107   7.876  0.0600  0.0540  0.6288
   41CHL1   C16 2981   3.106   2.001   7.982  0.6425 -0.0941  0.7329
   41CHL1  H16A 2982   3.131   1.918   8.052  1.1186  0.5150  1.2834
   41CHL1  H16B 2983   3.094   2.088   8.050 -1.0250 -0.4612  0.9291
   41CHL1   C17 2984   2.959   1.985   7.919 -0.6158 -0.8349  0.0785
   41CHL1   H17 2985   2.912   2.085   7.919  3.6350  1.2376 -0.6130
   41CHL1   C13 2986   2.981   1.958   7.763 -0.0274  0.8880 -0.4143
   41CHL1   C18 2987   3.027   1.808   7.743 -0.3896  0.0251 -0.3652
   41CHL1  H18A 2988   2.940   1.740   7.734 -0.9683  0.4266  1.7565
   41CHL1  H18B 2989   3.085   1.796   7.649 -0.3927 -5.0777  0.1446
   41CHL1  H18C 2990   3.099   1.770   7.819  0.1015  2.9337  0.7054
   41CHL1   C12 2991   2.875   1.993   7.659 -0.5619 -0.9541  0.9053
   41CHL1  H12A 2992   2.791   1.921   7.670 -1.1867 -0.6297 -1.4290
   41CHL1  H12B 2993   2.843   2.098   7.676 -2.1568 -1.3226  0.2854
   41CHL1   C11 2994   2.931   1.984   7.511  0.4678 -0.6430  0.4101
   41CHL1  H11A 2995   2.933   1.881   7.470  1.4791  0.5173 -2.5709
   41CHL1  H11B 2996   2.853   2.044   7.460  0.2821 -0.4049  0.9696
   41CHL1    C9 2997   3.071   2.055   7.492  0.3453  1.2682 -0.0258
   41CHL1    H9 2998   3.045   2.161   7.513 -2.5371  0.1359  2.6250
   41CHL1   C10 2999   3.138   2.034   7.352  0.2662 -0.2646  0.2655
   41CHL1   C19 3000   3.143   1.883   7.328 -0.2744  0.7180 -0.1912
   41CHL1  H19A 3001   3.183   1.860   7.227  0.1514 -0.4318  0.2258
   41CHL1  H19B 3002   3.206   1.832   7.404 -2.4281 -3.0275 -0.7968
   41CHL1  H19C 3003   3.042   1.839   7.314  0.4903 -1.1539  0.0266
   41CHL1    C1 3004   3.049   2.104   7.248  0.0391 -0.3934 -0.0047
   41CHL1   H1A 3005   2.947   2.059   7.243 -0.2571  0.4341 -1.6027
   41CHL1   H1B 3006   3.033   2.209   7.283  1.3901 -0.4849  0.9248
   41CHL1    C2 3007   3.098   2.110   7.105 -0.3604 -0.1088  0.1027
   41CHL1   H2A 3008   3.032   2.172   7.040  0.5633  0.8024  0.0113
   41CHL1   H2B 3009   3.096   2.009   7.060 -0.5375  0.2055 -0.6175
   41CHL1   C20 3010   2.876   1.887   7.999  0.2205  1.0703  0.3408
   41CHL1   H20 3011   2.910   1.781   7.997 -2.9080  0.0555 -0.4997
   41CHL1   C21 3012   2.729   1.876   7.932 -0.4667  0.6440  0.2568
   41CHL1  H21A 3013   2.688   1.979   7.934  0.9093  1.2201  4.3687
   41CHL1  H21B 3014   2.664   1.806   7.988  1.0167 -0.8744  0.1399
   41CHL1  H21C 3015   2.745   1.828   7.833 -0.0272  0.9480  0.1774
   41CHL1   C22 3016   2.865   1.909   8.154  0.2428  0.0441 -0.1211
   41CHL1  H22A 3017   2.967   1.922   8.196 -0.3722  1.2237  1.0536
   41CHL1  H22B 3018   2.814   2.007   8.171  2.1995  1.1139 -0.2281
   41CHL1   C23 3019   2.816   1.785   8.236 -0.4601  0.0224 -0.1134
   41CHL1  H23A 3020   2.715   1.749   8.208 -0.3138 -0.1976 -0.3546
   41CHL1  H23B 3021   2.878   1.695   8.217 -0.2715 -0.4667  2.5429
   41CHL1   C24 3022   2.818   1.798   8.387 -0.6443  0.4999  0.3254
   41CHL1  H24A 3023   2.761   1.888   8.417 -1.3875  1.1895 -2.9470
   41CHL1  H24B 3024   2.768   1.713   8.438 -2.2151 -0.3643 -2.5538
   41CHL1   C25 3025   2.961   1.820   8.455  0.9683  0.0138  0.0096
   41CHL1   H25 3026   2.993   1.921   8.420  0.1268  0.8016  1.4444
   41CHL1   C26 3027   2.941   1.835   8.605 -1.0526 -0.1222 -0.4084
   41CHL1  H26A 3028   3.025   1.882   8.663 -3.1113 -2.0302  4.4141
   41CHL1  H26B 3029   2.865   1.909   8.639  0.2684  0.8794  0.4256
   41CHL1  H26C 3030   2.920   1.739   8.656 -0.7464  0.5679  1.0715
   41CHL1   C27 3031   3.063   1.712   8.423  0.1896 -0.1587 -0.3251
   41CHL1  H27A 3032   3.158   1.754   8.460  0.1190 -1.4248  1.3520
   41CHL1  H27B 3033   3.028   1.618   8.472 -0.2957  0.7671  1.1107
   41CHL1  H27C 3034   3.064   1.703   8.312 -1.8576  0.0421 -0.3961
   42CHL1    C3 3035   4.597   5.893   7.128  0.1481 -0.9988  0.0819
   42CHL1    H3 3036   4.585   5.994   7.084 -3.0158 -0.6409  1.6127
   42CHL1    O3 3037   4.593   5.793   7.027  0.1331  0.3565 -0.1164
   42CHL1   H3' 3038   4.677   5.793   6.980  0.0748 -1.8632 -0.2688
   42CHL1    C4 3039   4.728   5.866   7.202  0.5239  0.2495  1.0550
   42CHL1   H4A 3040   4.722   5.757   7.221  0.9740  0.3930  2.0407
   42CHL1   H4B 3041   4.804   5.880   7.122 -0.6955  0.9176 -0.0042
   42CHL1    C5 3042   4.744   5.956   7.320 -0.5113 -0.9418  0.3365
   42CHL1    C6 3043   4.847   6.043   7.333 -0.3989 -0.0968  0.0734
   42CHL1    H6 3044   4.924   6.058   7.255 -0.8333 -0.6063 -0.4612
   42CHL1    C7 3045   4.866   6.121   7.460  0.5342 -0.1564  0.0126
   42CHL1   H7A 3046   4.973   6.124   7.489  0.7600  2.0281 -0.9363
   42CHL1   H7B 3047   4.818   6.221   7.451 -0.8288 -0.6951  1.1218
   42CHL1    C8 3048   4.780   6.073   7.583  0.2203 -0.5179 -0.4179
   42CHL1    H8 3049   4.823   5.978   7.622 -0.6325 -0.6345  0.2440
   42CHL1   C14 3050   4.781   6.176   7.698 -0.0032 -0.5646  0.2487
   42CHL1   H14 3051   4.734   6.268   7.658  0.0510 -0.4498  0.4417
   42CHL1   C15 3052   4.921   6.228   7.740 -0.4912 -0.2345  0.1482
   42CHL1  H15A 3053   4.989   6.141   7.754 -0.6788 -0.6478 -1.3973
   42CHL1  H15B 3054   4.969   6.279   7.655 -0.6321 -1.7125 -0.8324
   42CHL1   C16 3055   4.895   6.305   7.867  0.2690 -0.2153 -0.5042
   42CHL1  H16A 3056   4.963   6.280   7.951  3.2314  1.8314 -2.2244
   42CHL1  H16B 3057   4.902   6.415   7.855  0.7799 -0.0111  1.4477
   42CHL1   C17 3058   4.742   6.275   7.907 -0.4662  0.4335 -0.0290
   42CHL1   H17 3059   4.673   6.351   7.864  2.1906  1.3673 -2.8278
   42CHL1   C13 3060   4.714   6.145   7.825  0.5276  0.0812  0.3161
   42CHL1   C18 3061   4.777   6.025   7.894 -0.0596 -0.4758  0.1050
   42CHL1  H18A 3062   4.875   6.063   7.932 -0.0480 -1.0046  0.6183
   42CHL1  H18B 3063   4.720   5.987   7.981  0.5735 -0.2745  0.6108
   42CHL1  H18C 3064   4.788   5.939   7.824 -2.0585 -0.8858  0.2751
   42CHL1   C12 3065   4.564   6.119   7.790  0.4640 -0.0324 -0.5620
   42CHL1  H12A 3066   4.497   6.081   7.870  1.3607  2.6354  1.5134
   42CHL1  H12B 3067   4.521   6.215   7.757 -2.1727 -1.1770 -0.5921
   42CHL1   C11 3068   4.546   6.015   7.672  0.2265  0.6734 -0.2544
   42CHL1  H11A 3069   4.587   5.919   7.712  0.2379  1.1012  0.7534
   42CHL1  H11B 3070   4.441   6.004   7.638  0.3772 -1.1758 -0.1954
   42CHL1    C9 3071   4.640   6.042   7.542  1.0186  0.3002  0.5135
   42CHL1    H9 3072   4.602   6.139   7.506 -0.3730  0.2566  1.8039
   42CHL1   C10 3073   4.634   5.935   7.430  0.1027 -0.4707  0.1190
   42CHL1   C19 3074   4.648   5.790   7.487  0.1410 -0.4697  0.5720
   42CHL1  H19A 3075   4.552   5.752   7.528  0.6302 -2.1875  0.1512
   42CHL1  H19B 3076   4.697   5.717   7.419 -3.1622 -0.8469 -1.5062
   42CHL1  H19C 3077   4.710   5.784   7.580  1.1458 -0.0116 -0.0563
   42CHL1    C1 3078   4.504   5.955   7.350  0.8624 -0.4830  0.0706
   42CHL1   H1A 3079   4.427   5.936   7.428  1.8055  0.5140  1.2633
   42CHL1   H1B 3080   4.492   6.062   7.323  0.6655 -0.3165  0.8055
   42CHL1    C2 3081   4.483   5.869   7.225  0.2343  0.9393  0.0493
   42CHL1   H2A 3082   4.392   5.893   7.165 -0.8446 -0.2636  1.1778
   42CHL1   H2B 3083   4.485   5.760   7.247  1.1890  0.7297 -1.0437
   42CHL1   C20 3084   4.719   6.270   8.061  0.2526  0.1375  0.0045
   42CHL1   H20 3085   4.775   6.184   8.102  0.3703  0.7571  1.1504
   42CHL1   C21 3086   4.571   6.245   8.093  0.9326 -0.1288 -0.7421
   42CHL1  H21A 3087   4.516   6.323   8.036  1.8111  0.8425 -0.2696
   42CHL1  H21B 3088   4.539   6.234   8.198 -1.8863 -0.6757 -1.6024
   42CHL1  H21C 3089   4.541   6.143   8.058 -1.2717  0.7369 -1.4841
   42CHL1   C22 3090   4.763   6.405   8.125  0.1120  0.7095  0.1325
   42CHL1  H22A 3091   4.819   6.476   8.062  1.2286  0.4013  0.7720
   42CHL1  H22B 3092   4.668   6.452   8.161 -1.9505 -2.3453 -1.0759
   42CHL1   C23 3093   4.855   6.383   8.251 -0.0678  0.6644 -0.8734
   42CHL1  H23A 3094   4.821   6.288   8.296  0.0004  0.8963 -0.3337
   42CHL1  H23B 3095   4.961   6.370   8.219 -0.2653 -2.3499 -0.4451
   42CHL1   C24 3096   4.850   6.498   8.351 -0.3194  0.0004  0.4461
   42CHL1  H24A 3097   4.871   6.596   8.302 -0.0491 -1.2117 -1.9200
   42CHL1  H24B 3098   4.747   6.507   8.393 -0.7757 -0.9489 -0.4431
   42CHL1   C25 3099   4.950   6.493   8.470  0.1720  0.1066  0.3964
   42CHL1   H25 3100   4.933   6.391   8.511  1.0288  1.0207  3.1790
   42CHL1   C26 3101   5.097   6.508   8.436  0.0415 -0.2832 -0.1335
   42CHL1  H26A 3102   5.117   6.608   8.393 -0.9009  0.4880  1.1906
   42CHL1  H26B 3103   5.158   6.485   8.526 -1.9059  2.1154  1.8634
   42CHL1  H26C 3104   5.131   6.445   8.351 -0.3553  0.8283 -1.1275
   42CHL1   C27 3105   4.915   6.602   8.567  0.4327 -0.7831  0.2673
   42CHL1  H27A 3106   4.983   6.605   8.656 -0.4574  0.8559  0.9010
   42CHL1  H27B 3107   4.809   6.604   8.600  0.4850 -3.6564  0.8146
   42CHL1  H27C 3108   4.932   6.693   8.507  3.6451 -1.3417  0.2252
   43CHL1    C3 3109   4.647   2.769   6.895 -0.5691 -0.3218  0.3435
   43CHL1    H3 3110   4.753   2.737   6.905 -0.5680 -0.3717  0.1727
   43CHL1    O3 3111   4.607   2.765   6.763  0.3746 -0.4050  0.7937
   43CHL1   H3' 3112   4.626   2.671   6.751 -1.3342 -0.5673 -0.8716
   43CHL1    C4 3113   4.563   2.668   6.977 -0.5679  0.3843 -0.3862
   43CHL1   H4A 3114   4.454   2.685   6.968 -0.7189  0.5872  1.5798
   43CHL1   H4B 3115   4.576   2.570   6.925 -0.2930  0.9768 -1.4592
   43CHL1    C5 3116   4.586   2.677   7.126 -0.3053 -0.5885 -0.0784
   43CHL1    C6 3117   4.615   2.568   7.201  0.7219  0.6510  0.5290
   43CHL1    H6 3118   4.611   2.470   7.151 -0.4683  1.7747 -1.6784
   43CHL1    C7 3119   4.626   2.568   7.348 -0.0353 -0.4980  0.5960
   43CHL1   H7A 3120   4.588   2.474   7.394  1.1271 -0.5556  1.4719
   43CHL1   H7B 3121   4.732   2.563   7.378  0.2720  0.3166 -0.3307
   43CHL1    C8 3122   4.569   2.697   7.414  0.0680  0.1645 -0.9681
   43CHL1    H8 3123   4.458   2.702   7.415  0.0768  0.2736 -0.1812
   43CHL1   C14 3124   4.613   2.704   7.555 -0.0805 -0.0651 -0.5998
   43CHL1   H14 3125   4.723   2.687   7.559 -0.2000 -0.3728  2.1577
   43CHL1   C15 3126   4.567   2.601   7.655 -0.0588  0.3986 -0.5172
   43CHL1  H15A 3127   4.456   2.591   7.659 -0.0833  0.2422 -1.4438
   43CHL1  H15B 3128   4.606   2.498   7.637 -1.3211  0.0415 -1.2873
   43CHL1   C16 3129   4.598   2.659   7.791  0.1737  0.2358 -0.3767
   43CHL1  H16A 3130   4.518   2.650   7.867 -0.1625  3.3268 -0.3052
   43CHL1  H16B 3131   4.689   2.611   7.832  0.4634  0.6534 -0.5234
   43CHL1   C17 3132   4.631   2.805   7.766 -0.9280 -0.0926  0.3800
   43CHL1   H17 3133   4.740   2.823   7.761 -1.4160  2.6475 -1.1501
   43CHL1   C13 3134   4.585   2.839   7.621 -0.0216 -0.4861 -0.2248
   43CHL1   C18 3135   4.426   2.853   7.629 -0.6994 -0.1693 -0.0527
   43CHL1  H18A 3136   4.371   2.779   7.691 -1.1649 -0.4362 -0.7831
   43CHL1  H18B 3137   4.403   2.955   7.667  2.6935  0.3901  0.6898
   43CHL1  H18C 3138   4.382   2.848   7.527 -1.6245 -0.1184  0.3417
   43CHL1   C12 3139   4.646   2.959   7.550 -0.7802  0.2567 -1.0370
   43CHL1  H12A 3140   4.611   3.051   7.602  0.1954  0.8658 -1.4390
   43CHL1  H12B 3141   4.757   2.961   7.561 -0.9476 -1.2139  1.1862
   43CHL1   C11 3142   4.601   2.958   7.404  0.0674 -0.8921 -0.4048
   43CHL1  H11A 3143   4.497   2.992   7.387 -0.3515 -0.4797  2.7600
   43CHL1  H11B 3144   4.674   3.026   7.355 -1.2396  0.9753  0.2260
   43CHL1    C9 3145   4.618   2.823   7.334  0.3700  0.2492 -0.0594
   43CHL1    H9 3146   4.728   2.807   7.335  0.4762  0.6737 -2.4436
   43CHL1   C10 3147   4.567   2.821   7.184  0.3910 -0.3436 -0.4952
   43CHL1   C19 3148   4.418   2.850   7.178 -0.0984  0.8351  0.1446
   43CHL1  H19A 3149   4.366   2.783   7.249 -3.8471  0.8819 -2.4114
   43CHL1  H19B 3150   4.399   2.953   7.217 -2.8549 -0.0349  1.1664
   43CHL1  H19C 3151   4.380   2.831   7.076 -0.2896 -0.9349  0.5282
   43CHL1    C1 3152   4.644   2.932   7.106  0.4690  0.1133  0.3058
   43CHL1   H1A 3153   4.604   3.033   7.132 -2.2249 -0.1666 -2.4851
   43CHL1   H1B 3154   4.752   2.921   7.126  0.3781 -0.0929  0.6882
   43CHL1    C2 3155   4.629   2.914   6.951 -0.4289  0.0065  1.1589
   43CHL1   H2A 3156   4.712   2.977   6.914  0.2538 -0.8273  1.2550
   43CHL1   H2B 3157   4.531   2.951   6.915 -0.9267 -3.0304 -0.8372
   43CHL1   C20 3158   4.582   2.902   7.885 -0.7678 -0.2109  0.5739
   43CHL1   H20 3159   4.472   2.897   7.897 -1.0321  0.1123 -1.5378
   43CHL1   C21 3160   4.615   3.051   7.861  0.3579 -0.3545  0.3562
   43CHL1  H21A 3161   4.723   3.071   7.842 -0.0818  2.0273  0.2481
   43CHL1  H21B 3162   4.589   3.116   7.948 -1.5330  0.5544 -0.8611
   43CHL1  H21C 3163   4.551   3.093   7.781  0.3535 -0.4241  0.3238
   43CHL1   C22 3164   4.652   2.855   8.017  0.2620 -0.3648  0.1872
   43CHL1  H22A 3165   4.686   2.750   8.016  0.7639 -0.2142 -1.2766
   43CHL1  H22B 3166   4.739   2.920   8.038 -0.3955 -0.1315  2.3113
   43CHL1   C23 3167   4.562   2.866   8.134 -0.3424 -0.2438 -0.0171
   43CHL1  H23A 3168   4.526   2.968   8.157 -0.3999  0.1354 -1.7281
   43CHL1  H23B 3169   4.476   2.795   8.132 -0.1004 -0.4927 -2.3760
   43CHL1   C24 3170   4.645   2.825   8.252 -0.4283 -0.2815 -0.1283
   43CHL1  H24A 3171   4.715   2.743   8.226  1.1228  0.5291  1.4170
   43CHL1  H24B 3172   4.699   2.918   8.280 -2.4968 -0.0419  3.3970
   43CHL1   C25 3173   4.579   2.784   8.380 -0.4967  0.1050 -0.7121
   43CHL1   H25 3174   4.525   2.693   8.350 -0.8657 -1.2264  3.6120
   43CHL1   C26 3175   4.679   2.726   8.488 -0.1540  0.2446 -1.0728
   43CHL1  H26A 3176   4.764   2.682   8.432  1.2462 -0.9040  1.8424
   43CHL1  H26B 3177   4.721   2.806   8.553  0.7041  0.0357 -1.3666
   43CHL1  H26C 3178   4.619   2.657   8.551  0.3605  0.5708 -0.2002
   43CHL1   C27 3179   4.481   2.889   8.427 -0.5796  0.1987 -0.4670
   43CHL1  H27A 3180   4.437   2.850   8.521 -0.6745 -1.8779 -1.3564
   43CHL1  H27B 3181   4.537   2.981   8.456 -0.1658  0.2371 -1.3598
   43CHL1  H27C 3182   4.398   2.908   8.356 -0.5503  1.8204 -0.0962
   44CHL1    C3 3183   3.942   1.345   6.593 -0.2000 -0.5868  0.0322
   44CHL1    H3 3184   3.833   1.368   6.603 -0.4450 -1.4292 -0.6410
   44CHL1    O3 3185   3.971   1.334   6.451  0.1939  0.1008 -0.1231
   44CHL1   H3' 3186   3.937   1.249   6.422  0.2072  0.3093 -0.7472
   44CHL1    C4 3187   4.026   1.458   6.653  0.2121 -0.7095  0.0699
   44CHL1   H4A 3188   4.132   1.437   6.629  0.5973 -3.2212  3.6329
   44CHL1   H4B 3189   4.001   1.550   6.595 -1.3898 -0.7299  0.6856
   44CHL1    C5 3190   4.025   1.476   6.808 -0.7362 -0.0601 -0.1060
   44CHL1    C6 3191   3.991   1.596   6.863  0.3248 -0.1063  0.5232
   44CHL1    H6 3192   3.966   1.685   6.803  0.6822  0.8967  1.8251
   44CHL1    C7 3193   3.976   1.608   7.012  0.6258 -0.0562 -0.8220
   44CHL1   H7A 3194   4.002   1.712   7.043  2.6348 -0.9302  0.5112
   44CHL1   H7B 3195   3.868   1.605   7.038  0.8690  1.1779  0.3560
   44CHL1    C8 3196   4.052   1.505   7.099  0.5892 -0.4252  0.4772
   44CHL1    H8 3197   4.162   1.523   7.091  0.3424  0.5907 -0.6920
   44CHL1   C14 3198   4.013   1.512   7.246 -0.1191 -0.9589 -0.5187
   44CHL1   H14 3199   3.904   1.489   7.252  0.0776 -1.7651  0.1593
   44CHL1   C15 3200   4.028   1.650   7.320  0.3507  0.1753  0.6307
   44CHL1  H15A 3201   4.124   1.699   7.292 -0.4003  1.0115 -0.5570
   44CHL1  H15B 3202   3.950   1.718   7.280 -0.7101 -1.1475  0.4228
   44CHL1   C16 3203   4.017   1.608   7.465 -0.4200 -0.0384  0.3798
   44CHL1  H16A 3204   4.110   1.637   7.517 -1.5921  2.2759  1.2235
   44CHL1  H16B 3205   3.928   1.654   7.514  1.0467  2.3331  0.8460
   44CHL1   C17 3206   4.003   1.450   7.462 -0.1470  0.1142 -0.6818
   44CHL1   H17 3207   3.896   1.422   7.460 -0.5931  1.7078  0.0551
   44CHL1   C13 3208   4.071   1.407   7.334  0.1734 -0.2301 -0.8078
   44CHL1   C18 3209   4.229   1.411   7.340  0.1713  0.1530 -0.1609
   44CHL1  H18A 3210   4.275   1.338   7.410  0.4786  2.4106  2.0427
   44CHL1  H18B 3211   4.265   1.380   7.240 -2.2136  0.9373 -1.3148
   44CHL1  H18C 3212   4.262   1.508   7.382 -3.4530  1.7082 -0.6509
   44CHL1   C12 3213   4.018   1.272   7.281  0.5605  0.2218 -0.7714
   44CHL1  H12A 3214   4.034   1.170   7.323 -2.2445  0.2181  0.4224
   44CHL1  H12B 3215   3.907   1.278   7.277  0.5811  0.6599 -0.6824
   44CHL1   C11 3216   4.056   1.254   7.133  0.0098  1.1624  0.3417
   44CHL1  H11A 3217   4.165   1.235   7.132  0.0210  1.1051 -2.3345
   44CHL1  H11B 3218   4.008   1.160   7.098  1.4462  1.0487 -1.4310
   44CHL1    C9 3219   4.017   1.365   7.038 -0.0405 -0.5343 -0.3493
   44CHL1    H9 3220   3.906   1.373   7.041  0.0375  0.3284  0.5015
   44CHL1   C10 3221   4.058   1.347   6.893  0.3317 -0.3545 -0.1553
   44CHL1   C19 3222   4.211   1.304   6.889 -0.1582 -0.0682 -0.2465
   44CHL1  H19A 3223   4.247   1.289   6.784 -1.7268 -0.4019 -0.7490
   44CHL1  H19B 3224   4.269   1.382   6.943  0.0483 -1.7851  2.0740
   44CHL1  H19C 3225   4.224   1.206   6.939  0.2823  0.3389  0.4331
   44CHL1    C1 3226   3.979   1.228   6.820 -0.2188 -0.6972  0.1184
   44CHL1   H1A 3227   3.997   1.132   6.873 -1.4757 -1.6910 -1.2171
   44CHL1   H1B 3228   3.872   1.242   6.847 -0.7540 -2.0827 -1.2377
   44CHL1    C2 3229   3.983   1.218   6.664  0.1040 -0.4501  0.5042
   44CHL1   H2A 3230   3.915   1.136   6.635 -1.4133  0.9519  0.0018
   44CHL1   H2B 3231   4.084   1.181   6.636  0.0076 -1.8166  1.9261
   44CHL1   C20 3232   4.063   1.384   7.594 -0.6346  0.4806 -0.4535
   44CHL1   H20 3233   4.173   1.370   7.588 -0.5577  1.8329 -2.6604
   44CHL1   C21 3234   3.988   1.251   7.621  0.7133  0.0286 -0.2835
   44CHL1  H21A 3235   3.987   1.180   7.535 -0.5295  0.9267 -1.0242
   44CHL1  H21B 3236   3.885   1.266   7.661  0.4265 -4.2057  0.8483
   44CHL1  H21C 3237   4.052   1.200   7.696  0.7267  0.5688  0.0736
   44CHL1   C22 3238   4.031   1.472   7.723 -0.6399 -0.2594  0.7573
   44CHL1  H22A 3239   4.079   1.572   7.719 -0.3333 -0.3970  0.9402
   44CHL1  H22B 3240   3.924   1.501   7.720 -0.4441  0.3428 -2.1318
   44CHL1   C23 3241   4.054   1.417   7.862  0.4774  0.1573  0.4739
   44CHL1  H23A 3242   4.009   1.316   7.867  0.5681  0.0643 -0.4344
   44CHL1  H23B 3243   4.163   1.407   7.882  0.4703  0.6494  0.7633
   44CHL1   C24 3244   4.008   1.510   7.972  0.0010  0.1509 -0.5595
   44CHL1  H24A 3245   4.075   1.598   7.979 -2.6841  2.3757 -2.1044
   44CHL1  H24B 3246   3.910   1.551   7.941 -1.4321 -1.3831  1.7991
   44CHL1   C25 3247   3.993   1.433   8.105  0.3909 -0.2674  0.3558
   44CHL1   H25 3248   3.931   1.345   8.078  0.1458 -0.7247  2.3447
   44CHL1   C26 3249   4.128   1.387   8.163 -0.2473 -0.3641  0.1036
   44CHL1  H26A 3250   4.183   1.327   8.088 -1.5347  0.5848 -1.6266
   44CHL1  H26B 3251   4.189   1.471   8.202  1.8322 -1.3413 -0.9809
   44CHL1  H26C 3252   4.104   1.321   8.249 -1.7734 -1.1730 -0.9343
   44CHL1   C27 3253   3.922   1.519   8.218 -0.2253 -0.2716  0.5780
   44CHL1  H27A 3254   3.926   1.461   8.312 -0.6335 -1.3251 -0.0411
   44CHL1  H27B 3255   3.962   1.622   8.222 -1.6935  0.2543  2.2269
   44CHL1  H27C 3256   3.815   1.528   8.190  0.1209 -1.5563 -1.2870
   45CHL1    C3 3257   5.245   6.494   6.649 -0.5918 -0.6229  0.4241
   45CHL1    H3 3258   5.239   6.601   6.679  2.1063 -0.0111 -1.0578
   45CHL1    O3 3259   5.208   6.473   6.514  0.6034 -0.0161 -0.4064
   45CHL1   H3' 3260   5.192   6.379   6.501  0.5904 -0.2075  0.9501
   45CHL1    C4 3261   5.384   6.428   6.672  0.4810  0.4534 -0.6467
   45CHL1   H4A 3262   5.379   6.324   6.635  1.2802 -0.1669  0.9356
   45CHL1   H4B 3263   5.460   6.486   6.616 -0.5866  0.8625 -1.6943
   45CHL1    C5 3264   5.421   6.439   6.823 -0.3720 -0.4685 -0.2341
   45CHL1    C6 3265   5.531   6.504   6.864  0.0502  0.3370 -0.0597
   45CHL1    H6 3266   5.602   6.531   6.785  0.2954 -0.0168  0.0413
   45CHL1    C7 3267   5.579   6.506   7.006  0.2289 -0.2218  0.4508
   45CHL1   H7A 3268   5.680   6.464   7.022 -1.1455 -4.3224 -1.1170
   45CHL1   H7B 3269   5.578   6.610   7.047  2.0762  0.0559 -0.1615
   45CHL1    C8 3270   5.491   6.420   7.106 -0.0774 -0.0696  0.9431
   45CHL1    H8 3271   5.530   6.317   7.091  1.0187  0.4876 -0.1188
   45CHL1   C14 3272   5.504   6.465   7.250  0.3017 -0.2700 -0.1652
   45CHL1   H14 3273   5.443   6.558   7.256  0.0978 -0.4553  0.7078
   45CHL1   C15 3274   5.648   6.508   7.307  0.1391  0.3874  0.0562
   45CHL1  H15A 3275   5.719   6.430   7.273 -0.9257 -0.5326 -0.0702
   45CHL1  H15B 3276   5.678   6.609   7.270  0.8109 -0.5546 -2.0306
   45CHL1   C16 3277   5.621   6.503   7.463  0.3381 -0.5125  0.0073
   45CHL1  H16A 3278   5.697   6.435   7.509 -0.3474 -0.8375  0.6607
   45CHL1  H16B 3279   5.622   6.603   7.511 -1.5850  0.4989 -1.9965
   45CHL1   C17 3280   5.480   6.447   7.483  0.0260  0.3113 -0.6170
   45CHL1   H17 3281   5.410   6.532   7.469 -2.3620 -1.4250  0.3978
   45CHL1   C13 3282   5.446   6.376   7.356 -0.0381  0.0145  0.5424
   45CHL1   C18 3283   5.522   6.242   7.359 -0.4219  0.4502  0.0246
   45CHL1  H18A 3284   5.631   6.254   7.373  0.0903 -2.1691 -1.3214
   45CHL1  H18B 3285   5.484   6.172   7.437 -1.7377 -0.8124 -1.7081
   45CHL1  H18C 3286   5.509   6.183   7.265  0.4350  2.7955 -1.5984
   45CHL1   C12 3287   5.299   6.355   7.318 -0.5852 -0.5096  0.1480
   45CHL1  H12A 3288   5.265   6.266   7.375  0.0787 -1.6869 -1.2503
   45CHL1  H12B 3289   5.236   6.443   7.344 -0.5301 -0.4687  0.1410
   45CHL1   C11 3290   5.278   6.324   7.166  0.6051  0.4951 -0.0587
   45CHL1  H11A 3291   5.308   6.218   7.150 -1.1591  0.1994 -1.5901
   45CHL1  H11B 3292   5.169   6.338   7.148  0.5615 -0.0642 -0.2621
   45CHL1    C9 3293   5.348   6.422   7.068 -0.3954  0.5929 -0.2598
   45CHL1    H9 3294   5.308   6.524   7.085 -0.8993  0.3407  0.0428
   45CHL1   C10 3295   5.321   6.382   6.918  0.1036 -0.3266 -0.1961
   45CHL1   C19 3296   5.340   6.229   6.895 -0.3082  0.1944 -0.0798
   45CHL1  H19A 3297   5.326   6.202   6.788 -0.1358 -2.0649  0.4515
   45CHL1  H19B 3298   5.437   6.185   6.925  0.0825  1.0275 -0.1198
   45CHL1  H19C 3299   5.247   6.186   6.937  0.4886  0.5643  2.1343
   45CHL1    C1 3300   5.176   6.419   6.884 -0.2066  0.2883  0.2067
   45CHL1   H1A 3301   5.103   6.360   6.943  0.6235 -1.4529 -0.4611
   45CHL1   H1B 3302   5.164   6.525   6.916 -3.1516  0.6766 -1.9934
   45CHL1    C2 3303   5.153   6.411   6.732  0.6699  0.0616 -0.2234
   45CHL1   H2A 3304   5.053   6.447   6.697  0.7182 -0.4482 -0.9009
   45CHL1   H2B 3305   5.165   6.305   6.701 -0.8698  0.3657 -1.9979
   45CHL1   C20 3306   5.457   6.379   7.620 -0.0960  0.0139 -0.5033
   45CHL1   H20 3307   5.498   6.276   7.619 -1.9930 -0.7603 -0.7571
   45CHL1   C21 3308   5.304   6.372   7.656  0.1030  0.0511  0.4723
   45CHL1  H21A 3309   5.266   6.267   7.652 -2.4664  0.8990  1.2132
   45CHL1  H21B 3310   5.241   6.426   7.581  1.5300 -0.0444 -0.8269
   45CHL1  H21C 3311   5.287   6.415   7.757  0.9639 -1.4593  1.2640
   45CHL1   C22 3312   5.531   6.459   7.732  0.1002 -0.4602  0.0352
   45CHL1  H22A 3313   5.639   6.454   7.704  0.1889 -4.4487  0.8498
   45CHL1  H22B 3314   5.500   6.566   7.727 -0.2772 -0.6089 -1.1774
   45CHL1   C23 3315   5.510   6.418   7.874 -1.2323 -0.6556  0.0285
   45CHL1  H23A 3316   5.407   6.442   7.910 -0.8861  2.3775 -0.7991
   45CHL1  H23B 3317   5.537   6.311   7.872  0.4385 -0.2576  0.3231
   45CHL1   C24 3318   5.602   6.492   7.972  0.4555  0.5137  1.2220
   45CHL1  H24A 3319   5.706   6.491   7.931 -0.2848  0.2458 -0.7269
   45CHL1  H24B 3320   5.585   6.601   7.972 -1.0727  0.2925  0.3572
   45CHL1   C25 3321   5.594   6.433   8.119 -0.8529 -0.0368  0.0718
   45CHL1   H25 3322   5.608   6.324   8.108 -1.2433  0.0200 -1.0305
   45CHL1   C26 3323   5.702   6.488   8.213  0.4545  0.1934 -0.2029
   45CHL1  H26A 3324   5.707   6.599   8.213  1.2663  0.1545  0.2364
   45CHL1  H26B 3325   5.695   6.453   8.318  1.7400 -0.2291 -0.2549
   45CHL1  H26C 3326   5.804   6.478   8.168  0.0294  1.7679 -1.5947
   45CHL1   C27 3327   5.456   6.470   8.175 -0.4547  0.3717  0.5721
   45CHL1  H27A 3328   5.438   6.409   8.266 -0.4308 -2.5140 -1.3136
   45CHL1  H27B 3329   5.457   6.579   8.199  1.7450  0.4942  0.0728
   45CHL1  H27C 3330   5.380   6.438   8.101  1.6765 -1.9648 -0.6749
   46CHL1    C3 3331   5.124   1.094   7.068  0.0012  0.3205  0.4738
   46CHL1    H3 3332   5.204   1.167   7.093  1.4206 -0.6109 -1.1772
   46CHL1    O3 3333   5.116   1.085   6.923  0.7609  0.3726  0.5461
   46CHL1   H3' 3334   5.199   1.046   6.896  0.1319 -1.1765  0.7705
   46CHL1    C4 3335   5.158   0.960   7.133 -0.1307  0.2063 -0.8706
   46CHL1   H4A 3336   5.087   0.886   7.092 -3.4658  1.7020  1.9302
   46CHL1   H4B 3337   5.258   0.928   7.097 -0.2868  0.2534 -1.3562
   46CHL1    C5 3338   5.172   0.972   7.283 -0.3526  0.9775  0.3153
   46CHL1    C6 3339   5.281   0.936   7.354 -0.0695  0.3994 -0.0516
   46CHL1    H6 3340   5.372   0.896   7.306  0.6982  0.2619  1.4772
   46CHL1    C7 3341   5.290   0.943   7.504 -0.0268  0.3590 -0.3976
   46CHL1   H7A 3342   5.330   0.847   7.544  0.6463  0.4596 -0.8257
   46CHL1   H7B 3343   5.363   1.025   7.524 -0.0650 -0.0739  1.5892
   46CHL1    C8 3344   5.156   0.965   7.578 -0.7821 -0.2487 -0.8186
   46CHL1    H8 3345   5.089   0.877   7.575 -0.0954 -0.8649  1.0265
   46CHL1   C14 3346   5.186   1.007   7.719 -0.8094 -0.5669  0.0591
   46CHL1   H14 3347   5.248   1.099   7.719 -1.3446 -0.2004 -0.5815
   46CHL1   C15 3348   5.268   0.913   7.812  0.5919  0.4538 -0.2562
   46CHL1  H15A 3349   5.245   0.805   7.801 -0.0323  0.8607 -3.2889
   46CHL1  H15B 3350   5.376   0.924   7.789  0.6403  1.9398  0.6048
   46CHL1   C16 3351   5.239   0.961   7.954  0.1665  0.5128  0.1517
   46CHL1  H16A 3352   5.225   0.863   8.005 -0.6530  1.0917  1.0583
   46CHL1  H16B 3353   5.325   1.019   7.995  0.0471 -0.1385  1.3458
   46CHL1   C17 3354   5.117   1.062   7.948 -0.6206  0.1343  0.3117
   46CHL1   H17 3355   5.164   1.160   7.967 -1.7919  0.9869 -1.0873
   46CHL1   C13 3356   5.062   1.047   7.802 -0.4193 -0.3354  0.3312
   46CHL1   C18 3357   4.974   0.918   7.807 -1.0171  0.2335 -0.1878
   46CHL1  H18A 3358   4.880   0.935   7.864 -0.8781  1.7926 -0.4089
   46CHL1  H18B 3359   4.936   0.880   7.709 -1.5032  2.8548 -1.0495
   46CHL1  H18C 3360   5.037   0.840   7.854 -1.7035  0.1450  0.5900
   46CHL1   C12 3361   4.999   1.168   7.731 -0.1619  0.1075  0.5619
   46CHL1  H12A 3362   4.901   1.192   7.777 -0.7944 -2.0084  0.3984
   46CHL1  H12B 3363   5.062   1.259   7.729 -1.0360  0.7018  0.0551
   46CHL1   C11 3364   4.960   1.132   7.586  0.3339  0.5437  0.2730
   46CHL1  H11A 3365   4.878   1.057   7.587  0.8029  0.0405  0.5949
   46CHL1  H11B 3366   4.930   1.223   7.530  1.4788  0.3858 -0.6153
   46CHL1    C9 3367   5.080   1.079   7.504  0.5113 -0.1913  0.1266
   46CHL1    H9 3368   5.154   1.162   7.505 -0.7809  0.9727  0.3697
   46CHL1   C10 3369   5.049   1.033   7.357 -0.6587 -0.1381  0.4520
   46CHL1   C19 3370   4.931   0.933   7.359 -0.3084 -0.0819  0.3245
   46CHL1  H19A 3371   4.838   0.977   7.400  0.0463 -0.1875  1.2503
   46CHL1  H19B 3372   4.914   0.900   7.254 -0.0132 -0.5522  0.4237
   46CHL1  H19C 3373   4.950   0.840   7.415  0.5320 -0.9167 -1.2920
   46CHL1    C1 3374   4.996   1.157   7.275 -0.0049 -0.6670  0.7280
   46CHL1   H1A 3375   4.897   1.199   7.303 -0.3485 -0.8310 -0.2078
   46CHL1   H1B 3376   5.058   1.247   7.292 -0.5201  0.0607 -1.1152
   46CHL1    C2 3377   4.984   1.142   7.117 -0.6970  0.8630  0.0344
   46CHL1   H2A 3378   4.971   1.235   7.058  2.4178  1.3958  0.0722
   46CHL1   H2B 3379   4.905   1.072   7.082 -2.2773  2.3454  0.5774
   46CHL1   C20 3380   5.019   1.053   8.065  0.5349 -0.6237 -0.4562
   46CHL1   H20 3381   4.972   0.952   8.070 -0.1721 -0.2919 -0.3869
   46CHL1   C21 3382   4.907   1.166   8.058  1.2792 -0.0534 -0.5154
   46CHL1  H21A 3383   4.840   1.181   8.146 -0.3002 -0.8669 -1.5687
   46CHL1  H21B 3384   4.839   1.145   7.974 -0.3714 -0.8543  0.9963
   46CHL1  H21C 3385   4.940   1.271   8.038 -3.2558  1.4436 -0.6995
   46CHL1   C22 3386   5.104   1.046   8.199  0.7668  0.1803 -0.2072
   46CHL1  H22A 3387   5.159   0.949   8.200  1.8247  0.7868  1.0923
   46CHL1  H22B 3388   5.163   1.140   8.203 -2.0104  1.9907 -0.4452
   46CHL1   C23 3389   5.026   1.046   8.333 -0.1103 -0.4903 -0.1990
   46CHL1  H23A 3390   4.970   1.142   8.340  0.5551 -0.2776  2.4764
   46CHL1  H23B 3391   4.955   0.961   8.342 -1.6802  0.9482  1.4547
   46CHL1   C24 3392   5.109   1.031   8.461 -0.3553  0.3439  0.2638
   46CHL1  H24A 3393   5.029   1.035   8.538 -0.5180  1.1708  0.0545
   46CHL1  H24B 3394   5.154   0.930   8.469  2.3583  1.4771 -0.2103
   46CHL1   C25 3395   5.217   1.140   8.504  0.9152  0.6125  0.3072
   46CHL1   H25 3396   5.307   1.114   8.443  1.6675  1.9260  0.8404
   46CHL1   C26 3397   5.168   1.284   8.466 -0.3202 -0.2512  0.0748
   46CHL1  H26A 3398   5.136   1.297   8.360  3.1076  2.5253 -0.7151
   46CHL1  H26B 3399   5.075   1.294   8.526 -1.7052  1.3889 -2.2670
   46CHL1  H26C 3400   5.247   1.361   8.477 -2.1580  1.7637 -0.4456
   46CHL1   C27 3401   5.258   1.131   8.647 -0.1538  0.3688  0.4913
   46CHL1  H27A 3402   5.173   1.146   8.717 -0.3136  0.1817  0.3378
   46CHL1  H27B 3403   5.293   1.028   8.668 -2.3582 -0.2971  1.0130
   46CHL1  H27C 3404   5.340   1.195   8.685 -0.0825 -1.2560  3.2313
   47CHL1    C3 3405   4.440   0.868   6.605 -0.0074  0.2274 -0.2018
   47CHL1    H3 3406   4.544   0.907   6.609 -0.1494  0.6848 -0.9544
   47CHL1    O3 3407   4.399   0.844   6.470  0.0174 -0.7305  0.4348
   47CHL1   H3' 3408   4.316   0.796   6.478 -0.5915  0.4072  1.1215
   47CHL1    C4 3409   4.437   0.733   6.676 -0.1156 -0.0552  0.1351
   47CHL1   H4A 3410   4.343   0.681   6.649  0.4264 -0.7901 -0.3510
   47CHL1   H4B 3411   4.511   0.668   6.625 -0.7108 -0.0982 -0.6819
   47CHL1    C5 3412   4.452   0.729   6.826  0.1547 -0.3503 -0.0230
   47CHL1    C6 3413   4.534   0.651   6.891 -0.3975  0.4692  0.2647
   47CHL1    H6 3414   4.599   0.584   6.832  3.0907  2.2812  1.8908
   47CHL1    C7 3415   4.558   0.648   7.040  0.3723  0.1972  0.1927
   47CHL1   H7A 3416   4.557   0.544   7.080 -2.9152  0.0501 -0.0803
   47CHL1   H7B 3417   4.657   0.686   7.070  0.9776 -0.0010 -1.5261
   47CHL1    C8 3418   4.442   0.722   7.114 -0.4472  0.2255  0.5656
   47CHL1    H8 3419   4.355   0.654   7.105  1.4598 -2.4417  1.8771
   47CHL1   C14 3420   4.491   0.753   7.256  0.1200 -0.3737  0.1764
   47CHL1   H14 3421   4.577   0.823   7.247  1.7225 -2.0316  2.2979
   47CHL1   C15 3422   4.552   0.639   7.339 -0.4758  0.8490 -0.0367
   47CHL1  H15A 3423   4.495   0.544   7.326  0.5113  0.7169 -3.8925
   47CHL1  H15B 3424   4.651   0.610   7.295  0.6439  1.5102  1.9633
   47CHL1   C16 3425   4.544   0.683   7.484 -0.6316  0.2106  0.6239
   47CHL1  H16A 3426   4.500   0.604   7.548 -2.1074  0.7992  0.3462
   47CHL1  H16B 3427   4.642   0.710   7.528  0.3639 -1.1314 -0.7400
   47CHL1   C17 3428   4.455   0.815   7.479 -0.3035 -0.3460  0.1307
   47CHL1   H17 3429   4.527   0.898   7.466 -0.5024 -0.2324 -0.2520
   47CHL1   C13 3430   4.381   0.810   7.341 -0.7626 -0.5861 -0.8458
   47CHL1   C18 3431   4.264   0.724   7.343  0.6690 -0.6337 -0.0090
   47CHL1  H18A 3432   4.222   0.687   7.247  1.5139 -1.5579 -0.0234
   47CHL1  H18B 3433   4.277   0.634   7.406 -1.0394 -0.0159  1.2808
   47CHL1  H18C 3434   4.176   0.779   7.383  3.8058  3.6257  1.4766
   47CHL1   C12 3435   4.349   0.953   7.281 -0.1048 -0.7813  0.0963
   47CHL1  H12A 3436   4.271   1.014   7.332  0.8153  0.9959 -0.6050
   47CHL1  H12B 3437   4.445   1.009   7.274 -0.7274  0.4178  0.8549
   47CHL1   C11 3438   4.303   0.936   7.134  0.2646  0.7525 -0.4517
   47CHL1  H11A 3439   4.204   0.887   7.128 -0.0102  0.9741  1.8618
   47CHL1  H11B 3440   4.299   1.039   7.094 -1.8022  0.6559 -0.5406
   47CHL1    C9 3441   4.403   0.856   7.045  0.1536 -0.5559  0.1627
   47CHL1    H9 3442   4.496   0.917   7.042  1.1394 -1.9230  2.1690
   47CHL1   C10 3443   4.356   0.829   6.900  0.6252  0.4280  0.6571
   47CHL1   C19 3444   4.214   0.774   6.897  0.4707 -0.2295  0.0038
   47CHL1  H19A 3445   4.140   0.846   6.936 -1.0896 -0.1565 -2.9435
   47CHL1  H19B 3446   4.176   0.770   6.792  1.2684 -1.4171 -0.2536
   47CHL1  H19C 3447   4.199   0.673   6.940 -1.4493  0.1032  0.1273
   47CHL1    C1 3448   4.363   0.968   6.824  0.2866 -0.1534 -0.0870
   47CHL1   H1A 3449   4.299   1.035   6.886  0.3236  0.2874 -0.5162
   47CHL1   H1B 3450   4.461   1.020   6.827  0.0406  0.2673  1.0040
   47CHL1    C2 3451   4.335   0.960   6.671 -0.3164  0.4976  0.2442
   47CHL1   H2A 3452   4.336   1.059   6.619 -2.8663  0.4788  0.0720
   47CHL1   H2B 3453   4.234   0.917   6.654 -0.3812  0.5854  0.4103
   47CHL1   C20 3454   4.374   0.831   7.610 -0.0331 -1.2363 -0.4073
   47CHL1   H20 3455   4.292   0.756   7.611  1.5240 -3.1415  4.8825
   47CHL1   C21 3456   4.290   0.967   7.612  0.5329  0.2109 -0.2431
   47CHL1  H21A 3457   4.355   1.056   7.627 -0.4394  0.8065  0.4827
   47CHL1  H21B 3458   4.218   0.963   7.696 -0.3425  0.2287 -0.9933
   47CHL1  H21C 3459   4.225   0.975   7.522  0.3121  1.2801  0.0047
   47CHL1   C22 3460   4.456   0.813   7.742  0.4224 -0.5902 -0.4272
   47CHL1  H22A 3461   4.531   0.732   7.726  0.4695 -0.5963 -0.1735
   47CHL1  H22B 3462   4.511   0.907   7.764 -1.0808 -0.0009  0.8796
   47CHL1   C23 3463   4.366   0.777   7.864  0.2168 -0.1000  0.5135
   47CHL1  H23A 3464   4.296   0.862   7.873  1.8404  1.4868 -1.4072
   47CHL1  H23B 3465   4.312   0.683   7.837  0.4854  0.0758 -0.6639
   47CHL1   C24 3466   4.459   0.768   7.995  1.0101 -0.7574 -0.2373
   47CHL1  H24A 3467   4.498   0.869   8.019  2.4771 -1.4029  0.1483
   47CHL1  H24B 3468   4.390   0.742   8.079  1.0332  0.8054  0.2784
   47CHL1   C25 3469   4.583   0.675   7.983  0.2797 -0.2749  0.0175
   47CHL1   H25 3470   4.639   0.702   7.890 -0.2183 -1.5188 -0.6551
   47CHL1   C26 3471   4.681   0.692   8.103  0.1166  1.1866  0.3105
   47CHL1  H26A 3472   4.627   0.641   8.186 -1.3670  0.6353 -0.9741
   47CHL1  H26B 3473   4.772   0.634   8.076 -0.1696  0.3499  1.1156
   47CHL1  H26C 3474   4.707   0.797   8.128  0.1557  1.2418  0.0388
   47CHL1   C27 3475   4.551   0.526   7.968 -0.2026  0.4986 -0.0932
   47CHL1  H27A 3476   4.497   0.504   7.873 -0.6902  0.4145  0.2001
   47CHL1  H27B 3477   4.649   0.474   7.967 -0.0863  0.7098  0.1770
   47CHL1  H27C 3478   4.487   0.481   8.048 -1.6396 -0.1834 -1.5912
   48CHL1    C3 3479   1.168   3.330   6.352 -0.9042 -0.8867 -0.3224
   48CHL1    H3 3480   1.121   3.428   6.329 -0.0464 -0.3605  0.1313
   48CHL1    O3 3481   1.184   3.264   6.230  0.1551 -0.6479 -0.2497
   48CHL1   H3' 3482   1.202   3.171   6.248  3.4397 -0.6060 -2.8710
   48CHL1    C4 3483   1.310   3.372   6.408  0.0509 -0.0565 -0.0220
   48CHL1   H4A 3484   1.374   3.282   6.393 -0.9996 -0.7334 -0.5268
   48CHL1   H4B 3485   1.356   3.441   6.334 -0.2248  0.0601 -0.0855
   48CHL1    C5 3486   1.318   3.422   6.553 -0.2150 -0.4605 -0.2799
   48CHL1    C6 3487   1.400   3.522   6.597  0.6146 -0.6210  0.2797
   48CHL1    H6 3488   1.454   3.586   6.525  0.1764 -1.4143 -0.7687
   48CHL1    C7 3489   1.427   3.563   6.739  0.2440  0.4134 -0.1868
   48CHL1   H7A 3490   1.534   3.584   6.755 -0.2885  1.6888  1.9319
   48CHL1   H7B 3491   1.377   3.660   6.762  0.1364  0.8852 -2.2764
   48CHL1    C8 3492   1.372   3.454   6.842 -0.5107  0.3327  0.5442
   48CHL1    H8 3493   1.449   3.374   6.843  0.9124  1.6886  1.5621
   48CHL1   C14 3494   1.354   3.521   6.976  0.5184  0.0250 -0.2679
   48CHL1   H14 3495   1.270   3.593   6.963 -1.1391 -1.7601  0.2631
   48CHL1   C15 3496   1.468   3.579   7.040 -0.1404 -0.1390 -0.4482
   48CHL1  H15A 3497   1.558   3.514   7.052  0.0592  0.0226 -1.0687
   48CHL1  H15B 3498   1.501   3.671   6.988 -0.3817  0.9364  1.2743
   48CHL1   C16 3499   1.416   3.608   7.177  0.4350 -0.5316 -0.4352
   48CHL1  H16A 3500   1.494   3.595   7.255  1.4482 -0.9334 -1.5082
   48CHL1  H16B 3501   1.377   3.710   7.198  0.7452 -0.8857  2.0226
   48CHL1   C17 3502   1.294   3.516   7.201 -0.0158  0.0317  0.0116
   48CHL1   H17 3503   1.209   3.586   7.182 -0.8144 -0.3434  2.0219
   48CHL1   C13 3504   1.293   3.425   7.079  1.0872 -0.3649 -0.4436
   48CHL1   C18 3505   1.373   3.297   7.105  0.4537 -0.0965  0.4033
   48CHL1  H18A 3506   1.474   3.322   7.145 -0.0636 -1.5794  2.7252
   48CHL1  H18B 3507   1.328   3.246   7.193  1.8699 -3.4478 -0.7440
   48CHL1  H18C 3508   1.385   3.223   7.022 -1.2335 -0.5698  0.5760
   48CHL1   C12 3509   1.143   3.383   7.027 -0.5985 -0.3872 -0.6751
   48CHL1  H12A 3510   1.098   3.311   7.098 -2.1815  0.8545 -0.3942
   48CHL1  H12B 3511   1.080   3.473   7.017 -1.3714 -1.1249 -2.5114
   48CHL1   C11 3512   1.156   3.308   6.892 -0.0469  0.2400 -0.5579
   48CHL1  H11A 3513   1.206   3.209   6.888 -0.0084  0.3577 -5.1400
   48CHL1  H11B 3514   1.060   3.283   6.842  0.3977  0.1435 -1.3695
   48CHL1    C9 3515   1.236   3.397   6.790  0.2756 -1.2852 -0.7142
   48CHL1    H9 3516   1.164   3.481   6.781 -0.2749 -1.4790  1.6149
   48CHL1   C10 3517   1.242   3.338   6.650 -0.2200  0.5317  0.6795
   48CHL1   C19 3518   1.304   3.196   6.651 -1.1490 -0.8362 -0.4358
   48CHL1  H19A 3519   1.239   3.132   6.716 -1.3535 -0.5055 -0.3140
   48CHL1  H19B 3520   1.322   3.148   6.553  0.1248 -2.5598  0.5957
   48CHL1  H19C 3521   1.403   3.204   6.700 -0.2417 -1.7340 -2.0830
   48CHL1    C1 3522   1.095   3.336   6.586 -0.1599 -0.0518 -0.4847
   48CHL1   H1A 3523   1.027   3.282   6.656 -0.5496 -0.0144 -0.8390
   48CHL1   H1B 3524   1.057   3.439   6.569  0.6829  0.2489 -0.5819
   48CHL1    C2 3525   1.086   3.257   6.457 -0.3787  0.1075 -1.0242
   48CHL1   H2A 3526   0.982   3.246   6.419  0.1328 -4.1539 -1.4732
   48CHL1   H2B 3527   1.126   3.156   6.480  0.7118  1.1191  1.6129
   48CHL1   C20 3528   1.284   3.473   7.347  0.1801  1.0839  0.2434
   48CHL1   H20 3529   1.363   3.401   7.374  0.0377  0.7396 -0.2466
   48CHL1   C21 3530   1.145   3.414   7.363 -0.3470  0.4669 -0.7728
   48CHL1  H21A 3531   1.133   3.314   7.317 -2.1478  0.0463  0.5773
   48CHL1  H21B 3532   1.084   3.495   7.318 -2.8954 -0.1509  1.4592
   48CHL1  H21C 3533   1.107   3.402   7.467 -1.8748  0.0265 -1.3692
   48CHL1   C22 3534   1.298   3.590   7.452 -0.7326 -0.1950 -0.1748
   48CHL1  H22A 3535   1.376   3.659   7.414 -2.5837  0.3845 -3.0943
   48CHL1  H22B 3536   1.205   3.650   7.457  0.1427  1.5108 -3.1615
   48CHL1   C23 3537   1.339   3.530   7.586 -0.1105  0.0718  0.1119
   48CHL1  H23A 3538   1.263   3.454   7.616 -0.3571  0.6905  1.0981
   48CHL1  H23B 3539   1.435   3.477   7.567 -1.0134 -1.1435 -1.2171
   48CHL1   C24 3540   1.347   3.634   7.698  0.3533 -0.5836  0.2282
   48CHL1  H24A 3541   1.405   3.722   7.664 -2.1310  1.2549  0.5579
   48CHL1  H24B 3542   1.244   3.669   7.722  0.9723  0.8739  0.8282
   48CHL1   C25 3543   1.416   3.583   7.823 -0.1923 -0.3478 -0.3223
   48CHL1   H25 3544   1.516   3.546   7.793  0.7130  2.0094 -0.2923
   48CHL1   C26 3545   1.462   3.696   7.918  0.2389  0.2504  0.3885
   48CHL1  H26A 3546   1.514   3.669   8.013 -0.1233  1.2952  0.8958
   48CHL1  H26B 3547   1.548   3.749   7.873  2.1196 -2.4023  0.7875
   48CHL1  H26C 3548   1.384   3.767   7.953  1.8719  1.2560  2.1272
   48CHL1   C27 3549   1.344   3.478   7.901 -0.0817  0.0104 -0.3790
   48CHL1  H27A 3550   1.249   3.520   7.939  0.7235  1.4137  0.1282
   48CHL1  H27B 3551   1.314   3.386   7.845 -2.4153  0.7036 -0.3145
   48CHL1  H27C 3552   1.403   3.448   7.990 -0.9380  0.5042  0.3626
   49CHL1    C3 3553   0.305   4.244   6.736  0.2204 -0.1074  0.6009
   49CHL1    H3 3554   0.270   4.140   6.754 -1.0431  0.1166 -0.4844
   49CHL1    O3 3555   0.349   4.263   6.605  0.6516  0.1295  0.5476
   49CHL1   H3' 3556   0.413   4.192   6.593  0.1048 -0.4745  1.1547
   49CHL1    C4 3557   0.203   4.349   6.772  0.1544  0.5936 -0.2623
   49CHL1   H4A 3558   0.254   4.443   6.743  0.8609 -0.0337 -1.0644
   49CHL1   H4B 3559   0.110   4.329   6.714 -0.5029 -1.4278  1.4289
   49CHL1    C5 3560   0.169   4.334   6.919  0.6720 -0.1499  0.1752
   49CHL1    C6 3561   0.047   4.308   6.960 -0.5468 -0.4438 -0.4598
   49CHL1    H6 3562  -0.033   4.288   6.888 -0.7181  0.7012 -0.5935
   49CHL1    C7 3563   0.005   4.311   7.113  0.0456 -0.1428  1.0334
   49CHL1   H7A 3564  -0.084   4.378   7.118 -0.4447 -0.6644 -0.4922
   49CHL1   H7B 3565  -0.038   4.214   7.143 -1.7572  0.0237 -0.8957
   49CHL1    C8 3566   0.117   4.369   7.205 -0.0096 -0.4286  0.4321
   49CHL1    H8 3567   0.116   4.479   7.193  3.7630 -0.2459  1.1836
   49CHL1   C14 3568   0.093   4.323   7.349  0.4165 -0.4110  0.1161
   49CHL1   H14 3569   0.100   4.212   7.347  0.7735 -0.3978  0.4455
   49CHL1   C15 3570  -0.043   4.347   7.406  0.3946 -0.3296  0.1794
   49CHL1  H15A 3571  -0.073   4.451   7.380  1.3898  0.3929  1.7921
   49CHL1  H15B 3572  -0.121   4.277   7.368  0.8122 -0.4523 -0.4401
   49CHL1   C16 3573  -0.029   4.319   7.558 -0.2583  0.5468  0.4843
   49CHL1  H16A 3574  -0.078   4.401   7.615  2.4598  2.1541  0.6169
   49CHL1  H16B 3575  -0.069   4.218   7.580  1.2205 -0.0897  0.3344
   49CHL1   C17 3576   0.129   4.308   7.579  0.3404 -0.5897 -0.2134
   49CHL1   H17 3577   0.154   4.201   7.564 -0.7556 -0.7460 -1.0911
   49CHL1   C13 3578   0.196   4.372   7.456 -0.5226  0.0894 -0.3725
   49CHL1   C18 3579   0.196   4.522   7.475  0.4319 -0.3613 -0.0636
   49CHL1  H18A 3580   0.206   4.583   7.382  0.8224 -1.8260 -0.9942
   49CHL1  H18B 3581   0.107   4.562   7.528  0.0695 -0.1976 -0.7930
   49CHL1  H18C 3582   0.287   4.557   7.530  1.9399  0.5286 -3.0155
   49CHL1   C12 3583   0.332   4.327   7.412 -0.5066 -0.3898 -0.2939
   49CHL1  H12A 3584   0.405   4.382   7.475 -0.7100  0.9562 -1.2255
   49CHL1  H12B 3585   0.348   4.219   7.433 -0.7529 -0.9322 -2.7689
   49CHL1   C11 3586   0.368   4.368   7.267  0.2316 -0.4508 -0.2216
   49CHL1  H11A 3587   0.383   4.478   7.262 -0.1937 -0.3760  0.1019
   49CHL1  H11B 3588   0.464   4.319   7.242  1.1918  0.9760  0.6566
   49CHL1    C9 3589   0.256   4.323   7.164 -0.3249 -0.4222 -0.9427
   49CHL1    H9 3590   0.254   4.212   7.176  0.4555 -0.2171  1.1476
   49CHL1   C10 3591   0.283   4.355   7.013  1.3584  0.0402 -0.1674
   49CHL1   C19 3592   0.347   4.500   7.002  0.1129 -0.1907 -0.1526
   49CHL1  H19A 3593   0.380   4.506   6.896 -0.0400 -0.8964 -0.2405
   49CHL1  H19B 3594   0.280   4.584   7.030 -0.8923 -1.0456  0.0328
   49CHL1  H19C 3595   0.442   4.519   7.057  0.1794  0.8809 -0.6324
   49CHL1    C1 3596   0.389   4.252   6.961  0.6023  0.0267  0.1590
   49CHL1   H1A 3597   0.482   4.258   7.023  0.0251  1.4940  0.9058
   49CHL1   H1B 3598   0.352   4.148   6.976  1.1113 -0.3910 -1.4467
   49CHL1    C2 3599   0.431   4.264   6.817  0.4266  0.2834  0.1345
   49CHL1   H2A 3600   0.497   4.177   6.794  1.5424  0.8218  1.2596
   49CHL1   H2B 3601   0.482   4.359   6.788 -0.6021  0.5553 -0.8437
   49CHL1   C20 3602   0.168   4.351   7.719 -0.2153 -0.2246 -0.2143
   49CHL1   H20 3603   0.148   4.460   7.733  0.1528  0.0318 -1.7045
   49CHL1   C21 3604   0.322   4.328   7.740  0.6626 -0.0799 -0.9616
   49CHL1  H21A 3605   0.369   4.404   7.675  0.4088  0.4956 -0.4723
   49CHL1  H21B 3606   0.363   4.230   7.707 -1.1258 -1.0871 -0.2745
   49CHL1  H21C 3607   0.345   4.344   7.848 -0.7879  0.4779 -0.7269
   49CHL1   C22 3608   0.089   4.281   7.840 -0.1660 -0.2803  0.3255
   49CHL1  H22A 3609  -0.020   4.278   7.820 -0.5457 -1.2760  2.4255
   49CHL1  H22B 3610   0.150   4.189   7.848 -1.0253 -1.0096 -1.2288
   49CHL1   C23 3611   0.107   4.365   7.963  0.1638 -0.3242 -0.1094
   49CHL1  H23A 3612   0.213   4.349   7.991 -0.6274 -2.4016  1.8164
   49CHL1  H23B 3613   0.099   4.474   7.941  1.7376 -0.3388 -0.8242
   49CHL1   C24 3614   0.011   4.324   8.069  0.8091  0.2808  0.5178
   49CHL1  H24A 3615  -0.092   4.329   8.028  1.1322 -0.3914 -0.3864
   49CHL1  H24B 3616   0.028   4.224   8.114 -0.0676 -0.1835 -0.1562
   49CHL1   C25 3617   0.001   4.426   8.188  0.5021  0.6587 -0.0861
   49CHL1   H25 3618   0.101   4.422   8.236  0.0508  2.0708  0.9972
   49CHL1   C26 3619  -0.022   4.571   8.142 -1.2305  0.4075  0.2986
   49CHL1  H26A 3620   0.061   4.600   8.074 -1.1414  1.7902  0.9828
   49CHL1  H26B 3621  -0.118   4.583   8.087 -0.2846 -1.9404 -1.9748
   49CHL1  H26C 3622  -0.029   4.631   8.235 -2.0358  0.4091  0.2423
   49CHL1   C27 3623  -0.105   4.379   8.296  0.8269 -0.4807  0.5762
   49CHL1  H27A 3624  -0.205   4.393   8.249  1.1472 -1.6591 -0.4876
   49CHL1  H27B 3625  -0.101   4.271   8.320  1.2206 -0.2131  1.7423
   49CHL1  H27C 3626  -0.105   4.429   8.395  1.3655  0.1981  0.2375
   50CHL1    C3 3627   1.088   5.773   6.812 -0.2649 -0.6725  0.0935
   50CHL1    H3 3628   1.044   5.870   6.781  0.2255 -1.1247 -2.1008
   50CHL1    O3 3629   1.162   5.712   6.700 -0.3063 -0.1972  0.1638
   50CHL1   H3' 3630   1.200   5.629   6.731 -1.5080 -0.1294  1.8597
   50CHL1    C4 3631   1.179   5.796   6.930 -0.4263  0.2255  0.3710
   50CHL1   H4A 3632   1.234   5.700   6.944 -0.4415  0.3305  1.1663
   50CHL1   H4B 3633   1.255   5.872   6.904  0.3394 -0.9317 -0.8730
   50CHL1    C5 3634   1.105   5.824   7.063  0.2536  0.2421  0.4614
   50CHL1    C6 3635   1.132   5.929   7.140 -0.3931  0.0307  0.8397
   50CHL1    H6 3636   1.224   5.985   7.120  0.4444 -1.3669  0.6878
   50CHL1    C7 3637   1.090   5.939   7.286  0.3973  0.3123  0.8249
   50CHL1   H7A 3638   1.175   5.957   7.356  0.1836  0.1492  1.1247
   50CHL1   H7B 3639   1.031   6.033   7.293  1.5064  1.0310  0.8508
   50CHL1    C8 3640   1.021   5.813   7.339  0.0614 -0.4520  0.0540
   50CHL1    H8 3641   1.102   5.744   7.373 -0.7589 -0.1047  2.8604
   50CHL1   C14 3642   0.940   5.856   7.462  0.2521 -0.5276  1.0942
   50CHL1   H14 3643   0.858   5.921   7.425 -1.4750 -2.3053  1.7642
   50CHL1   C15 3644   1.014   5.930   7.573 -0.1751  0.0837 -0.2750
   50CHL1  H15A 3645   1.103   5.877   7.613  0.5896  1.8093  0.3872
   50CHL1  H15B 3646   1.031   6.030   7.527 -3.4455  0.3302 -1.0475
   50CHL1   C16 3647   0.914   5.926   7.685 -1.1497 -0.1452 -0.6556
   50CHL1  H16A 3648   0.970   5.896   7.776  1.6252 -1.6653 -2.7956
   50CHL1  H16B 3649   0.866   6.026   7.681  0.3203  0.6017 -0.0866
   50CHL1   C17 3650   0.801   5.819   7.645  0.0785 -0.5730 -0.5703
   50CHL1   H17 3651   0.712   5.873   7.607 -0.9882 -0.9957  1.2751
   50CHL1   C13 3652   0.861   5.742   7.530  0.0020  0.0493  0.0464
   50CHL1   C18 3653   0.962   5.635   7.581 -0.0991  0.3751  0.5340
   50CHL1  H18A 3654   0.902   5.562   7.639 -0.3993 -1.3998 -1.8869
   50CHL1  H18B 3655   0.999   5.577   7.494  1.7209  0.9978  0.8697
   50CHL1  H18C 3656   1.045   5.682   7.637 -1.1026  3.8195 -0.7539
   50CHL1   C12 3657   0.761   5.699   7.420  0.0321  0.1254 -0.2215
   50CHL1  H12A 3658   0.689   5.622   7.455  2.6276 -2.7023 -0.9337
   50CHL1  H12B 3659   0.696   5.784   7.388 -0.8355  0.2705  1.8161
   50CHL1   C11 3660   0.830   5.651   7.292 -0.4306 -0.4222  0.4892
   50CHL1  H11A 3661   0.889   5.562   7.323 -0.4626  0.0356  1.8942
   50CHL1  H11B 3662   0.752   5.617   7.221 -0.5005  3.0979 -1.1949
   50CHL1    C9 3663   0.934   5.753   7.233  0.1924 -0.2969 -0.2903
   50CHL1    H9 3664   0.872   5.838   7.199 -1.6387 -1.3950  0.1973
   50CHL1   C10 3665   1.007   5.712   7.096  0.0076  0.4265 -0.4627
   50CHL1   C19 3666   1.084   5.583   7.119  0.3259 -0.2078 -0.7500
   50CHL1  H19A 3667   1.165   5.606   7.191 -1.8404  0.7189  1.4881
   50CHL1  H19B 3668   1.015   5.510   7.168  0.4880 -1.0071 -1.7105
   50CHL1  H19C 3669   1.122   5.540   7.024 -0.4162  0.0096 -1.1532
   50CHL1    C1 3670   0.905   5.703   6.978  0.7083  0.4132 -0.8432
   50CHL1   H1A 3671   0.836   5.616   6.993 -0.1722  0.9378 -1.7420
   50CHL1   H1B 3672   0.842   5.792   6.958  0.0735  0.5517  1.6234
   50CHL1    C2 3673   0.974   5.676   6.845  0.3757 -0.6199  0.4319
   50CHL1   H2A 3674   0.898   5.681   6.764  0.9736  0.8099 -0.0456
   50CHL1   H2B 3675   1.009   5.571   6.829 -1.2537 -0.9407 -1.2411
   50CHL1   C20 3676   0.752   5.735   7.767  0.5732  0.1554  0.1566
   50CHL1   H20 3677   0.832   5.664   7.795  0.7730 -0.1531 -1.1432
   50CHL1   C21 3678   0.636   5.639   7.724  0.5343  0.3939  0.5051
   50CHL1  H21A 3679   0.548   5.695   7.685 -2.6832 -2.9772  2.6246
   50CHL1  H21B 3680   0.601   5.569   7.803 -1.4118  0.9398  0.1402
   50CHL1  H21C 3681   0.689   5.581   7.644 -1.7634 -0.0302 -0.7509
   50CHL1   C22 3682   0.707   5.819   7.885  0.0001 -0.2735 -0.1629
   50CHL1  H22A 3683   0.678   5.746   7.963  0.5764  1.2250  1.4906
   50CHL1  H22B 3684   0.795   5.877   7.922  0.5013 -2.6327  2.4787
   50CHL1   C23 3685   0.585   5.915   7.866  0.0248 -0.3536  0.0010
   50CHL1  H23A 3686   0.621   5.995   7.798 -0.5706 -0.0584  0.0381
   50CHL1  H23B 3687   0.496   5.861   7.828  0.4099  0.1928 -1.6941
   50CHL1   C24 3688   0.552   5.989   7.992  0.0425 -0.1456  0.6418
   50CHL1  H24A 3689   0.493   5.930   8.065 -0.1842  0.1468  0.6930
   50CHL1  H24B 3690   0.650   6.025   8.030 -0.8212  1.1447  1.7334
   50CHL1   C25 3691   0.473   6.115   7.960 -0.2689 -0.3531 -0.5641
   50CHL1   H25 3692   0.528   6.156   7.872  2.3707 -0.7495  0.8399
   50CHL1   C26 3693   0.328   6.095   7.938 -0.0679 -0.7955 -0.5096
   50CHL1  H26A 3694   0.277   6.067   8.032 -1.3489 -0.7278 -1.1720
   50CHL1  H26B 3695   0.282   6.190   7.905 -0.4842  0.7595  4.2236
   50CHL1  H26C 3696   0.318   6.035   7.845 -0.9201 -0.5214 -0.5939
   50CHL1   C27 3697   0.491   6.228   8.072 -0.9019 -1.2379 -0.1022
   50CHL1  H27A 3698   0.599   6.247   8.090 -1.0200  1.4817 -1.9890
   50CHL1  H27B 3699   0.427   6.314   8.043  0.9773  0.5003  0.8092
   50CHL1  H27C 3700   0.444   6.187   8.165 -1.7325 -0.3881 -0.1400
   51CHL1    C3 3701   0.669   4.646   6.807 -0.0926 -0.5873  0.3874
   51CHL1    H3 3702   0.585   4.575   6.818 -2.9733  2.5389 -0.5769
   51CHL1    O3 3703   0.712   4.661   6.671  0.1446 -0.1137 -0.0948
   51CHL1   H3' 3704   0.786   4.722   6.670 -1.7576  2.2256 -1.0228
   51CHL1    C4 3705   0.617   4.781   6.853 -0.4583 -0.2531  0.0588
   51CHL1   H4A 3706   0.695   4.857   6.831 -0.6349 -0.4469 -1.2454
   51CHL1   H4B 3707   0.531   4.806   6.788 -0.1827 -0.7903 -0.5194
   51CHL1    C5 3708   0.587   4.789   6.996 -0.4022  0.2050 -0.1384
   51CHL1    C6 3709   0.464   4.825   7.039  0.1368  0.1271 -0.6660
   51CHL1    H6 3710   0.383   4.851   6.970  0.9771  0.7485 -1.4414
   51CHL1    C7 3711   0.422   4.835   7.183  0.2158 -0.3219 -0.4312
   51CHL1   H7A 3712   0.360   4.924   7.207  0.4771 -0.4529  0.7653
   51CHL1   H7B 3713   0.351   4.754   7.212  1.0057 -0.7160  0.4006
   51CHL1    C8 3714   0.539   4.816   7.283  0.1708 -0.3594  0.6165
   51CHL1    H8 3715   0.590   4.913   7.306  3.2096 -1.6997 -0.1593
   51CHL1   C14 3716   0.495   4.763   7.417  0.8913 -0.5255 -0.5082
   51CHL1   H14 3717   0.455   4.660   7.400  1.1762 -0.7812  0.3716
   51CHL1   C15 3718   0.376   4.840   7.483 -0.0339 -0.6144  0.2935
   51CHL1  H15A 3719   0.395   4.947   7.464  3.0776 -0.6338  2.8328
   51CHL1  H15B 3720   0.285   4.815   7.425  0.7807  0.6149 -1.5477
   51CHL1   C16 3721   0.385   4.806   7.628  0.2519  0.6017 -0.2137
   51CHL1  H16A 3722   0.403   4.896   7.692 -0.6424  0.8084 -0.2546
   51CHL1  H16B 3723   0.294   4.751   7.661  0.2354  1.1210  0.6219
   51CHL1   C17 3724   0.515   4.719   7.646 -0.4491  0.5741 -0.1449
   51CHL1   H17 3725   0.488   4.612   7.640  0.4887  0.2072  1.7921
   51CHL1   C13 3726   0.605   4.748   7.526 -0.5469  0.3525  0.0793
   51CHL1   C18 3727   0.680   4.882   7.547 -0.0942  1.2246 -0.3513
   51CHL1  H18A 3728   0.763   4.862   7.618  0.3213 -1.1064 -1.4575
   51CHL1  H18B 3729   0.728   4.919   7.454  2.4421 -1.5849 -0.2175
   51CHL1  H18C 3730   0.608   4.958   7.583 -1.8136 -1.1326  1.3473
   51CHL1   C12 3731   0.684   4.625   7.464 -0.0278 -0.1814 -0.2664
   51CHL1  H12A 3732   0.762   4.608   7.541 -2.9296 -1.7568  2.4569
   51CHL1  H12B 3733   0.639   4.524   7.456 -0.2542 -0.0252 -1.0605
   51CHL1   C11 3734   0.748   4.664   7.328  0.7968 -0.6158 -0.3851
   51CHL1  H11A 3735   0.829   4.738   7.343 -0.5483  1.1088 -1.4255
   51CHL1  H11B 3736   0.791   4.571   7.285  0.3182  0.6809 -3.8336
   51CHL1    C9 3737   0.638   4.707   7.228 -0.3475 -0.3529  0.7548
   51CHL1    H9 3738   0.572   4.618   7.215  2.5608 -2.1075 -3.0775
   51CHL1   C10 3739   0.692   4.735   7.093 -0.1097  1.0049 -0.0916
   51CHL1   C19 3740   0.793   4.842   7.107  0.0202 -0.5486  0.2928
   51CHL1  H19A 3741   0.775   4.917   7.187  0.9914 -0.5971  0.5709
   51CHL1  H19B 3742   0.894   4.803   7.130  1.3647  1.4066 -2.0777
   51CHL1  H19C 3743   0.822   4.902   7.018  1.5940  1.1302  1.8940
   51CHL1    C1 3744   0.761   4.600   7.039  0.2824 -0.5130 -0.5429
   51CHL1   H1A 3745   0.858   4.576   7.088 -0.3550 -0.8952  0.5371
   51CHL1   H1B 3746   0.691   4.518   7.062  0.8675 -0.3805  1.8227
   51CHL1    C2 3747   0.784   4.602   6.889  0.4167 -0.1382  0.8048
   51CHL1   H2A 3748   0.818   4.502   6.855 -0.7534  0.0292 -0.8927
   51CHL1   H2B 3749   0.876   4.662   6.876  0.8209 -0.3096  2.6889
   51CHL1   C20 3750   0.580   4.730   7.779  0.6236  0.0288 -0.1748
   51CHL1   H20 3751   0.607   4.836   7.797 -1.6820  0.8000 -1.0040
   51CHL1   C21 3752   0.700   4.640   7.798  0.5572  0.6578  0.1744
   51CHL1  H21A 3753   0.735   4.643   7.903  2.6284  2.3881 -0.5360
   51CHL1  H21B 3754   0.784   4.665   7.730  1.3921  1.2624  1.4132
   51CHL1  H21C 3755   0.665   4.536   7.781  1.9845  0.0707  0.8130
   51CHL1   C22 3756   0.474   4.706   7.892  0.3467 -0.8659 -0.5763
   51CHL1  H22A 3757   0.425   4.804   7.910  0.3648 -0.6297 -1.7679
   51CHL1  H22B 3758   0.397   4.628   7.875  1.2968 -2.0021  0.2801
   51CHL1   C23 3759   0.530   4.688   8.029 -0.7990  0.3366 -0.6473
   51CHL1  H23A 3760   0.576   4.590   8.054 -1.9140 -0.4536 -1.6441
   51CHL1  H23B 3761   0.607   4.760   8.061 -1.0614  0.4683 -0.3032
   51CHL1   C24 3762   0.437   4.689   8.155  0.3900  0.4875  0.3345
   51CHL1  H24A 3763   0.373   4.598   8.155  0.1650  0.6434  0.1106
   51CHL1  H24B 3764   0.502   4.680   8.244 -1.1260  1.7433  1.5975
   51CHL1   C25 3765   0.351   4.817   8.181  0.0272 -0.4474 -0.6310
   51CHL1   H25 3766   0.291   4.839   8.090 -2.1195  1.7085  1.2564
   51CHL1   C26 3767   0.251   4.798   8.292 -0.6273  0.1891 -0.5507
   51CHL1  H26A 3768   0.213   4.898   8.320 -0.8055 -0.3511  1.2394
   51CHL1  H26B 3769   0.157   4.747   8.263  0.0757 -1.9812  0.7610
   51CHL1  H26C 3770   0.306   4.744   8.373 -0.1882 -0.7923 -1.4972
   51CHL1   C27 3771   0.444   4.934   8.212  0.8410  0.1859 -1.2371
   51CHL1  H27A 3772   0.509   4.921   8.301 -0.5545  1.7742  0.0327
   51CHL1  H27B 3773   0.516   4.958   8.131  2.4812 -0.5662 -0.0508
   51CHL1  H27C 3774   0.382   5.023   8.235 -0.8077 -0.2337 -3.8368
   52CHL1    C3 3775   2.368   6.185   6.972 -0.0571 -0.3913 -0.3259
   52CHL1    H3 3776   2.297   6.249   7.029  0.8826  0.1176  0.2864
   52CHL1    O3 3777   2.361   6.221   6.829  0.9193  0.1989 -0.9621
   52CHL1   H3' 3778   2.451   6.220   6.798  1.4717 -1.8412  0.6421
   52CHL1    C4 3779   2.503   6.216   7.031 -0.1590 -0.6298 -0.9181
   52CHL1   H4A 3780   2.584   6.167   6.972 -0.8833 -1.1501 -1.4951
   52CHL1   H4B 3781   2.509   6.327   7.023 -1.7458 -0.3751  0.9947
   52CHL1    C5 3782   2.504   6.159   7.174  0.2999 -0.7036  0.2139
   52CHL1    C6 3783   2.518   6.243   7.278  0.3529 -0.0789  0.5539
   52CHL1    H6 3784   2.530   6.350   7.254  0.8861 -0.2757 -0.0876
   52CHL1    C7 3785   2.525   6.207   7.420 -0.1203 -0.1299  0.0262
   52CHL1   H7A 3786   2.599   6.265   7.479  0.0164 -0.5540  0.2740
   52CHL1   H7B 3787   2.425   6.225   7.464 -0.6058  2.9081 -2.1568
   52CHL1    C8 3788   2.567   6.057   7.433  0.2649  0.1199  0.6675
   52CHL1    H8 3789   2.668   6.035   7.392 -0.0807  1.2664 -0.7989
   52CHL1   C14 3790   2.539   6.006   7.571 -0.0067  0.3217  0.5126
   52CHL1   H14 3791   2.430   6.021   7.588 -0.1736  1.7813 -1.6301
   52CHL1   C15 3792   2.595   6.083   7.690  0.3872 -0.1031 -0.0589
   52CHL1  H15A 3793   2.703   6.087   7.665  0.6206  0.4550  0.9908
   52CHL1  H15B 3794   2.549   6.180   7.720  2.2599  0.9218 -0.4553
   52CHL1   C16 3795   2.605   5.981   7.810 -0.0032 -0.0273 -0.3557
   52CHL1  H16A 3796   2.713   5.965   7.832 -0.5804 -2.4458  0.7667
   52CHL1  H16B 3797   2.537   6.004   7.894 -1.8356 -0.7263 -1.6266
   52CHL1   C17 3798   2.553   5.844   7.750  0.3343  0.9033  0.5000
   52CHL1   H17 3799   2.444   5.854   7.768 -0.2234 -0.4260 -1.8685
   52CHL1   C13 3800   2.580   5.860   7.601  0.5006  0.2463  0.4054
   52CHL1   C18 3801   2.738   5.845   7.573  0.2773  0.8214 -0.2375
   52CHL1  H18A 3802   2.773   5.897   7.481  0.1468 -1.6999 -1.7560
   52CHL1  H18B 3803   2.795   5.897   7.653  2.7559 -0.9335 -0.8304
   52CHL1  H18C 3804   2.762   5.737   7.571 -1.5905  0.4048 -1.4260
   52CHL1   C12 3805   2.501   5.766   7.504 -0.3099 -0.4221  0.0256
   52CHL1  H12A 3806   2.548   5.666   7.518 -1.5183 -0.7708  1.7064
   52CHL1  H12B 3807   2.395   5.767   7.539 -0.3635 -1.6479 -0.0873
   52CHL1   C11 3808   2.525   5.811   7.359  0.0117 -0.2667 -0.4728
   52CHL1  H11A 3809   2.634   5.789   7.349 -0.2737 -2.4810  0.8677
   52CHL1  H11B 3810   2.473   5.742   7.289 -0.6154  1.1575 -1.4173
   52CHL1    C9 3811   2.487   5.961   7.341  0.2340  0.4015  0.4320
   52CHL1    H9 3812   2.379   5.974   7.362  0.1309  0.3475 -0.0622
   52CHL1   C10 3813   2.491   6.007   7.191  0.5096  0.0348  0.3871
   52CHL1   C19 3814   2.613   5.943   7.119  0.5454  0.3926  0.2243
   52CHL1  H19A 3815   2.619   5.975   7.013  0.3431  2.4117  0.8116
   52CHL1  H19B 3816   2.707   5.978   7.167  0.3140  1.9346 -0.4172
   52CHL1  H19C 3817   2.618   5.832   7.125  0.1363  0.4572  2.2426
   52CHL1    C1 3818   2.359   5.977   7.118 -0.3932 -0.1399 -0.7784
   52CHL1   H1A 3819   2.344   5.869   7.098 -1.2946 -0.0587 -0.5434
   52CHL1   H1B 3820   2.275   6.007   7.184  0.4293  1.3157 -0.3593
   52CHL1    C2 3821   2.345   6.037   6.973 -0.0986  0.5944 -0.0947
   52CHL1   H2A 3822   2.241   6.020   6.937 -0.2584  3.6678 -1.2388
   52CHL1   H2B 3823   2.421   5.990   6.908  0.5800 -1.7637  2.3112
   52CHL1   C20 3824   2.600   5.721   7.827 -0.0925 -0.8271 -0.6178
   52CHL1   H20 3825   2.707   5.701   7.804  0.6805  1.3843  0.9141
   52CHL1   C21 3826   2.515   5.596   7.785 -0.4965  0.4703 -0.5790
   52CHL1  H21A 3827   2.570   5.517   7.728 -1.9131  0.2644 -1.7007
   52CHL1  H21B 3828   2.433   5.644   7.726 -1.7504  0.6499  1.2824
   52CHL1  H21C 3829   2.458   5.563   7.874  0.7691  1.3950  0.5876
   52CHL1   C22 3830   2.596   5.734   7.982 -0.2421  0.0556 -0.1547
   52CHL1  H22A 3831   2.664   5.818   8.009 -1.4018  0.8422  0.3544
   52CHL1  H22B 3832   2.500   5.764   8.029 -0.6058 -0.0406 -0.8372
   52CHL1   C23 3833   2.653   5.604   8.046  0.0108 -0.2269  0.9616
   52CHL1  H23A 3834   2.628   5.509   7.994 -2.6086  1.1064 -0.2994
   52CHL1  H23B 3835   2.764   5.611   8.053  0.0176 -0.4367  1.0672
   52CHL1   C24 3836   2.595   5.582   8.188 -0.8621  0.7657 -0.3081
   52CHL1  H24A 3837   2.567   5.678   8.236 -1.6391 -0.1511  1.1078
   52CHL1  H24B 3838   2.510   5.513   8.169 -0.7829  0.2876  1.0462
   52CHL1   C25 3839   2.694   5.508   8.283 -0.1579 -0.3558  0.2025
   52CHL1   H25 3840   2.787   5.569   8.293 -0.5572  0.4472 -0.8714
   52CHL1   C26 3841   2.635   5.493   8.419  0.3433  0.7970 -0.0848
   52CHL1  H26A 3842   2.552   5.422   8.401 -0.3792  1.3848  0.8962
   52CHL1  H26B 3843   2.702   5.460   8.501 -0.2985 -0.1132  0.0730
   52CHL1  H26C 3844   2.579   5.586   8.444 -1.3374 -0.0180 -0.7593
   52CHL1   C27 3845   2.740   5.372   8.235 -0.1058 -0.5867 -0.1356
   52CHL1  H27A 3846   2.675   5.298   8.286  0.6421 -0.0283  1.6414
   52CHL1  H27B 3847   2.728   5.361   8.125  1.0769  0.7151 -0.4083
   52CHL1  H27C 3848   2.847   5.357   8.258 -0.0110 -1.6027 -1.1723
   53CHL1    C3 3849   5.519   2.604   7.022  0.3452 -0.0476  0.4263
   53CHL1    H3 3850   5.625   2.629   7.044  0.5947 -0.3794 -0.3694
   53CHL1    O3 3851   5.486   2.604   6.882 -0.0139  0.4638 -0.3559
   53CHL1   H3' 3852   5.525   2.524   6.845  0.8278  0.1361  1.2292
   53CHL1    C4 3853   5.487   2.461   7.076  0.3501  0.2579  1.0968
   53CHL1   H4A 3854   5.379   2.447   7.052 -0.0850  1.9284  2.0216
   53CHL1   H4B 3855   5.535   2.385   7.011  1.0702 -0.2026  2.1643
   53CHL1    C5 3856   5.518   2.458   7.224  0.1757 -0.2890 -0.3983
   53CHL1    C6 3857   5.598   2.368   7.265  0.4040  0.0590 -0.1767
   53CHL1    H6 3858   5.640   2.289   7.201  0.7698  1.0455 -1.1579
   53CHL1    C7 3859   5.629   2.352   7.407 -0.4876 -0.4337  0.5940
   53CHL1   H7A 3860   5.635   2.244   7.429  0.0527 -0.9323 -1.8475
   53CHL1   H7B 3861   5.732   2.382   7.436 -0.6038  0.1254  0.4410
   53CHL1    C8 3862   5.525   2.423   7.505 -0.2240  1.0852 -0.1134
   53CHL1    H8 3863   5.434   2.360   7.505  0.7998 -0.4306 -1.4101
   53CHL1   C14 3864   5.588   2.421   7.650  0.8800  0.2338 -0.3699
   53CHL1   H14 3865   5.669   2.494   7.633 -0.1046  1.1923 -1.0001
   53CHL1   C15 3866   5.642   2.292   7.707  0.2490  0.5306  0.7744
   53CHL1  H15A 3867   5.565   2.212   7.697  1.1534 -0.3166  0.4633
   53CHL1  H15B 3868   5.734   2.270   7.648  0.2859  1.9729  0.2764
   53CHL1   C16 3869   5.659   2.321   7.853  0.4851 -0.7524 -1.3653
   53CHL1  H16A 3870   5.595   2.252   7.912  0.3878 -1.4264 -2.2479
   53CHL1  H16B 3871   5.762   2.313   7.894  0.7302  2.8335 -1.1409
   53CHL1   C17 3872   5.606   2.465   7.878  0.3229 -0.2153  1.0402
   53CHL1   H17 3873   5.690   2.537   7.863 -0.5290  0.0822 -3.0105
   53CHL1   C13 3874   5.509   2.492   7.755 -0.0522  1.1087 -0.4606
   53CHL1   C18 3875   5.376   2.428   7.781  0.5899 -0.1626  0.0114
   53CHL1  H18A 3876   5.308   2.427   7.693 -0.8355  0.6428  1.0767
   53CHL1  H18B 3877   5.395   2.322   7.807 -1.5911 -0.5165  0.2455
   53CHL1  H18C 3878   5.321   2.477   7.865 -2.5302 -0.5841 -1.6897
   53CHL1   C12 3879   5.484   2.638   7.708 -0.2514 -0.0266 -0.3337
   53CHL1  H12A 3880   5.419   2.684   7.786  1.5779  1.1393  0.5500
   53CHL1  H12B 3881   5.583   2.688   7.716  0.6111 -2.1051  2.9894
   53CHL1   C11 3882   5.417   2.644   7.568  0.9109 -0.1966  0.1949
   53CHL1  H11A 3883   5.314   2.604   7.579  1.4128 -1.2033  1.3440
   53CHL1  H11B 3884   5.405   2.752   7.545  0.3126 -0.8800 -2.8329
   53CHL1    C9 3885   5.496   2.565   7.460 -0.0293  0.1814 -0.1737
   53CHL1    H9 3886   5.594   2.616   7.448 -1.1730  2.2774 -1.0595
   53CHL1   C10 3887   5.446   2.560   7.314  0.1919 -0.1248  0.1688
   53CHL1   C19 3888   5.294   2.526   7.324 -0.2121 -0.0189 -0.3035
   53CHL1  H19A 3889   5.235   2.620   7.337 -1.1936 -0.6282 -0.3627
   53CHL1  H19B 3890   5.253   2.465   7.242  0.7993 -0.6652 -0.3383
   53CHL1  H19C 3891   5.275   2.470   7.418  0.0179  0.1731 -0.1403
   53CHL1    C1 3892   5.463   2.704   7.245 -0.2634  0.7829  0.5798
   53CHL1   H1A 3893   5.388   2.770   7.294 -2.7100 -0.5654 -1.2320
   53CHL1   H1B 3894   5.562   2.753   7.259 -1.1589  2.1592  2.2298
   53CHL1    C2 3895   5.425   2.707   7.095 -0.1301 -0.4886 -0.4283
   53CHL1   H2A 3896   5.438   2.808   7.050 -1.6028 -0.1339 -0.0746
   53CHL1   H2B 3897   5.319   2.677   7.082 -0.3070  0.3935 -1.0005
   53CHL1   C20 3898   5.551   2.489   8.024  0.3905  1.0610 -0.3621
   53CHL1   H20 3899   5.471   2.417   8.049 -0.1700  1.1279 -1.8857
   53CHL1   C21 3900   5.502   2.625   8.044 -0.2482 -0.0192  0.1516
   53CHL1  H21A 3901   5.405   2.639   7.992 -0.7250  1.3980  1.3762
   53CHL1  H21B 3902   5.571   2.700   8.001 -1.2523  0.1692 -1.1746
   53CHL1  H21C 3903   5.498   2.652   8.151  0.2789  0.3510  0.0836
   53CHL1   C22 3904   5.657   2.445   8.128 -0.1473 -0.1391 -0.4295
   53CHL1  H22A 3905   5.686   2.340   8.110 -1.3937 -1.2349  3.5600
   53CHL1  H22B 3906   5.748   2.505   8.105  0.4530 -0.4246  1.1405
   53CHL1   C23 3907   5.617   2.467   8.273  0.1447  0.0933  0.2142
   53CHL1  H23A 3908   5.697   2.537   8.306  1.1769  0.0710 -2.1477
   53CHL1  H23B 3909   5.531   2.532   8.299  0.9198  1.4245 -0.5215
   53CHL1   C24 3910   5.608   2.344   8.368 -0.2268 -0.0382 -0.1963
   53CHL1  H24A 3911   5.524   2.279   8.337  0.9546 -0.8670 -1.7538
   53CHL1  H24B 3912   5.701   2.284   8.360 -0.3724 -0.3302  0.2673
   53CHL1   C25 3913   5.602   2.382   8.520  0.1228 -0.0120  0.1248
   53CHL1   H25 3914   5.688   2.448   8.547 -1.6044  1.5811  1.8407
   53CHL1   C26 3915   5.482   2.457   8.574  0.2047  0.0407  0.7539
   53CHL1  H26A 3916   5.395   2.444   8.506 -0.0521  0.5399  0.9880
   53CHL1  H26B 3917   5.457   2.423   8.677  0.8961  0.6581  1.1297
   53CHL1  H26C 3918   5.506   2.565   8.583  0.8173 -0.1616  1.6054
   53CHL1   C27 3919   5.611   2.253   8.608 -0.7392  0.0733 -0.5606
   53CHL1  H27A 3920   5.642   2.277   8.712 -0.2204  1.3021 -0.9853
   53CHL1  H27B 3921   5.515   2.199   8.621  0.6371 -2.9872 -2.6023
   53CHL1  H27C 3922   5.685   2.184   8.562 -1.4008 -2.3443  1.9096
   54CHL1    C3 3923   5.678   4.135   6.962  0.4548 -0.2153  0.6340
   54CHL1    H3 3924   5.623   4.229   6.987 -0.4346  0.1590 -2.5435
   54CHL1    O3 3925   5.691   4.122   6.822  0.2655  0.4241  0.1478
   54CHL1   H3' 3926   5.746   4.045   6.805 -0.9642 -0.4518  0.0324
   54CHL1    C4 3927   5.819   4.155   7.014  0.4458  0.5914  0.5796
   54CHL1   H4A 3928   5.889   4.072   6.989  0.5477  0.6287  0.7434
   54CHL1   H4B 3929   5.861   4.245   6.963  1.2790 -1.0367 -1.7121
   54CHL1    C5 3930   5.825   4.169   7.163  0.5519  0.0600 -0.3777
   54CHL1    C6 3931   5.886   4.274   7.225  0.5562  0.4438  0.2064
   54CHL1    H6 3932   5.947   4.346   7.170  2.1312 -0.5395  0.6196
   54CHL1    C7 3933   5.893   4.286   7.377 -0.6300  0.2261 -0.0326
   54CHL1   H7A 3934   5.997   4.322   7.394 -0.4959 -1.0094  1.9127
   54CHL1   H7B 3935   5.825   4.364   7.415  1.8674  1.4818  2.0706
   54CHL1    C8 3936   5.850   4.158   7.451 -0.4545 -0.2712  1.1871
   54CHL1    H8 3937   5.934   4.085   7.445 -0.7373 -0.4454 -1.7611
   54CHL1   C14 3938   5.809   4.197   7.593 -0.7420  0.7781 -0.9538
   54CHL1   H14 3939   5.715   4.254   7.576 -1.5739 -0.6790 -1.3321
   54CHL1   C15 3940   5.903   4.282   7.681  0.0872  0.5788 -0.6414
   54CHL1  H15A 3941   6.005   4.241   7.676 -0.2664 -0.5392  1.0772
   54CHL1  H15B 3942   5.903   4.387   7.644  0.7215  0.6750 -0.3586
   54CHL1   C16 3943   5.858   4.260   7.823  0.3791 -0.0429  0.2467
   54CHL1  H16A 3944   5.948   4.234   7.883  0.0224  0.0101  0.8044
   54CHL1  H16B 3945   5.805   4.342   7.875 -0.9705 -0.2072 -0.8364
   54CHL1   C17 3946   5.756   4.142   7.822  0.2644  0.6573 -0.4439
   54CHL1   H17 3947   5.659   4.196   7.821  1.0501  2.0882 -1.4730
   54CHL1   C13 3948   5.770   4.077   7.686  1.0225 -0.3570  0.1412
   54CHL1   C18 3949   5.884   3.977   7.696  0.0649  0.1443 -0.1236
   54CHL1  H18A 3950   5.906   3.939   7.594  1.3198  0.6111 -0.0474
   54CHL1  H18B 3951   5.980   4.022   7.730  1.3293  0.1287 -3.4915
   54CHL1  H18C 3952   5.863   3.895   7.768  0.7638 -1.1081 -1.3302
   54CHL1   C12 3953   5.642   4.022   7.621 -0.6623  0.2027 -0.3115
   54CHL1  H12A 3954   5.597   3.937   7.677 -1.6657  1.5289  0.9488
   54CHL1  H12B 3955   5.561   4.094   7.595 -0.7482  0.6875  1.2042
   54CHL1   C11 3956   5.676   3.977   7.480  0.0616 -0.1208  0.6259
   54CHL1  H11A 3957   5.748   3.892   7.480  0.2645  0.0523  0.0581
   54CHL1  H11B 3958   5.581   3.936   7.439 -0.2168 -1.2876  2.3529
   54CHL1    C9 3959   5.736   4.084   7.388 -0.1859  0.3668 -0.2927
   54CHL1    H9 3960   5.662   4.167   7.387 -0.3399  0.2226 -0.6198
   54CHL1   C10 3961   5.751   4.056   7.242 -0.2182 -0.2853 -1.0458
   54CHL1   C19 3962   5.834   3.924   7.224 -0.3787 -0.1592 -0.7561
   54CHL1  H19A 3963   5.781   3.838   7.271  2.2840 -1.4067  0.0864
   54CHL1  H19B 3964   5.846   3.909   7.115 -0.0157 -1.6072 -0.5324
   54CHL1  H19C 3965   5.936   3.925   7.269 -0.2983  1.9565 -0.9513
   54CHL1    C1 3966   5.612   4.030   7.181 -0.2043  0.3208 -0.7039
   54CHL1   H1A 3967   5.579   3.931   7.219  3.1326 -0.2855  0.7200
   54CHL1   H1B 3968   5.529   4.092   7.223 -1.1999 -1.8761  0.6959
   54CHL1    C2 3969   5.610   4.020   7.026  1.1852  0.1894 -0.3904
   54CHL1   H2A 3970   5.506   4.032   6.989  0.9226  3.6486  1.2553
   54CHL1   H2B 3971   5.660   3.926   6.994  1.0908  0.6087 -1.8143
   54CHL1   C20 3972   5.776   4.052   7.946 -0.2598  0.2562 -0.8092
   54CHL1   H20 3973   5.869   3.993   7.937  0.1794  0.6302  1.1503
   54CHL1   C21 3974   5.666   3.952   7.940 -0.9424 -0.1183 -0.6444
   54CHL1  H21A 3975   5.684   3.870   7.867 -0.7369 -0.8295  0.1914
   54CHL1  H21B 3976   5.565   3.991   7.917 -1.5104 -1.0999  0.1306
   54CHL1  H21C 3977   5.660   3.897   8.037 -0.7826  1.4261  0.2570
   54CHL1   C22 3978   5.787   4.119   8.090 -0.1776  0.5385 -0.0327
   54CHL1  H22A 3979   5.892   4.151   8.102  0.8021 -2.0779 -1.2485
   54CHL1  H22B 3980   5.712   4.200   8.104  1.8943  2.5167 -0.1302
   54CHL1   C23 3981   5.773   4.018   8.204 -0.7237 -0.2189  0.2791
   54CHL1  H23A 3982   5.666   3.986   8.212 -0.9248  0.4356  0.2016
   54CHL1  H23B 3983   5.840   3.930   8.191  0.8025  1.1086 -0.9745
   54CHL1   C24 3984   5.795   4.082   8.343  0.3680 -0.4099 -0.6478
   54CHL1  H24A 3985   5.905   4.101   8.349  0.2974 -0.2862  0.3160
   54CHL1  H24B 3986   5.744   4.181   8.350 -0.3432 -0.8559  0.5281
   54CHL1   C25 3987   5.758   4.011   8.472  0.3923 -0.1413  0.0010
   54CHL1   H25 3988   5.803   3.910   8.472  1.9474  0.4908  2.8407
   54CHL1   C26 3989   5.812   4.071   8.602 -0.3326  0.3195  0.0959
   54CHL1  H26A 3990   5.767   4.014   8.686 -0.1949  0.0677 -0.0019
   54CHL1  H26B 3991   5.922   4.056   8.604 -0.3733 -0.1218 -0.6355
   54CHL1  H26C 3992   5.774   4.172   8.627  0.7952  0.8583 -0.3322
   54CHL1   C27 3993   5.607   3.986   8.473  0.3665 -0.8414 -0.3180
   54CHL1  H27A 3994   5.583   3.914   8.392 -0.3520 -0.8083 -0.1407
   54CHL1  H27B 3995   5.558   3.949   8.566  1.3382  1.0925  0.9836
   54CHL1  H27C 3996   5.555   4.080   8.446  1.7289  0.1352  0.4276
   55CHL1    C3 3997   5.756   5.200   6.711 -0.5569  0.3940  0.4507
   55CHL1    H3 3998   5.654   5.239   6.689 -0.4378 -0.4160 -1.6306
   55CHL1    O3 3999   5.826   5.152   6.593 -0.4363  0.2335 -0.7686
   55CHL1   H3' 4000   5.908   5.115   6.626  0.5761  0.2126 -3.2750
   55CHL1    C4 4001   5.838   5.313   6.776 -0.8035  0.3716  0.5903
   55CHL1   H4A 4002   5.944   5.282   6.774 -1.4944 -2.4050  2.4373
   55CHL1   H4B 4003   5.835   5.400   6.708  2.0059  0.3202  0.3615
   55CHL1    C5 4004   5.788   5.347   6.915  0.3163  0.4417 -0.3066
   55CHL1    C6 4005   5.758   5.472   6.944  0.1456 -0.3374  0.0772
   55CHL1    H6 4006   5.779   5.539   6.859  0.9109  0.4297  0.8532
   55CHL1    C7 4007   5.702   5.516   7.081 -0.1117  0.0336  0.5666
   55CHL1   H7A 4008   5.741   5.618   7.103 -1.7880  0.8561 -0.2073
   55CHL1   H7B 4009   5.591   5.516   7.081 -0.1196  0.5700  1.4889
   55CHL1    C8 4010   5.741   5.416   7.193  0.4774 -0.2374  0.1342
   55CHL1    H8 4011   5.850   5.434   7.207  0.6243 -0.4488 -0.7249
   55CHL1   C14 4012   5.683   5.453   7.329 -0.3965 -1.1479 -0.0545
   55CHL1   H14 4013   5.574   5.464   7.312 -0.7644 -0.9805  2.2835
   55CHL1   C15 4014   5.724   5.588   7.394  0.1334  0.4683  1.2014
   55CHL1  H15A 4015   5.830   5.616   7.377  0.0202  0.6510  0.7933
   55CHL1  H15B 4016   5.666   5.662   7.335  1.3352  0.3007 -0.2083
   55CHL1   C16 4017   5.669   5.566   7.541 -0.5144  0.4167 -0.1271
   55CHL1  H16A 4018   5.761   5.564   7.604  0.8941 -0.4186 -2.1407
   55CHL1  H16B 4019   5.594   5.641   7.573 -0.9035  0.0566 -0.1822
   55CHL1   C17 4020   5.611   5.425   7.543 -0.3675 -0.2631  0.6252
   55CHL1   H17 4021   5.505   5.435   7.512 -0.4509 -1.3741  0.5224
   55CHL1   C13 4022   5.690   5.348   7.431 -0.0765  0.0308  0.4719
   55CHL1   C18 4023   5.845   5.326   7.466  0.3612 -0.8494  0.3885
   55CHL1  H18A 4024   5.850   5.251   7.548  2.5112 -2.1177 -0.8553
   55CHL1  H18B 4025   5.898   5.281   7.379 -0.3260 -1.9028  0.5095
   55CHL1  H18C 4026   5.903   5.414   7.500 -0.0411  0.3974 -2.0324
   55CHL1   C12 4027   5.640   5.215   7.386 -0.0743  0.4489  0.5169
   55CHL1  H12A 4028   5.659   5.133   7.459 -1.0655 -0.4677 -0.2388
   55CHL1  H12B 4029   5.529   5.225   7.392 -0.0653  0.1838  1.2722
   55CHL1   C11 4030   5.704   5.167   7.252 -0.2850 -0.4537  0.6239
   55CHL1  H11A 4031   5.812   5.143   7.267 -0.9903 -2.5413  2.6695
   55CHL1  H11B 4032   5.651   5.075   7.219 -1.3319  0.3831 -0.0534
   55CHL1    C9 4033   5.700   5.273   7.147  0.1365  0.2035  0.4790
   55CHL1    H9 4034   5.595   5.282   7.114  0.4908  0.4061 -0.6248
   55CHL1   C10 4035   5.776   5.231   7.015  0.3514 -0.3321 -0.0162
   55CHL1   C19 4036   5.921   5.177   7.039 -0.7407 -0.0051 -0.2863
   55CHL1  H19A 4037   5.974   5.163   6.942  1.1868  1.5354  0.5210
   55CHL1  H19B 4038   5.986   5.235   7.107 -0.0800 -1.2778  0.1917
   55CHL1  H19C 4039   5.919   5.081   7.095  0.9354 -0.2926 -0.6853
   55CHL1    C1 4040   5.686   5.129   6.941  0.5371  0.8928  0.3957
   55CHL1   H1A 4041   5.683   5.044   7.013 -0.9425  0.5039 -0.1054
   55CHL1   H1B 4042   5.587   5.177   6.931 -0.0321 -0.8399 -3.3928
   55CHL1    C2 4043   5.734   5.085   6.804  0.2572  0.0866  0.2141
   55CHL1   H2A 4044   5.661   5.012   6.761  0.2252  0.5767 -0.5689
   55CHL1   H2B 4045   5.833   5.038   6.820  1.3841  2.2506 -0.2258
   55CHL1   C20 4046   5.601   5.364   7.692 -0.0733  0.8593 -0.7613
   55CHL1   H20 4047   5.703   5.321   7.707 -0.4520  0.0313 -0.5483
   55CHL1   C21 4048   5.503   5.243   7.685  0.0734 -0.0513  0.3178
   55CHL1  H21A 4049   5.551   5.155   7.639  1.6083 -0.0160  1.8251
   55CHL1  H21B 4050   5.401   5.269   7.647  0.2251  0.8039  0.4875
   55CHL1  H21C 4051   5.490   5.218   7.793  2.7365  0.0380  0.6823
   55CHL1   C22 4052   5.561   5.445   7.807 -0.2396 -1.0303 -0.6829
   55CHL1  H22A 4053   5.592   5.549   7.786 -0.0853 -1.3920 -2.3133
   55CHL1  H22B 4054   5.451   5.453   7.820 -0.0626 -1.5915  1.3720
   55CHL1   C23 4055   5.614   5.406   7.949 -0.7690  0.3852  0.4473
   55CHL1  H23A 4056   5.670   5.310   7.953 -0.4466  0.5804  0.6097
   55CHL1  H23B 4057   5.685   5.485   7.983  0.8716 -0.4072 -1.0089
   55CHL1   C24 4058   5.497   5.394   8.039 -0.2434  0.3730  0.3871
   55CHL1  H24A 4059   5.445   5.489   8.064  1.3016  1.7811 -1.6116
   55CHL1  H24B 4060   5.423   5.331   7.984 -1.2129 -1.4084  3.6151
   55CHL1   C25 4061   5.530   5.314   8.172  0.0487 -0.6339 -0.0201
   55CHL1   H25 4062   5.571   5.215   8.142  1.3004 -0.4862  1.1693
   55CHL1   C26 4063   5.640   5.394   8.241  0.2247 -0.7182 -1.1856
   55CHL1  H26A 4064   5.598   5.494   8.263  2.0470  0.1004 -1.2797
   55CHL1  H26B 4065   5.671   5.331   8.328  0.0447 -1.0575 -1.3681
   55CHL1  H26C 4066   5.729   5.403   8.175 -0.4985  1.5806 -1.8911
   55CHL1   C27 4067   5.407   5.302   8.262  0.0384  0.3212 -0.0799
   55CHL1  H27A 4068   5.437   5.251   8.357  2.9516 -2.6721 -2.4615
   55CHL1  H27B 4069   5.354   5.398   8.276  1.7332  1.6057 -2.0762
   55CHL1  H27C 4070   5.336   5.241   8.203  0.0808  0.0761  0.1235
   56CHL1    C3 4071   5.025   3.668   6.871 -0.3190  0.4154 -0.2881
   56CHL1    H3 4072   4.940   3.597   6.876  1.1326 -1.3526 -0.2777
   56CHL1    O3 4073   5.086   3.639   6.739 -0.0245  0.2983  0.0242
   56CHL1   H3' 4074   5.146   3.565   6.747 -2.0384 -1.7617 -2.8868
   56CHL1    C4 4075   4.990   3.813   6.896 -0.1179  0.3863 -0.1887
   56CHL1   H4A 4076   5.082   3.875   6.888  0.9543 -1.4724 -2.7732
   56CHL1   H4B 4077   4.919   3.851   6.820  0.4663  0.5456 -0.6572
   56CHL1    C5 4078   4.943   3.831   7.039  0.2500  0.6099 -0.2564
   56CHL1    C6 4079   4.822   3.879   7.054 -0.4538  0.3072 -0.5332
   56CHL1    H6 4080   4.766   3.910   6.965 -2.1650  1.2050  0.8117
   56CHL1    C7 4081   4.749   3.893   7.186 -0.2218  0.1798 -0.1750
   56CHL1   H7A 4082   4.686   3.984   7.195  0.0963  0.5974 -2.0013
   56CHL1   H7B 4083   4.673   3.813   7.203 -0.7746  0.3135 -1.9887
   56CHL1    C8 4084   4.855   3.886   7.304  0.4743 -0.2548  0.3878
   56CHL1    H8 4085   4.917   3.978   7.303 -0.7927  0.6026 -1.4418
   56CHL1   C14 4086   4.780   3.862   7.434  0.1056 -0.0077 -0.2515
   56CHL1   H14 4087   4.736   3.760   7.430 -0.1658 -0.0052  1.6993
   56CHL1   C15 4088   4.656   3.950   7.471  0.1045 -0.7156 -0.0345
   56CHL1  H15A 4089   4.671   4.057   7.445  1.2150 -0.7381  0.5031
   56CHL1  H15B 4090   4.565   3.913   7.418  1.0951 -1.4891 -1.2431
   56CHL1   C16 4091   4.649   3.934   7.621  0.2944 -0.3651  0.2297
   56CHL1  H16A 4092   4.660   4.036   7.663 -1.0423  0.0346 -0.3412
   56CHL1  H16B 4093   4.548   3.896   7.649  0.3381  0.7669  1.9624
   56CHL1   C17 4094   4.774   3.852   7.673 -0.1540 -0.3966  0.4567
   56CHL1   H17 4095   4.737   3.748   7.671  1.3919 -0.9765  1.0714
   56CHL1   C13 4096   4.870   3.869   7.554 -0.5443  0.1893 -0.6631
   56CHL1   C18 4097   4.948   4.004   7.566  0.3568  0.0635  0.0658
   56CHL1  H18A 4098   5.030   4.018   7.492 -0.2108 -3.4392 -1.3036
   56CHL1  H18B 4099   4.883   4.092   7.585 -1.3613 -1.2066  0.1465
   56CHL1  H18C 4100   5.010   3.991   7.658  0.8173  1.5125 -0.0305
   56CHL1   C12 4101   4.964   3.748   7.533  0.3342  0.5804 -0.6502
   56CHL1  H12A 4102   5.042   3.746   7.612 -0.9511  0.8521  0.6189
   56CHL1  H12B 4103   4.903   3.656   7.544 -0.4022  0.8041 -2.6261
   56CHL1   C11 4104   5.039   3.744   7.404 -0.1934  0.7214  0.2862
   56CHL1  H11A 4105   5.128   3.809   7.412 -1.0511  1.9488  0.0517
   56CHL1  H11B 4106   5.075   3.639   7.396 -2.0149  0.0415  0.7866
   56CHL1    C9 4107   4.944   3.766   7.279  0.1601  0.2221  0.2463
   56CHL1    H9 4108   4.885   3.672   7.282 -1.7238  1.3882  0.7472
   56CHL1   C10 4109   5.031   3.774   7.151 -0.2521 -0.5752 -0.4918
   56CHL1   C19 4110   5.144   3.879   7.160 -0.7949  0.1229  0.1302
   56CHL1  H19A 4111   5.210   3.894   7.072 -0.3697  0.2329  0.4656
   56CHL1  H19B 4112   5.101   3.978   7.185 -2.1803 -0.5017  0.3040
   56CHL1  H19C 4113   5.209   3.849   7.244  0.2886 -1.1220 -1.1287
   56CHL1    C1 4114   5.074   3.631   7.109 -0.7401 -0.3698  0.0895
   56CHL1   H1A 4115   5.147   3.592   7.183  0.8227  1.9419 -0.1837
   56CHL1   H1B 4116   4.981   3.570   7.110 -0.4824 -0.7689 -0.0948
   56CHL1    C2 4117   5.131   3.617   6.975 -0.0323  0.4470 -0.1574
   56CHL1   H2A 4118   5.154   3.511   6.951  3.4856  1.0472  0.2659
   56CHL1   H2B 4119   5.220   3.682   6.964 -0.5156  1.1902  0.2712
   56CHL1   C20 4120   4.800   3.891   7.820 -0.6302 -0.5655 -0.0137
   56CHL1   H20 4121   4.837   3.995   7.824  0.5887 -1.0098  0.4111
   56CHL1   C21 4122   4.914   3.797   7.867 -0.1242 -0.1925  0.1497
   56CHL1  H21A 4123   5.006   3.803   7.805  0.6667  1.6359  1.4407
   56CHL1  H21B 4124   4.886   3.690   7.870 -0.3220 -0.1427  0.0621
   56CHL1  H21C 4125   4.953   3.819   7.969  1.3434 -0.3651 -0.3586
   56CHL1   C22 4126   4.672   3.880   7.911 -0.0548  0.4288  0.0353
   56CHL1  H22A 4127   4.595   3.958   7.893  1.5907  1.9509 -0.4831
   56CHL1  H22B 4128   4.617   3.787   7.885  1.5135 -0.4416 -0.2664
   56CHL1   C23 4129   4.695   3.868   8.068 -0.0822 -0.2547 -0.1646
   56CHL1  H23A 4130   4.779   3.800   8.097  1.5854  2.2092  0.9401
   56CHL1  H23B 4131   4.727   3.967   8.108  3.7028 -1.4909  0.0792
   56CHL1   C24 4132   4.565   3.828   8.132  0.7918 -0.5608  0.1598
   56CHL1  H24A 4133   4.480   3.890   8.096  0.5965  1.5869  4.0039
   56CHL1  H24B 4134   4.555   3.721   8.104  0.7834 -0.8435  1.2202
   56CHL1   C25 4135   4.557   3.824   8.283  0.4062  0.3564  0.3065
   56CHL1   H25 4136   4.645   3.765   8.315  3.0089  3.3525 -1.0202
   56CHL1   C26 4137   4.574   3.963   8.347 -0.3427  0.0661  0.0771
   56CHL1  H26A 4138   4.498   4.035   8.308 -0.3879  0.3081  0.5997
   56CHL1  H26B 4139   4.674   4.010   8.334 -0.0403 -0.8637 -1.0314
   56CHL1  H26C 4140   4.558   3.953   8.457 -0.9591 -0.8154 -0.0872
   56CHL1   C27 4141   4.424   3.760   8.327 -0.3905  0.2567 -0.1185
   56CHL1  H27A 4142   4.420   3.738   8.436  2.3297 -2.2798 -0.4843
   56CHL1  H27B 4143   4.337   3.821   8.293 -0.4771  0.7070  0.9070
   56CHL1  H27C 4144   4.407   3.660   8.282  0.2394 -0.2937  0.8690
   57SAPC     N 4145   5.404   0.915  11.228 -0.0784  0.6222 -0.1607
   57SAPC   C12 4146   5.484   0.972  11.111 -0.0703 -0.1151  0.4851
   57SAPC  H12A 4147   5.588   0.943  11.112  0.2309  0.9365  0.1257
   57SAPC  H12B 4148   5.505   1.076  11.128 -0.7837  0.1351 -0.1246
   57SAPC   C13 4149   5.268   0.964  11.227  0.1487 -0.1006 -0.6603
   57SAPC  H13A 4150   5.258   1.070  11.244 -1.8840 -0.2285 -0.9941
   57SAPC  H13B 4151   5.213   0.941  11.137 -2.2355 -0.3438  0.8200
   57SAPC  H13C 4152   5.209   0.928  11.310  1.1759 -0.2203  0.0244
   57SAPC   C14 4153   5.402   0.765  11.225 -0.0815  0.0758  0.6812
   57SAPC  H14A 4154   5.499   0.729  11.257 -1.3750 -2.3335  1.9910
   57SAPC  H14B 4155   5.334   0.720  11.295 -0.7672 -0.1038 -0.0923
   57SAPC  H14C 4156   5.365   0.738  11.127  2.3921  1.5087 -0.7039
   57SAPC   C15 4157   5.464   0.961  11.359 -0.6944 -0.2274 -0.6322
   57SAPC  H15A 4158   5.412   0.916  11.442 -3.3107  3.6470 -0.0638
   57SAPC  H15B 4159   5.571   0.947  11.368 -0.5958  0.7254 -0.3237
   57SAPC  H15C 4160   5.454   1.068  11.365 -0.0136 -0.1197 -1.3279
   57SAPC   C11 4161   5.430   0.951  10.966  0.3514 -0.5135 -0.0491
   57SAPC  H11A 4162   5.485   1.013  10.892 -0.5824  0.6045  0.1675
   57SAPC  H11B 4163   5.327   0.991  10.954  0.4739  0.2042  1.2024
   57SAPC     P 4164   5.565   0.738  10.899 -0.5086 -0.0091 -0.2545
   57SAPC   O13 4165   5.674   0.829  10.933 -0.0176 -0.7596  0.5822
   57SAPC   O14 4166   5.573   0.611  10.974 -0.2276  0.1548 -0.7098
   57SAPC   O12 4167   5.430   0.818  10.925 -0.1553  0.2378  0.2855
   57SAPC   O11 4168   5.576   0.709  10.735  0.2153  0.1739 -0.0750
   57SAPC    C1 4169   5.482   0.772  10.649 -0.0580  1.0959 -0.1553
   57SAPC    HA 4170   5.463   0.875  10.686 -1.4407  0.4449  1.0121
   57SAPC    HB 4171   5.531   0.781  10.550 -1.4493 -1.8892 -1.1938
   57SAPC    C2 4172   5.347   0.696  10.632 -0.8797  0.6163 -0.1647
   57SAPC    HS 4173   5.308   0.679  10.735  0.5088  0.1041  0.2952
   57SAPC   O21 4174   5.377   0.573  10.568  0.0859  0.3367  0.3993
   57SAPC   C21 4175   5.298   0.471  10.606  0.8930 -0.0448  0.0322
   57SAPC   O22 4176   5.209   0.480  10.688 -0.4570 -0.2020  0.0493
   57SAPC   C22 4177   5.336   0.352  10.517  0.3577  0.3248 -0.0539
   57SAPC   H2R 4178   5.372   0.370  10.413  1.0981  2.6695  0.5845
   57SAPC   H2S 4179   5.426   0.307  10.563  0.0848 -0.1765 -0.0055
   57SAPC    C3 4180   5.244   0.778  10.568 -0.2729 -0.0848  1.1321
   57SAPC    HX 4181   5.256   0.878  10.615 -1.5173 -0.0655  1.4237
   57SAPC    HY 4182   5.146   0.743  10.610 -1.4411  0.6600 -0.9299
   57SAPC   O31 4183   5.242   0.771  10.421 -0.0539  0.3757 -0.4274
   57SAPC   C31 4184   5.312   0.860  10.353  0.4807 -0.0470 -0.1050
   57SAPC   O32 4185   5.391   0.939  10.405 -0.2441 -0.3529  0.2069
   57SAPC   C32 4186   5.275   0.841  10.207  0.0086 -0.1313  0.4568
   57SAPC   H2X 4187   5.164   0.839  10.217 -0.0579  1.3355  0.0482
   57SAPC   H2Y 4188   5.316   0.745  10.170  0.6881  0.1599  0.4447
   57SAPC   C23 4189   5.213   0.254  10.496  0.0143  0.2792 -0.3011
   57SAPC   H3R 4190   5.152   0.243  10.588 -0.6705 -2.4412 -1.0436
   57SAPC   H3S 4191   5.262   0.155  10.480  0.2174  0.3231  0.0520
   57SAPC   C24 4192   5.138   0.283  10.365 -0.1976  0.1753 -0.1374
   57SAPC   H4R 4193   5.056   0.209  10.356  0.1031  0.0834 -2.5133
   57SAPC   H4S 4194   5.200   0.258  10.276 -0.2381  0.1501 -0.1567
   57SAPC   C25 4195   5.087   0.422  10.362 -0.4413  0.3301  0.0251
   57SAPC   H5R 4196   5.041   0.459  10.454 -1.0072  1.6449 -0.7794
   57SAPC   C26 4197   5.092   0.499  10.248  0.1488 -0.0334  0.1856
   57SAPC   H6R 4198   5.045   0.598  10.262 -1.4200 -0.6527 -0.5554
   57SAPC   C27 4199   5.161   0.467  10.124 -0.2928  0.3012 -0.4278
   57SAPC   H7R 4200   5.116   0.524  10.040 -3.0106  1.1709  1.5575
   57SAPC   H7S 4201   5.129   0.366  10.089 -1.7543  0.7660 -0.4727
   57SAPC   C28 4202   5.312   0.472  10.130 -0.0360  0.5094  0.2380
   57SAPC   H8R 4203   5.341   0.496  10.234  1.6551 -1.2332  0.2036
   57SAPC   C29 4204   5.406   0.453  10.035 -0.3165  1.2567  0.2426
   57SAPC   H9R 4205   5.512   0.461  10.067 -0.4971 -1.0270  1.4697
   57SAPC  C210 4206   5.386   0.409   9.890 -0.2583  0.0430 -0.0848
   57SAPC  H10R 4207   5.283   0.422   9.851  0.6685  1.0121 -2.2564
   57SAPC  H10S 4208   5.394   0.298   9.886  0.4716  0.0687  0.4103
   57SAPC  C211 4209   5.472   0.479   9.792 -0.6135  0.0610 -0.0778
   57SAPC  H11R 4210   5.443   0.585   9.783 -0.6295  0.0146 -0.5851
   57SAPC  C212 4211   5.580   0.438   9.729 -0.3589  0.0401 -0.6257
   57SAPC  H12R 4212   5.624   0.488   9.642 -2.0540  0.3595 -1.3142
   57SAPC  C213 4213   5.640   0.305   9.754 -0.1893 -0.2086  0.4588
   57SAPC  H13R 4214   5.557   0.230   9.754  0.6746 -1.2021 -1.9731
   57SAPC  H13S 4215   5.682   0.311   9.857  0.2990 -2.9032  0.4550
   57SAPC  C214 4216   5.750   0.257   9.656 -0.2867 -0.0156  0.1116
   57SAPC  H14R 4217   5.812   0.344   9.628 -1.4285  0.4195 -1.0617
   57SAPC  C215 4218   5.775   0.144   9.599 -0.5038 -0.1194 -0.8965
   57SAPC  H15R 4219   5.866   0.134   9.537  0.1137 -0.5482  0.0595
   57SAPC  C216 4220   5.703   0.020   9.623 -0.2073 -0.0914  0.2295
   57SAPC  H16R 4221   5.665  -0.017   9.525 -1.7349 -1.0233  1.1447
   57SAPC  H16S 4222   5.611   0.037   9.683 -0.8572 -0.5511 -0.6187
   57SAPC  C217 4223   5.785  -0.083   9.701  0.1334 -0.3308  0.2626
   57SAPC  H17R 4224   5.885  -0.086   9.651  0.3997 -2.2807  0.8925
   57SAPC  H17S 4225   5.750  -0.187   9.687  1.0527 -0.5717 -0.2960
   57SAPC  C218 4226   5.795  -0.060   9.853  0.1636 -0.4427 -1.1218
   57SAPC  H18R 4227   5.697  -0.022   9.888 -0.2056 -0.8297 -1.7168
   57SAPC  H18S 4228   5.871   0.018   9.872  0.4632 -0.5598 -1.8351
   57SAPC  C219 4229   5.832  -0.186   9.935 -0.1908 -0.6709 -0.4437
   57SAPC  H19R 4230   5.936  -0.204   9.899 -0.2489  0.3145 -1.1201
   57SAPC  H19S 4231   5.765  -0.274   9.927 -0.7330 -0.1035 -2.4556
   57SAPC  C220 4232   5.861  -0.164  10.090  0.6288  0.1567  0.6471
   57SAPC  H20R 4233   5.917  -0.252  10.130  0.3841  0.5347  1.8281
   57SAPC  H20S 4234   5.771  -0.155  10.154 -0.4405 -0.9560 -0.6553
   57SAPC  H20T 4235   5.919  -0.073  10.116 -0.9334  1.5130 -0.5613
   57SAPC   C33 4236   5.312   0.953  10.105  0.4471  0.3826  0.5401
   57SAPC   H3X 4237   5.422   0.948  10.118  0.3556 -1.1536  0.8272
   57SAPC   H3Y 4238   5.273   1.052  10.138  0.0742  0.7593 -0.9641
   57SAPC   C34 4239   5.275   0.910   9.967  0.6430 -0.4427  0.5705
   57SAPC   H4X 4240   5.174   0.951   9.948 -1.0800 -4.0802  1.2775
   57SAPC   H4Y 4241   5.271   0.799   9.957  1.5183 -0.1181 -4.6853
   57SAPC   C35 4242   5.391   0.960   9.873  0.6797 -0.5914  0.5264
   57SAPC   H5X 4243   5.486   0.912   9.902  0.4697 -2.8510 -2.3413
   57SAPC   H5Y 4244   5.400   1.070   9.889 -0.2612 -0.1795 -1.6662
   57SAPC   C36 4245   5.367   0.943   9.720  0.0865 -0.0036  0.2250
   57SAPC   H6X 4246   5.377   0.833   9.705  1.9739  0.1353  0.3717
   57SAPC   H6Y 4247   5.447   0.997   9.666 -0.2660 -0.0869 -0.3787
   57SAPC   C37 4248   5.228   0.996   9.674  0.2612 -1.0438  0.5892
   57SAPC   H7X 4249   5.209   1.098   9.712 -1.9702 -0.9294 -0.7919
   57SAPC   H7Y 4250   5.148   0.941   9.727 -0.3585  1.2161  2.0796
   57SAPC   C38 4251   5.214   1.000   9.524 -0.0304  0.3566  0.1770
   57SAPC   H8X 4252   5.255   0.905   9.484  2.7905  0.8901  1.7128
   57SAPC   H8Y 4253   5.272   1.090   9.492  0.8739 -0.0286  0.7206
   57SAPC   C39 4254   5.070   1.013   9.479 -0.3553 -0.1162  0.0908
   57SAPC   H9X 4255   5.028   1.112   9.504 -0.2099  1.4057 -5.0943
   57SAPC   H9Y 4256   5.001   0.957   9.545  0.2485  0.2743  1.0509
   57SAPC  C310 4257   5.043   0.987   9.335  0.0902  0.0889  0.1595
   57SAPC  H10X 4258   4.937   0.959   9.320  0.4130 -2.3145  1.9680
   57SAPC  H10Y 4259   5.116   0.909   9.306 -0.5697 -0.1171 -0.9747
   57SAPC  C311 4260   5.063   1.108   9.245  0.6896  0.0460  0.4653
   57SAPC  H11X 4261   5.166   1.148   9.258  0.9154  0.2856 -1.9076
   57SAPC  H11Y 4262   5.003   1.194   9.280  1.5508  0.8303  0.0392
   57SAPC  C312 4263   5.046   1.066   9.102  0.0109  0.0529  0.5501
   57SAPC  H12X 4264   5.117   0.982   9.087 -0.6561 -0.3722 -0.3040
   57SAPC  H12Y 4265   5.075   1.149   9.035  1.3261 -2.0849 -1.6178
   57SAPC  C313 4266   4.902   1.026   9.055  0.9309 -0.5019  0.2179
   57SAPC  H13X 4267   4.852   1.123   9.069 -0.6681 -1.0203 -1.6986
   57SAPC  H13Y 4268   4.854   0.947   9.117  0.8245 -0.1247  0.6133
   57SAPC  C314 4269   4.895   0.967   8.914  0.3694  0.6970 -0.3382
   57SAPC  H14X 4270   4.943   1.046   8.852 -1.1549  0.9925 -1.1731
   57SAPC  H14Y 4271   4.788   0.962   8.883  0.0712  1.0176  0.6425
   57SAPC  C315 4272   4.957   0.831   8.898  0.1602 -0.4159  0.3316
   57SAPC  H15X 4273   4.900   0.762   8.965  2.4455 -1.5827  1.1592
   57SAPC  H15Y 4274   5.061   0.830   8.936  0.6837 -1.1163 -1.0718
   57SAPC  C316 4275   4.960   0.782   8.755 -0.1252  0.1049 -0.0731
   57SAPC  H16X 4276   4.984   0.674   8.752  0.6578  0.3311 -2.4761
   57SAPC  H16Y 4277   5.043   0.831   8.700 -0.8022  1.7623  0.3391
   57SAPC  C317 4278   4.832   0.806   8.670  0.1512  0.6035  0.5270
   57SAPC  H17X 4279   4.807   0.914   8.662 -0.0672  0.5846  0.9364
   57SAPC  H17Y 4280   4.737   0.768   8.713  0.2643  2.8515  2.8875
   57SAPC  C318 4281   4.846   0.751   8.524  0.1893 -0.2353 -0.0024
   57SAPC  H18X 4282   4.853   0.640   8.520  2.2115 -0.0856 -1.7771
   57SAPC  H18Y 4283   4.935   0.799   8.477  0.3409  0.2743  0.7932
   57SAPC  H18Z 4284   4.761   0.768   8.456 -0.0806 -4.1188 -0.7097
   58SAPC     N 4285   0.889   5.169  10.945  0.4812 -0.6493 -0.1036
   58SAPC   C12 4286   1.016   5.106  10.872  0.0351 -0.4528  0.0420
   58SAPC  H12A 4287   1.044   5.010  10.913 -1.4392 -0.9603 -0.1058
   58SAPC  H12B 4288   1.094   5.179  10.884  2.4637 -2.7727 -1.1359
   58SAPC   C13 4289   0.779   5.067  10.928  0.1031  0.1562  0.4354
   58SAPC  H13A 4290   0.693   5.114  10.972 -1.5928 -0.1773 -2.3932
   58SAPC  H13B 4291   0.752   5.061  10.823  0.4491  2.0315  0.2162
   58SAPC  H13C 4292   0.794   4.967  10.967 -1.6372 -0.2319  0.1429
   58SAPC   C14 4293   0.904   5.179  11.092  0.4226  0.4670  0.3288
   58SAPC  H14A 4294   0.928   5.087  11.142 -1.1980 -0.6765 -0.9491
   58SAPC  H14B 4295   0.966   5.263  11.118  0.4799  0.5164  0.0253
   58SAPC  H14C 4296   0.808   5.209  11.133  1.2224  0.3204  2.3689
   58SAPC   C15 4297   0.848   5.295  10.879  0.3898  0.3905 -0.7875
   58SAPC  H15A 4298   0.767   5.338  10.935 -0.1599 -0.7644 -0.6951
   58SAPC  H15B 4299   0.932   5.364  10.879 -2.0430  3.4852  1.1414
   58SAPC  H15C 4300   0.815   5.286  10.776  2.2235 -0.8070 -1.2897
   58SAPC   C11 4301   1.000   5.076  10.712 -0.3611 -0.4467  0.1221
   58SAPC  H11A 4302   1.105   5.058  10.682  0.8382 -0.1590  3.8324
   58SAPC  H11B 4303   0.951   5.156  10.653 -3.6658 -2.9933 -0.7156
   58SAPC     P 4304   0.813   4.940  10.574  0.2978 -0.2190  0.1777
   58SAPC   O13 4305   0.794   4.791  10.557 -0.0704 -0.5582 -0.4806
   58SAPC   O14 4306   0.706   5.032  10.612 -0.1326 -0.1782  0.4804
   58SAPC   O12 4307   0.932   4.959  10.688 -0.1656  0.1906  0.2133
   58SAPC   O11 4308   0.879   4.992  10.433 -0.6681 -0.0564  0.1568
   58SAPC    C1 4309   0.969   4.909  10.361  0.9092  0.2251  0.0509
   58SAPC    HA 4310   1.071   4.903  10.404  0.6164 -0.6801  0.6494
   58SAPC    HB 4311   0.934   4.803  10.363 -0.2162  0.5460 -1.3420
   58SAPC    C2 4312   0.983   4.946  10.204 -0.0343 -0.0520  0.0096
   58SAPC    HS 4313   1.043   4.865  10.157  0.2840 -0.4901  1.1687
   58SAPC   O21 4314   1.037   5.075  10.174 -0.6066 -0.0976 -0.7241
   58SAPC   C21 4315   1.168   5.089  10.193  0.3997 -0.0460 -0.0224
   58SAPC   O22 4316   1.240   5.007  10.246  0.3265  0.3351  0.1410
   58SAPC   C22 4317   1.208   5.224  10.128  0.3529 -0.0373 -0.3035
   58SAPC   H2R 4318   1.117   5.270  10.083  0.0713  0.3497  0.6368
   58SAPC   H2S 4319   1.245   5.292  10.208 -1.3790  1.2908 -0.6123
   58SAPC    C3 4320   0.851   4.926  10.123  0.2665 -0.1616  0.6961
   58SAPC    HX 4321   0.774   4.977  10.184 -0.6980 -1.2879  0.4458
   58SAPC    HY 4322   0.832   4.817  10.110 -0.4625  0.0285  0.1032
   58SAPC   O31 4323   0.860   4.984   9.989  0.1815  0.0591 -0.6539
   58SAPC   C31 4324   0.739   5.019   9.938  0.4621 -0.4978 -0.1686
   58SAPC   O32 4325   0.631   4.981   9.981  0.3512 -0.1194  0.0154
   58SAPC   C32 4326   0.756   5.118   9.821 -0.1099 -0.1646  0.3208
   58SAPC   H2X 4327   0.840   5.188   9.842 -0.1615 -0.0014 -0.0104
   58SAPC   H2Y 4328   0.668   5.186   9.825  0.4014  0.6344 -1.5789
   58SAPC   C23 4329   1.320   5.212  10.019 -0.0924 -0.1268  0.1447
   58SAPC   H3R 4330   1.405   5.167  10.075  0.3274 -1.0374 -1.2128
   58SAPC   H3S 4331   1.346   5.313   9.982  0.6544  1.1243  3.8285
   58SAPC   C24 4332   1.286   5.114   9.899 -0.8691 -0.7948  0.4516
   58SAPC   H4R 4333   1.251   5.013   9.931  1.1974 -1.4802  0.6096
   58SAPC   H4S 4334   1.382   5.104   9.843 -0.4087  0.6868  0.9562
   58SAPC   C25 4335   1.169   5.183   9.832 -0.8149  0.0736 -0.8322
   58SAPC   H5R 4336   1.076   5.175   9.890 -1.4056  1.5445 -1.5409
   58SAPC   C26 4337   1.170   5.249   9.718 -0.0041 -0.2645 -0.5052
   58SAPC   H6R 4338   1.077   5.290   9.676  2.3444  1.2526 -4.5632
   58SAPC   C27 4339   1.292   5.274   9.630 -0.1006  0.6539  0.5367
   58SAPC   H7R 4340   1.379   5.299   9.695 -0.7886 -0.0410  1.7422
   58SAPC   H7S 4341   1.280   5.364   9.565 -2.9408  0.0484  0.1343
   58SAPC   C28 4342   1.322   5.152   9.553  0.8285  0.3347 -0.2144
   58SAPC   H8R 4343   1.354   5.066   9.614 -0.3297 -1.3872 -1.9702
   58SAPC   C29 4344   1.300   5.131   9.412  0.9861  0.3459  0.5642
   58SAPC   H9R 4345   1.322   5.035   9.363 -0.4808  0.7488 -0.9202
   58SAPC  C210 4346   1.241   5.232   9.317  0.0609  0.0569  0.0790
   58SAPC  H10R 4347   1.311   5.317   9.302 -0.9305  0.3519 -3.3337
   58SAPC  H10S 4348   1.154   5.289   9.354  0.2350  1.8786 -2.2206
   58SAPC  C211 4349   1.182   5.179   9.187 -0.3074  0.4654 -0.0885
   58SAPC  H11R 4350   1.090   5.118   9.191 -0.6698  0.8159 -2.2304
   58SAPC  C212 4351   1.239   5.177   9.067 -0.1597  0.3811 -0.3510
   58SAPC  H12R 4352   1.180   5.135   8.984  0.9079  3.0741 -2.5655
   58SAPC  C213 4353   1.379   5.221   9.035  0.1826  0.5085 -0.4769
   58SAPC  H13R 4354   1.437   5.147   9.094  1.3533  2.0518  0.3327
   58SAPC  H13S 4355   1.400   5.317   9.087 -1.3631  0.7487 -0.2644
   58SAPC  C214 4356   1.419   5.223   8.894  0.0877 -0.0719  0.6814
   58SAPC  H14R 4357   1.491   5.147   8.859  1.7940  1.2040  1.3035
   58SAPC  C215 4358   1.376   5.317   8.802 -0.0831  0.5739 -0.2437
   58SAPC  H15R 4359   1.408   5.307   8.697  0.3964 -1.0090  0.0338
   58SAPC  C216 4360   1.284   5.423   8.829  0.2025 -0.0748  0.0017
   58SAPC  H16R 4361   1.320   5.467   8.925  0.1521 -0.0825  0.0235
   58SAPC  H16S 4362   1.183   5.386   8.860 -0.6186 -1.0356 -3.6109
   58SAPC  C217 4363   1.257   5.542   8.741 -0.0633 -0.5288 -1.1035
   58SAPC  H17R 4364   1.181   5.612   8.782 -2.3682 -2.6925 -1.5507
   58SAPC  H17S 4365   1.205   5.517   8.646 -3.2017 -0.9616  0.6820
   58SAPC  C218 4366   1.386   5.629   8.707 -0.5294  0.4433  0.5639
   58SAPC  H18R 4367   1.475   5.573   8.670  0.0436  0.2124  2.2633
   58SAPC  H18S 4368   1.410   5.684   8.801  0.1217 -0.7605  1.1030
   58SAPC  C219 4369   1.348   5.715   8.593 -0.8277 -0.1999  0.9245
   58SAPC  H19R 4370   1.403   5.811   8.595  2.4966 -2.0581  1.9356
   58SAPC  H19S 4371   1.242   5.748   8.601  0.0023  2.8649 -0.1207
   58SAPC  C220 4372   1.370   5.651   8.449  1.3731  0.1815  0.1809
   58SAPC  H20R 4373   1.315   5.557   8.428  2.5019 -0.2650 -0.7862
   58SAPC  H20S 4374   1.477   5.632   8.426  0.9606 -2.5983  0.3465
   58SAPC  H20T 4375   1.339   5.725   8.373  2.7322  1.2947  0.6825
   58SAPC   C33 4376   0.763   5.052   9.683  0.0597 -0.5160  0.0388
   58SAPC   H3X 4377   0.676   4.986   9.663  0.4526 -1.7408  2.2074
   58SAPC   H3Y 4378   0.849   4.981   9.679 -1.5821 -2.5032 -1.4019
   58SAPC   C34 4379   0.784   5.158   9.575 -0.8181 -0.6297  0.2185
   58SAPC   H4X 4380   0.889   5.193   9.575 -1.5319  1.7348 -1.9977
   58SAPC   H4Y 4381   0.711   5.240   9.590 -0.1248  0.4716 -2.2278
   58SAPC   C35 4382   0.758   5.116   9.427  0.1554  0.0568  0.0905
   58SAPC   H5X 4383   0.659   5.068   9.414 -1.0298  2.3953  0.2814
   58SAPC   H5Y 4384   0.834   5.039   9.400 -1.2754 -1.9148  1.5900
   58SAPC   C36 4385   0.764   5.233   9.330 -0.6804  0.4337  0.1307
   58SAPC   H6X 4386   0.846   5.300   9.365 -1.3379  0.6929  1.1886
   58SAPC   H6Y 4387   0.668   5.283   9.305 -0.0410  1.2220 -0.8098
   58SAPC   C37 4388   0.811   5.170   9.190  0.8516 -0.4670 -0.6912
   58SAPC   H7X 4389   0.729   5.103   9.153  1.1058  0.0274 -2.1974
   58SAPC   H7Y 4390   0.904   5.109   9.195  1.6149  0.8745  1.9911
   58SAPC   C38 4391   0.828   5.272   9.076 -0.4145 -0.3755 -0.0341
   58SAPC   H8X 4392   0.922   5.320   9.110  0.3823 -1.4660 -0.6479
   58SAPC   H8Y 4393   0.736   5.333   9.072 -0.7187 -0.8770 -0.7641
   58SAPC   C39 4394   0.848   5.211   8.932 -0.3030  0.2247 -0.1452
   58SAPC   H9X 4395   0.752   5.156   8.919 -1.1580  1.8516 -0.7587
   58SAPC   H9Y 4396   0.943   5.154   8.941  0.3104  0.8869 -2.1103
   58SAPC  C310 4397   0.865   5.319   8.831  0.4621  0.1241  0.6026
   58SAPC  H10X 4398   0.942   5.391   8.867 -0.0475 -0.3418  2.7438
   58SAPC  H10Y 4399   0.782   5.393   8.831 -1.7200 -2.2330  1.9206
   58SAPC  C311 4400   0.893   5.262   8.695  0.1930  1.1436 -0.4913
   58SAPC  H11X 4401   0.811   5.194   8.665  0.1351  1.6521 -1.5127
   58SAPC  H11Y 4402   0.986   5.202   8.707  0.5200  2.1108  2.2846
   58SAPC  C312 4403   0.881   5.368   8.583 -0.2270 -0.0721 -0.1327
   58SAPC  H12X 4404   0.932   5.457   8.627 -1.3465 -0.0794  1.2023
   58SAPC  H12Y 4405   0.776   5.399   8.567 -0.3468  0.0688  0.8845
   58SAPC  C313 4406   0.956   5.337   8.453 -0.6490  0.8687 -0.2715
   58SAPC  H13X 4407   0.949   5.432   8.396  0.7637  1.6521  0.8360
   58SAPC  H13Y 4408   0.902   5.262   8.393  0.2969  0.7814 -1.0242
   58SAPC  C314 4409   1.094   5.275   8.471 -0.3295 -0.4815  0.8775
   58SAPC  H14X 4410   1.083   5.174   8.516  0.4546 -0.0979  1.9473
   58SAPC  H14Y 4411   1.142   5.344   8.543 -3.0944  2.1416  0.3039
   58SAPC  C315 4412   1.168   5.265   8.332  0.3595  0.1021  1.3199
   58SAPC  H15X 4413   1.198   5.364   8.292  0.9254  0.0996  1.7302
   58SAPC  H15Y 4414   1.093   5.225   8.261  0.8825 -0.2582  0.9687
   58SAPC  C316 4415   1.292   5.175   8.338 -0.1436  0.2119  0.1726
   58SAPC  H16X 4416   1.272   5.086   8.401 -0.8112 -0.4605 -0.9930
   58SAPC  H16Y 4417   1.375   5.237   8.379  0.5918  0.9864 -2.3987
   58SAPC  C317 4418   1.330   5.128   8.199  0.8466  0.0536 -0.0497
   58SAPC  H17X 4419   1.230   5.103   8.159  0.4379 -0.4404  1.2560
   58SAPC  H17Y 4420   1.397   5.039   8.202 -1.5884 -1.8283 -0.7014
   58SAPC  C318 4421   1.384   5.237   8.105  0.5752  0.0758  0.7910
   58SAPC  H18X 4422   1.491   5.258   8.127  0.5138 -0.1714  1.3366
   58SAPC  H18Y 4423   1.318   5.327   8.109 -0.0511 -0.2477 -1.5464
   58SAPC  H18Z 4424   1.373   5.204   8.000  0.5881  0.5581  0.6365
   59SAPC     N 4425   2.220   5.933  11.259  0.0079  0.3028  0.3316
   59SAPC   C12 4426   2.357   5.973  11.227 -0.1511  0.1467  0.1424
   59SAPC  H12A 4427   2.410   5.882  11.205 -0.8640 -0.6898  1.7713
   59SAPC  H12B 4428   2.388   6.012  11.323 -0.1604 -3.3223  1.6168
   59SAPC   C13 4429   2.143   6.054  11.289  0.1280  0.0388  0.0358
   59SAPC  H13A 4430   2.143   6.122  11.206  1.1366 -0.0048 -0.0047
   59SAPC  H13B 4431   2.039   6.036  11.310  0.2425 -0.8549 -0.1118
   59SAPC  H13C 4432   2.200   6.101  11.367  1.0806  1.4371 -1.4584
   59SAPC   C14 4433   2.151   5.866  11.146  0.3184  0.0191  0.2946
   59SAPC  H14A 4434   2.216   5.789  11.108 -1.2852 -1.4014  0.3705
   59SAPC  H14B 4435   2.055   5.833  11.184  0.1468  0.9745  0.7173
   59SAPC  H14C 4436   2.137   5.927  11.058  0.3810 -2.3924 -1.4532
   59SAPC   C15 4437   2.224   5.831  11.357  0.2026  0.1114 -0.2852
   59SAPC  H15A 4438   2.270   5.738  11.328 -0.9567 -0.9425  1.1912
   59SAPC  H15B 4439   2.287   5.867  11.437  2.0758  0.1724 -1.7515
   59SAPC  H15C 4440   2.134   5.810  11.413  0.1507  1.0084 -0.0263
   59SAPC   C11 4441   2.391   6.072  11.118 -0.4858 -0.2703 -0.6677
   59SAPC  H11A 4442   2.354   6.035  11.019 -0.9539 -0.5021 -0.4099
   59SAPC  H11B 4443   2.501   6.069  11.108 -0.5188 -0.1153 -1.1308
   59SAPC     P 4444   2.425   6.332  11.155 -0.1910  0.8247 -0.1425
   59SAPC   O13 4445   2.355   6.449  11.211  0.3266  0.2055  0.3733
   59SAPC   O14 4446   2.552   6.286  11.223  0.5171  0.3352  0.1851
   59SAPC   O12 4447   2.337   6.203  11.149  0.0412  0.0975  0.3696
   59SAPC   O11 4448   2.446   6.358  10.996 -0.4979  0.4324 -0.5160
   59SAPC    C1 4449   2.364   6.456  10.933  0.4238 -0.0754  0.6479
   59SAPC    HA 4450   2.256   6.429  10.946 -0.0003  1.5927  0.6565
   59SAPC    HB 4451   2.379   6.547  10.994  1.5353  0.2156 -0.0646
   59SAPC    C2 4452   2.391   6.485  10.787 -0.1190  0.4827  0.3212
   59SAPC    HS 4453   2.354   6.401  10.726  3.2882  1.3437 -3.1695
   59SAPC   O21 4454   2.532   6.497  10.768  0.3060  0.8221  0.1850
   59SAPC   C21 4455   2.571   6.474  10.649 -0.3419  0.0837  0.1267
   59SAPC   O22 4456   2.510   6.417  10.562 -0.0454 -0.2843 -0.3192
   59SAPC   C22 4457   2.712   6.527  10.640 -0.1446  0.6268 -0.1548
   59SAPC   H2R 4458   2.750   6.557  10.740 -1.1052  1.9620 -0.1754
   59SAPC   H2S 4459   2.779   6.443  10.610 -1.4174 -0.3587 -0.3036
   59SAPC    C3 4460   2.317   6.609  10.749  0.2169  0.5174  0.0960
   59SAPC    HX 4461   2.354   6.696  10.806  1.1039 -0.1164  0.4951
   59SAPC    HY 4462   2.211   6.599  10.781 -0.2266 -0.6815 -1.6302
   59SAPC   O31 4463   2.328   6.641  10.614  0.5218  0.0680  0.2005
   59SAPC   C31 4464   2.228   6.595  10.542  0.3315 -0.4752  0.2713
   59SAPC   O32 4465   2.140   6.515  10.568  0.8541  0.1459  0.6186
   59SAPC   C32 4466   2.236   6.660  10.406  0.2361  0.4677  0.0647
   59SAPC   H2X 4467   2.340   6.644  10.370  0.1624 -0.0288  0.0806
   59SAPC   H2Y 4468   2.215   6.768  10.425  0.1089 -0.0744  3.2225
   59SAPC   C23 4469   2.730   6.647  10.545  0.1265 -0.6978 -0.1000
   59SAPC   H3R 4470   2.687   6.737  10.594 -1.3003 -0.7200 -1.2864
   59SAPC   H3S 4471   2.672   6.619  10.455  3.1413  1.6038 -2.8409
   59SAPC   C24 4472   2.872   6.690  10.515 -0.2424  1.0285 -0.0766
   59SAPC   H4R 4473   2.934   6.598  10.529 -0.3819  0.9731  0.1845
   59SAPC   H4S 4474   2.927   6.758  10.583  0.9638 -1.0136  1.0601
   59SAPC   C25 4475   2.876   6.761  10.382 -0.3328  0.7405 -0.3345
   59SAPC   H5R 4476   2.844   6.865  10.400  1.3340  0.7010  3.2809
   59SAPC   C26 4477   2.902   6.702  10.265 -0.6145  0.0263 -0.1042
   59SAPC   H6R 4478   2.899   6.763  10.173  0.2326  0.9375  0.4619
   59SAPC   C27 4479   2.955   6.563  10.241  0.6825 -0.4332  0.5502
   59SAPC   H7R 4480   2.936   6.493  10.325  2.5217  2.5015  3.5952
   59SAPC   H7S 4481   3.066   6.565  10.239  0.6880 -1.3003 -0.4332
   59SAPC   C28 4482   2.891   6.500  10.114  0.1215 -0.3230 -0.1841
   59SAPC   H8R 4483   2.794   6.451  10.130 -0.0304 -0.6417 -1.9108
   59SAPC   C29 4484   2.931   6.523   9.990  0.6147  0.3361 -0.3221
   59SAPC   H9R 4485   2.887   6.455   9.915 -0.8719  1.3483 -0.3981
   59SAPC  C210 4486   3.048   6.602   9.936  0.0052  0.1255 -0.2280
   59SAPC  H10R 4487   3.117   6.530   9.888  1.3221  0.3571  1.3050
   59SAPC  H10S 4488   3.112   6.653  10.011 -0.4582  1.8467 -0.9519
   59SAPC  C211 4489   3.004   6.698   9.826  0.9406 -0.4934  0.4815
   59SAPC  H11R 4490   2.940   6.783   9.853 -0.8282 -2.0224  1.2233
   59SAPC  C212 4491   3.043   6.691   9.695  0.0999  0.4849 -0.0383
   59SAPC  H12R 4492   3.010   6.772   9.628  0.2562  0.9874  0.4933
   59SAPC  C213 4493   3.124   6.594   9.623 -0.1572  0.8670  0.4209
   59SAPC  H13R 4494   3.063   6.570   9.534 -0.9408  1.2030  0.8620
   59SAPC  H13S 4495   3.141   6.508   9.691  0.4157  1.5088  1.1065
   59SAPC  C214 4496   3.261   6.650   9.579 -0.4994 -0.6473 -0.3954
   59SAPC  H14R 4497   3.298   6.726   9.650 -0.3412 -0.3679 -0.7757
   59SAPC  C215 4498   3.329   6.622   9.464  0.1264  0.0933 -0.5361
   59SAPC  H15R 4499   3.409   6.691   9.432  1.5025 -1.0898  0.2877
   59SAPC  C216 4500   3.294   6.520   9.357 -0.6154 -0.1846  0.6049
   59SAPC  H16R 4501   3.217   6.455   9.403  1.2531 -2.2627  0.8914
   59SAPC  H16S 4502   3.378   6.451   9.333 -0.3776  0.1595  0.4235
   59SAPC  C217 4503   3.240   6.572   9.217 -0.3266  0.0542  0.1501
   59SAPC  H17R 4504   3.139   6.614   9.236 -0.5293 -0.6453  0.6400
   59SAPC  H17S 4505   3.218   6.481   9.157  1.0657 -0.6941  0.7512
   59SAPC  C218 4506   3.333   6.661   9.146  0.0497 -0.5564  0.4123
   59SAPC  H18R 4507   3.437   6.635   9.174  0.1154  0.2269  0.9014
   59SAPC  H18S 4508   3.319   6.766   9.179  1.8776 -0.2358  0.2327
   59SAPC  C219 4509   3.306   6.662   8.992 -0.4281  0.5131  0.2849
   59SAPC  H19R 4510   3.198   6.683   8.980 -0.2102  2.0111  0.8096
   59SAPC  H19S 4511   3.330   6.563   8.947  0.7951  0.0260  1.9277
   59SAPC  C220 4512   3.386   6.770   8.922 -1.0611 -0.7802  0.0394
   59SAPC  H20R 4513   3.355   6.783   8.816 -0.8423 -0.4001  0.0225
   59SAPC  H20S 4514   3.492   6.739   8.934 -1.2234 -1.4101 -0.1337
   59SAPC  H20T 4515   3.371   6.866   8.976 -2.8826 -0.3837 -1.1215
   59SAPC   C33 4516   2.135   6.610  10.303 -0.1194  0.8207 -0.5681
   59SAPC   H3X 4517   2.035   6.648  10.335 -1.0684 -0.1708 -2.2750
   59SAPC   H3Y 4518   2.132   6.499  10.298  2.2910  0.7846 -1.8612
   59SAPC   C34 4519   2.168   6.675  10.166 -0.0388  0.7074  0.5619
   59SAPC   H4X 4520   2.276   6.661  10.146 -0.1735 -2.3495  1.6961
   59SAPC   H4Y 4521   2.166   6.785  10.180  0.7569  0.7171  0.6007
   59SAPC   C35 4522   2.077   6.626  10.048 -0.3626 -0.0417 -0.0538
   59SAPC   H5X 4523   1.970   6.622  10.076  0.0645  0.1661  1.6610
   59SAPC   H5Y 4524   2.105   6.522  10.020 -1.8205 -1.0397  2.0520
   59SAPC   C36 4525   2.098   6.707   9.916  0.2191 -0.0330 -0.2789
   59SAPC   H6X 4526   2.208   6.714   9.899 -0.1725  2.6882 -2.1318
   59SAPC   H6Y 4527   2.066   6.813   9.927  2.2273  0.5271  0.4633
   59SAPC   C37 4528   2.040   6.636   9.792 -0.0285 -0.8508  0.0023
   59SAPC   H7X 4529   1.929   6.642   9.788 -0.0917 -2.2153 -0.3094
   59SAPC   H7Y 4530   2.056   6.526   9.792 -1.3264 -1.0520  0.5549
   59SAPC   C38 4531   2.092   6.699   9.659  0.4465 -0.4167 -0.2483
   59SAPC   H8X 4532   2.203   6.688   9.658  0.5534  0.6721 -2.1396
   59SAPC   H8Y 4533   2.077   6.809   9.653  2.0495 -0.1909 -0.5161
   59SAPC   C39 4534   2.038   6.638   9.531 -0.3735 -0.2938 -0.2217
   59SAPC   H9X 4535   1.928   6.643   9.522 -0.4206 -1.2275 -0.1387
   59SAPC   H9Y 4536   2.075   6.533   9.524  1.0800  0.1535  0.4943
   59SAPC  C310 4537   2.097   6.725   9.417 -0.2095 -0.2398 -0.1053
   59SAPC  H10X 4538   2.204   6.740   9.439  0.4333 -0.2473 -3.0489
   59SAPC  H10Y 4539   2.054   6.828   9.413  0.7225  0.0971 -1.5425
   59SAPC  C311 4540   2.090   6.656   9.273 -0.2565 -1.0237  0.3175
   59SAPC  H11X 4541   2.090   6.545   9.276 -2.4036 -1.0324  0.4118
   59SAPC  H11Y 4542   2.180   6.690   9.217  1.2132 -3.8202  0.8505
   59SAPC  C312 4543   1.970   6.712   9.193  0.5179  0.5920 -0.4530
   59SAPC  H12X 4544   1.960   6.823   9.197  0.2611  0.4815  3.0169
   59SAPC  H12Y 4545   1.882   6.673   9.247  0.6606  1.2702  0.2685
   59SAPC  C313 4546   1.955   6.655   9.048 -0.2876 -0.3408 -0.7607
   59SAPC  H13X 4547   1.950   6.544   9.045  1.6481 -0.4171 -2.5093
   59SAPC  H13Y 4548   2.045   6.673   8.985  0.7585  2.4125  1.4191
   59SAPC  C314 4549   1.838   6.716   8.968  0.1481  0.1400 -0.0718
   59SAPC  H14X 4550   1.858   6.722   8.859  0.5145  2.4301  0.0955
   59SAPC  H14Y 4551   1.836   6.825   8.986  1.8855 -0.1637  2.0345
   59SAPC  C315 4552   1.693   6.668   8.983  0.1388 -0.0508 -0.4027
   59SAPC  H15X 4553   1.655   6.713   9.077 -0.4620  1.3062 -1.2799
   59SAPC  H15Y 4554   1.693   6.558   8.999 -1.1027 -0.0372 -0.2843
   59SAPC  C316 4555   1.583   6.702   8.882  0.0085 -0.6005  0.1365
   59SAPC  H16X 4556   1.592   6.651   8.784 -1.6713  1.5040 -1.1400
   59SAPC  H16Y 4557   1.569   6.810   8.862  1.1751 -0.5275 -0.3604
   59SAPC  C317 4558   1.452   6.644   8.939 -0.0033  0.7695  0.2632
   59SAPC  H17X 4559   1.441   6.675   9.045  2.8210  2.9984 -0.0309
   59SAPC  H17Y 4560   1.469   6.534   8.934  0.4091  0.7716  1.4154
   59SAPC  C318 4561   1.317   6.662   8.869  0.1674 -0.0101 -0.5195
   59SAPC  H18X 4562   1.315   6.627   8.763  0.4136 -0.7887 -0.2674
   59SAPC  H18Y 4563   1.299   6.770   8.848  1.3773  0.3501  0.2533
   59SAPC  H18Z 4564   1.228   6.618   8.920  0.4301 -1.0831 -0.9649
   60SAPC     N 4565   3.734   4.638  10.819  0.1205 -0.0578  0.0907
   60SAPC   C12 4566   3.748   4.781  10.760 -0.4873 -0.3494 -0.3426
   60SAPC  H12A 4567   3.658   4.837  10.786 -0.0953 -0.7956  2.1038
   60SAPC  H12B 4568   3.733   4.769  10.654  0.2262 -0.5864 -0.4162
   60SAPC   C13 4569   3.777   4.636  10.964  0.8867  0.1068  0.4112
   60SAPC  H13A 4570   3.877   4.675  10.976  0.7024  1.1396 -1.2734
   60SAPC  H13B 4571   3.714   4.706  11.017 -0.1328 -1.5167  1.3791
   60SAPC  H13C 4572   3.766   4.535  11.002  0.4070 -0.2045 -0.5689
   60SAPC   C14 4573   3.591   4.586  10.807 -0.4116  0.1747 -0.1297
   60SAPC  H14A 4574   3.525   4.621  10.886 -1.0045 -0.9368 -0.1155
   60SAPC  H14B 4575   3.555   4.604  10.707  0.7331  0.2388 -0.5372
   60SAPC  H14C 4576   3.593   4.480  10.830 -3.0670  0.1660  0.3120
   60SAPC   C15 4577   3.823   4.538  10.748 -0.1511  0.1222 -0.2088
   60SAPC  H15A 4578   3.791   4.441  10.783 -2.4082  1.6609  2.1712
   60SAPC  H15B 4579   3.804   4.532  10.642 -1.2687 -3.1322  0.1083
   60SAPC  H15C 4580   3.927   4.560  10.767  0.4290 -0.6697 -2.3644
   60SAPC   C11 4581   3.882   4.858  10.789  0.2694 -0.3179 -0.7890
   60SAPC  H11A 4582   3.907   4.862  10.898  1.2170 -0.2717 -1.0056
   60SAPC  H11B 4583   3.871   4.964  10.757 -1.1806  0.0948  0.9695
   60SAPC     P 4584   4.060   4.808  10.592 -0.0123 -0.3075  0.1234
   60SAPC   O13 4585   4.128   4.939  10.587 -0.4517  0.5460 -0.2716
   60SAPC   O14 4586   4.145   4.691  10.569  0.0562 -0.0751  0.2618
   60SAPC   O12 4587   4.001   4.793  10.739  0.4034  0.3898  0.0736
   60SAPC   O11 4588   3.936   4.821  10.498 -0.3998  0.1615  0.1436
   60SAPC    C1 4589   3.878   4.706  10.440  0.4077  0.1043 -0.2267
   60SAPC    HA 4590   3.923   4.612  10.478  0.0459  0.7767  1.9561
   60SAPC    HB 4591   3.774   4.716  10.480  0.0509  0.1489 -1.1599
   60SAPC    C2 4592   3.874   4.730  10.288  0.4431  0.1723  0.6737
   60SAPC    HS 4593   3.888   4.838  10.267  0.4898 -0.0230 -0.3212
   60SAPC   O21 4594   3.744   4.678  10.244  0.1342  0.1219 -0.7107
   60SAPC   C21 4595   3.687   4.744  10.148 -0.1861 -0.2919  0.0659
   60SAPC   O22 4596   3.725   4.855  10.108  0.3485 -0.0265 -0.3507
   60SAPC   C22 4597   3.574   4.660  10.099  0.1893  0.2696  0.1069
   60SAPC   H2R 4598   3.615   4.560  10.077  3.0911  1.3883  0.1558
   60SAPC   H2S 4599   3.500   4.640  10.179 -0.8105 -0.0945 -0.8970
   60SAPC    C3 4600   3.989   4.658  10.210 -0.2757 -0.0713 -0.8369
   60SAPC    HX 4601   3.993   4.551  10.239  0.9227  0.5158  1.2370
   60SAPC    HY 4602   4.085   4.707  10.238 -0.7064  0.1138  0.3257
   60SAPC   O31 4603   3.978   4.668  10.068 -0.3445 -0.2390 -0.5919
   60SAPC   C31 4604   4.048   4.574  10.002  0.0965  0.3361 -0.8902
   60SAPC   O32 4605   4.121   4.494  10.059  0.5947 -0.4987 -0.3092
   60SAPC   C32 4606   4.016   4.587   9.853 -0.1590 -0.5108 -0.5180
   60SAPC   H2X 4607   4.077   4.663   9.800 -0.2043 -1.1942 -1.5647
   60SAPC   H2Y 4608   3.909   4.615   9.838 -0.2972 -0.4293  0.6172
   60SAPC   C23 4609   3.514   4.710   9.966  0.2926 -0.0812  0.1012
   60SAPC   H3R 4610   3.465   4.808   9.983 -0.5292 -0.9504  3.0086
   60SAPC   H3S 4611   3.439   4.632   9.939  0.3473  0.0101 -0.3240
   60SAPC   C24 4612   3.621   4.726   9.853  0.1813 -0.4715 -0.9321
   60SAPC   H4R 4613   3.691   4.640   9.858  1.1933  0.3032 -1.5924
   60SAPC   H4S 4614   3.673   4.823   9.863 -1.3835  0.3829 -0.7986
   60SAPC   C25 4615   3.550   4.726   9.723 -0.2843  0.3275 -0.8584
   60SAPC   H5R 4616   3.444   4.697   9.724 -0.0673 -0.4879 -0.4895
   60SAPC   C26 4617   3.612   4.755   9.601  0.0085  0.4101 -0.7118
   60SAPC   H6R 4618   3.557   4.746   9.507 -1.7236 -1.3723  0.4516
   60SAPC   C27 4619   3.757   4.784   9.586 -0.2061  0.1307 -0.0448
   60SAPC   H7R 4620   3.811   4.743   9.674  2.3315 -0.3436 -1.7512
   60SAPC   H7S 4621   3.767   4.894   9.591  0.1399  0.0964  0.0488
   60SAPC   C28 4622   3.824   4.732   9.457 -0.1206 -0.9106 -0.0045
   60SAPC   H8R 4623   3.870   4.632   9.458  2.2461  0.1377  1.8130
   60SAPC   C29 4624   3.828   4.806   9.342  0.9908 -0.0769  0.9430
   60SAPC   H9R 4625   3.878   4.765   9.253 -1.3035 -1.5742  0.2910
   60SAPC  C210 4626   3.772   4.946   9.325  0.1460 -0.4916  0.0679
   60SAPC  H10R 4627   3.832   4.998   9.246 -1.6236 -0.0049 -0.9830
   60SAPC  H10S 4628   3.778   5.010   9.415 -0.1593  1.5915 -1.3466
   60SAPC  C211 4629   3.631   4.962   9.278 -0.7758 -0.0985  0.1430
   60SAPC  H11R 4630   3.562   4.945   9.362 -0.5135  0.8027  0.5443
   60SAPC  C212 4631   3.573   4.972   9.155  0.2357 -0.3427  0.3219
   60SAPC  H12R 4632   3.463   4.966   9.155  0.2119 -0.0748 -0.8275
   60SAPC  C213 4633   3.638   4.983   9.018 -0.0174 -0.1083  1.0557
   60SAPC  H13R 4634   3.577   4.930   8.941 -1.3803  3.8444 -0.7369
   60SAPC  H13S 4635   3.733   4.924   9.014  0.2305  0.3569 -0.1037
   60SAPC  C214 4636   3.669   5.124   8.973  1.0917 -0.6625 -0.5660
   60SAPC  H14R 4637   3.694   5.199   9.049  2.2111 -1.3416 -0.2561
   60SAPC  C215 4638   3.694   5.164   8.848  0.0338  0.2767 -0.4811
   60SAPC  H15R 4639   3.725   5.269   8.831  1.8392 -0.3429 -1.1442
   60SAPC  C216 4640   3.692   5.084   8.720 -0.9020 -0.5740  0.3171
   60SAPC  H16R 4641   3.659   4.982   8.748 -0.7552 -0.2959  1.5569
   60SAPC  H16S 4642   3.797   5.080   8.685  0.2890 -0.6409  3.6951
   60SAPC  C217 4643   3.606   5.148   8.613  0.2883 -0.3840 -0.2728
   60SAPC  H17R 4644   3.522   5.208   8.653  0.1889 -0.4816 -0.3330
   60SAPC  H17S 4645   3.552   5.071   8.553  2.3045 -2.8824  0.9718
   60SAPC  C218 4646   3.675   5.262   8.534  1.0743  0.2397  0.6550
   60SAPC  H18R 4647   3.726   5.332   8.604  0.1479  0.5710  1.0042
   60SAPC  H18S 4648   3.592   5.325   8.498 -0.4080 -0.1744  3.2569
   60SAPC  C219 4649   3.769   5.221   8.420  0.1123  0.1274  0.4882
   60SAPC  H19R 4650   3.739   5.135   8.355  1.3418 -0.2561  0.4094
   60SAPC  H19S 4651   3.862   5.174   8.460 -1.0670 -1.7752  1.0421
   60SAPC  C220 4652   3.810   5.327   8.318 -0.6999 -0.1126 -0.2986
   60SAPC  H20R 4653   3.921   5.320   8.306 -0.4760 -1.0546  2.0161
   60SAPC  H20S 4654   3.779   5.428   8.352  1.2256 -0.2876  2.2185
   60SAPC  H20T 4655   3.746   5.304   8.231 -0.7302  1.2548 -0.6447
   60SAPC   C33 4656   4.030   4.455   9.780  0.5411 -0.5449 -0.0331
   60SAPC   H3X 4657   3.951   4.387   9.816 -1.0957  2.3173  1.9491
   60SAPC   H3Y 4658   4.129   4.408   9.795  0.1506 -0.9633  1.2318
   60SAPC   C34 4659   4.013   4.468   9.634 -0.2192 -0.2532  0.1662
   60SAPC   H4X 4660   4.103   4.520   9.597 -0.1121 -1.6929 -1.6774
   60SAPC   H4Y 4661   3.923   4.531   9.615  0.2056  0.1474 -0.5153
   60SAPC   C35 4662   3.996   4.337   9.561  0.9308  0.6356 -0.4691
   60SAPC   H5X 4663   3.900   4.291   9.591  0.2394  1.6857 -1.0387
   60SAPC   H5Y 4664   4.064   4.258   9.599 -0.6807 -1.7237 -2.3312
   60SAPC   C36 4665   4.019   4.341   9.408 -0.3662 -1.3424 -1.0165
   60SAPC   H6X 4666   4.116   4.397   9.410 -2.0328  1.6431 -0.3494
   60SAPC   H6Y 4667   3.937   4.409   9.378  2.8001  2.7783 -0.9196
   60SAPC   C37 4668   4.031   4.211   9.343 -0.2422  0.5572  1.0259
   60SAPC   H7X 4669   3.933   4.160   9.339 -1.8569  3.6456 -1.0413
   60SAPC   H7Y 4670   4.099   4.138   9.391  1.1607 -0.4597 -2.3341
   60SAPC   C38 4671   4.078   4.224   9.196 -0.1050 -0.0441  1.0099
   60SAPC   H8X 4672   4.185   4.254   9.189 -0.4634  1.3469  1.2109
   60SAPC   H8Y 4673   4.021   4.304   9.144 -0.9281 -2.0452 -1.2472
   60SAPC   C39 4674   4.054   4.096   9.108 -0.6296 -0.3020  0.0590
   60SAPC   H9X 4675   3.947   4.068   9.101 -0.5209 -0.1684 -2.2083
   60SAPC   H9Y 4676   4.107   4.005   9.146  1.8712  0.7205 -0.9105
   60SAPC  C310 4677   4.094   4.116   8.961  1.1934 -0.8202 -0.1313
   60SAPC  H10X 4678   4.202   4.142   8.956  1.1763 -0.7941 -0.3685
   60SAPC  H10Y 4679   4.042   4.203   8.917 -1.4019 -1.3683  1.7429
   60SAPC  C311 4680   4.082   3.995   8.867 -0.2222  0.3600  0.5850
   60SAPC  H11X 4681   3.984   3.943   8.873 -0.2946  0.2642 -1.0955
   60SAPC  H11Y 4682   4.151   3.916   8.905 -0.3267  0.0495  0.1402
   60SAPC  C312 4683   4.108   4.030   8.717  0.2370 -0.3163  0.3841
   60SAPC  H12X 4684   4.023   4.094   8.685  0.3799 -1.7054 -3.0702
   60SAPC  H12Y 4685   4.099   3.935   8.659  0.2127 -0.2456  0.2708
   60SAPC  C313 4686   4.235   4.103   8.678  0.2615  0.2932  0.4070
   60SAPC  H13X 4687   4.220   4.207   8.714 -1.7331  0.1871 -0.0761
   60SAPC  H13Y 4688   4.238   4.103   8.567 -0.3348  0.1771  0.3883
   60SAPC  C314 4689   4.367   4.043   8.722 -0.2313 -0.6100  0.3656
   60SAPC  H14X 4690   4.395   3.941   8.688  2.4380 -0.2170  1.2093
   60SAPC  H14Y 4691   4.355   4.025   8.831 -1.6363 -0.7586  0.1968
   60SAPC  C315 4692   4.486   4.136   8.696 -1.0897 -0.4956 -0.6477
   60SAPC  H15X 4693   4.458   4.238   8.732  1.5832 -0.4185  1.3279
   60SAPC  H15Y 4694   4.511   4.140   8.588 -0.3391 -0.7009 -0.4808
   60SAPC  C316 4695   4.612   4.101   8.776 -0.3917  0.3088 -0.2828
   60SAPC  H16X 4696   4.583   4.085   8.882  1.2379  1.9720  0.4519
   60SAPC  H16Y 4697   4.685   4.185   8.775 -3.4743  3.0624  0.4617
   60SAPC  C317 4698   4.674   3.975   8.732 -0.2009  0.8282 -0.1781
   60SAPC  H17X 4699   4.726   4.001   8.637 -1.2179 -0.0584 -0.9811
   60SAPC  H17Y 4700   4.601   3.895   8.707  0.0262  0.3547  0.6597
   60SAPC  C318 4701   4.779   3.914   8.824  0.0887  0.5983 -0.4923
   60SAPC  H18X 4702   4.839   3.995   8.869  1.0871 -0.4647  0.1178
   60SAPC  H18Y 4703   4.847   3.848   8.766 -0.1416  0.0728 -0.1687
   60SAPC  H18Z 4704   4.732   3.856   8.906 -0.4339  2.7664  0.7757
   61SAPC     N 4705   4.836   3.378  11.136 -0.9752 -0.3716  0.0845
   61SAPC   C12 4706   4.830   3.526  11.187  0.4809  0.1920 -1.4852
   61SAPC  H12A 4707   4.918   3.544  11.247 -1.6582  2.2442  1.1892
   61SAPC  H12B 4708   4.745   3.532  11.253  0.2345  0.2530 -1.8060
   61SAPC   C13 4709   4.816   3.291  11.261 -0.0224 -0.3130  0.1800
   61SAPC  H13A 4710   4.772   3.199  11.227  1.1244  0.1223 -2.6505
   61SAPC  H13B 4711   4.911   3.280  11.311  0.8652 -0.0869 -1.4378
   61SAPC  H13C 4712   4.747   3.339  11.329  1.2693  0.9336  0.6535
   61SAPC   C14 4713   4.731   3.356  11.037  0.9952  0.7763 -0.3194
   61SAPC  H14A 4714   4.634   3.377  11.080  0.6065 -1.7368  0.1125
   61SAPC  H14B 4715   4.742   3.417  10.948 -0.9512  0.5139 -0.7635
   61SAPC  H14C 4716   4.726   3.257  10.994 -1.3487  1.6187 -2.1379
   61SAPC   C15 4717   4.965   3.344  11.072 -0.5626 -0.7253 -0.0687
   61SAPC  H15A 4718   5.043   3.356  11.146  0.5860 -0.6060 -1.2661
   61SAPC  H15B 4719   4.981   3.242  11.041  3.1336  0.7371 -3.4299
   61SAPC  H15C 4720   4.989   3.405  10.986 -0.1418 -0.8733 -0.0576
   61SAPC   C11 4721   4.831   3.638  11.083  0.2780  0.5522 -0.2985
   61SAPC  H11A 4722   4.805   3.739  11.121 -0.8345 -0.2419  1.1219
   61SAPC  H11B 4723   4.740   3.621  11.022 -2.2343  0.5827  3.3010
   61SAPC     P 4724   5.094   3.673  11.050 -0.1553 -0.0173 -0.5299
   61SAPC   O13 4725   5.090   3.781  11.149  0.2154 -0.4201 -0.4220
   61SAPC   O14 4726   5.177   3.555  11.083  0.5645  0.4308 -0.3901
   61SAPC   O12 4727   4.947   3.627  10.998 -0.0889 -0.5405 -0.2790
   61SAPC   O11 4728   5.161   3.733  10.914  0.0642 -0.7444 -0.1939
   61SAPC    C1 4729   5.076   3.813  10.829 -0.2258 -0.1977 -0.2542
   61SAPC    HA 4730   4.995   3.755  10.781 -0.1469  1.6341 -2.6770
   61SAPC    HB 4731   5.016   3.880  10.894 -2.1239 -0.6539 -1.4959
   61SAPC    C2 4732   5.159   3.895  10.730 -1.0620  0.1515  0.0355
   61SAPC    HS 4733   5.199   3.984  10.783 -0.4832  0.6365 -1.1874
   61SAPC   O21 4734   5.069   3.930  10.623  0.0745 -0.3018 -0.5924
   61SAPC   C21 4735   5.103   4.040  10.551 -0.9880  0.3828 -0.5752
   61SAPC   O22 4736   5.183   4.125  10.589 -0.5799  0.5182 -0.4610
   61SAPC   C22 4737   5.033   4.042  10.416 -0.1998  0.0581 -0.9888
   61SAPC   H2R 4738   5.065   3.947  10.369 -2.9415 -1.6429  0.4224
   61SAPC   H2S 4739   4.925   4.045  10.442 -0.2858  2.3683 -1.5283
   61SAPC    C3 4740   5.280   3.807  10.670  0.4379 -0.6417 -0.3887
   61SAPC    HX 4741   5.235   3.715  10.626 -1.2485  1.1832 -2.6469
   61SAPC    HY 4742   5.346   3.780  10.755 -1.2886 -0.2225  1.1221
   61SAPC   O31 4743   5.349   3.881  10.559 -0.6391 -0.4612  0.0892
   61SAPC   C31 4744   5.481   3.869  10.548 -1.0148  0.5222  0.2136
   61SAPC   O32 4745   5.559   3.803  10.617 -0.0250 -0.3270  0.0455
   61SAPC   C32 4746   5.526   3.944  10.416 -0.3055  0.1978  0.2031
   61SAPC   H2X 4747   5.628   3.903  10.399 -0.7821 -0.8037 -0.2818
   61SAPC   H2Y 4748   5.529   4.052  10.441 -0.4275  0.4457 -0.8355
   61SAPC   C23 4749   5.061   4.170  10.339  0.0271  0.5669 -0.7904
   61SAPC   H3R 4750   5.171   4.187  10.333  0.1494 -0.3328 -1.2408
   61SAPC   H3S 4751   5.028   4.256  10.402  0.7903  1.6316 -1.8203
   61SAPC   C24 4752   5.014   4.167  10.195  0.0082  0.3258  0.3495
   61SAPC   H4R 4753   4.907   4.142  10.201  0.4610 -2.7768 -2.9044
   61SAPC   H4S 4754   5.070   4.091  10.137 -2.5052 -0.9774 -0.4017
   61SAPC   C25 4755   5.037   4.303  10.133 -0.3786  0.1878  0.6190
   61SAPC   H5R 4756   5.033   4.384  10.207  2.4639 -0.4244  1.4989
   61SAPC   C26 4757   5.051   4.326  10.006 -0.0287  0.0205  0.2143
   61SAPC   H6R 4758   5.071   4.429   9.974 -2.9188  1.2938  2.3636
   61SAPC   C27 4759   5.058   4.225   9.895  0.3736  0.2837 -0.3056
   61SAPC   H7R 4760   4.983   4.262   9.822 -0.6304  0.9670  1.0515
   61SAPC   H7S 4761   5.032   4.124   9.933  1.3478 -0.0968 -0.6219
   61SAPC   C28 4762   5.192   4.214   9.827  0.2971 -0.5108 -0.0538
   61SAPC   H8R 4763   5.270   4.181   9.897  2.7958  1.0400 -2.0375
   61SAPC   C29 4764   5.219   4.250   9.699  0.0730  0.5851  0.4404
   61SAPC   H9R 4765   5.324   4.234   9.671  0.0062 -0.3255  0.7022
   61SAPC  C210 4766   5.129   4.294   9.585 -0.0049 -0.3961 -0.2141
   61SAPC  H10R 4767   5.197   4.336   9.508  0.5024  0.1191  0.5061
   61SAPC  H10S 4768   5.067   4.382   9.610 -1.2296 -0.9885 -1.1266
   61SAPC  C211 4769   5.036   4.191   9.528 -0.0848 -0.2703 -0.2807
   61SAPC  H11R 4770   4.960   4.159   9.601  0.0932 -1.3467 -0.5562
   61SAPC  C212 4771   5.040   4.124   9.410 -0.4527 -0.0358  0.7899
   61SAPC  H12R 4772   4.960   4.049   9.400 -1.6422  1.4864 -1.3997
   61SAPC  C213 4773   5.135   4.143   9.288  0.4625 -0.8558  0.0395
   61SAPC  H13R 4774   5.222   4.075   9.302  3.0190  2.6370  1.8699
   61SAPC  H13S 4775   5.175   4.246   9.298  1.6702 -1.4414  1.4612
   61SAPC  C214 4776   5.076   4.112   9.155  0.1174 -0.7363 -0.2099
   61SAPC  H14R 4777   5.025   4.017   9.134  0.1872 -0.6447 -0.8073
   61SAPC  C215 4778   5.075   4.195   9.051 -0.1644  0.4040  0.3848
   61SAPC  H15R 4779   5.036   4.164   8.953 -0.5435  1.0690  0.3174
   61SAPC  C216 4780   5.140   4.333   9.041  0.3032  0.2457 -0.2395
   61SAPC  H16R 4781   5.166   4.371   9.143  2.8361 -1.3579 -0.2256
   61SAPC  H16S 4782   5.069   4.405   8.996 -1.2336 -2.2675 -1.9159
   61SAPC  C217 4783   5.274   4.327   8.969  0.0412  0.6980 -0.5663
   61SAPC  H17R 4784   5.332   4.236   8.996 -2.1094 -0.0089  1.7945
   61SAPC  H17S 4785   5.335   4.412   9.007 -0.4778  0.5198  0.7012
   61SAPC  C218 4786   5.270   4.341   8.818 -0.0834  0.1826  0.0884
   61SAPC  H18R 4787   5.224   4.440   8.797 -0.7694 -0.2035 -0.2257
   61SAPC  H18S 4788   5.212   4.259   8.772  1.2907  0.8195 -2.9376
   61SAPC  C219 4789   5.408   4.345   8.742  1.1808 -0.0430  0.0313
   61SAPC  H19R 4790   5.477   4.264   8.775 -0.0569 -0.8289  0.7301
   61SAPC  H19S 4791   5.468   4.435   8.767 -0.7774  1.5776 -0.8988
   61SAPC  C220 4792   5.399   4.331   8.594 -1.3868 -0.7989 -0.2430
   61SAPC  H20R 4793   5.352   4.425   8.558 -1.0253 -0.3187  0.5400
   61SAPC  H20S 4794   5.341   4.244   8.556 -0.4313 -0.8410 -1.6514
   61SAPC  H20T 4795   5.504   4.339   8.560 -1.0004 -0.1102  1.1072
   61SAPC   C33 4796   5.445   3.916  10.287  1.0849 -0.0293  0.2575
   61SAPC   H3X 4797   5.355   3.980  10.292  0.6944 -0.2159 -3.0460
   61SAPC   H3Y 4798   5.416   3.810  10.298 -2.8250  0.9103 -0.4046
   61SAPC   C34 4799   5.519   3.947  10.156 -0.0022 -0.0467 -0.1490
   61SAPC   H4X 4800   5.608   3.880  10.164  0.4771  0.5776 -0.1887
   61SAPC   H4Y 4801   5.558   4.051  10.165 -0.3111  0.2341 -1.9566
   61SAPC   C35 4802   5.450   3.945  10.026  0.7278 -0.1975  0.3645
   61SAPC   H5X 4803   5.361   4.011  10.030 -0.7696 -2.2121  0.8365
   61SAPC   H5Y 4804   5.411   3.842  10.018  1.0470 -0.1262 -2.4537
   61SAPC   C36 4805   5.544   3.984   9.907  0.3887  0.0677 -0.7859
   61SAPC   H6X 4806   5.632   3.916   9.902 -1.1016 -1.9500 -0.4106
   61SAPC   H6Y 4807   5.561   4.094   9.907  0.5767  0.0608  1.6480
   61SAPC   C37 4808   5.466   3.948   9.777 -0.6464 -0.7996  0.2873
   61SAPC   H7X 4809   5.368   4.001   9.774 -0.5065 -0.6026 -1.4790
   61SAPC   H7Y 4810   5.451   3.838   9.779  1.7031 -1.1416  0.6089
   61SAPC   C38 4811   5.558   3.993   9.658  0.4542 -0.1060 -0.3480
   61SAPC   H8X 4812   5.648   3.928   9.661  0.0592 -0.6057  0.8257
   61SAPC   H8Y 4813   5.591   4.099   9.654 -0.0942  0.0571 -0.6453
   61SAPC   C39 4814   5.494   3.949   9.525  0.0317 -0.1207  0.5260
   61SAPC   H9X 4815   5.393   3.992   9.506  0.0468  0.1537  1.0530
   61SAPC   H9Y 4816   5.486   3.838   9.525  0.8288 -0.1834  1.3293
   61SAPC  C310 4817   5.572   4.000   9.400  0.1355 -0.0987  0.1301
   61SAPC  H10X 4818   5.679   3.976   9.417 -0.2898 -1.4935  0.8424
   61SAPC  H10Y 4819   5.557   4.109   9.384  0.8619 -0.0492 -0.2704
   61SAPC  C311 4820   5.530   3.943   9.267  0.0867  0.1878 -0.4333
   61SAPC  H11X 4821   5.420   3.952   9.265  0.1346  1.1635  0.7984
   61SAPC  H11Y 4822   5.551   3.834   9.257 -2.0245 -0.1413 -1.6098
   61SAPC  C312 4823   5.590   4.017   9.145 -0.1169 -0.0034  0.0538
   61SAPC  H12X 4824   5.701   4.014   9.143 -0.1564 -0.7558 -1.5956
   61SAPC  H12Y 4825   5.553   4.121   9.154  1.7779  0.8105 -1.2194
   61SAPC  C313 4826   5.524   3.968   9.008  0.3100 -0.4096  0.8352
   61SAPC  H13X 4827   5.562   4.028   8.922  0.2554 -2.6173 -0.7669
   61SAPC  H13Y 4828   5.414   3.981   9.005  0.1138 -1.7874  1.7003
   61SAPC  C314 4829   5.576   3.827   8.979  0.7151  0.1455 -0.0974
   61SAPC  H14X 4830   5.539   3.756   9.057 -0.2605 -0.3305 -0.9708
   61SAPC  H14Y 4831   5.687   3.826   8.982  0.7486  0.4324 -1.1626
   61SAPC  C315 4832   5.519   3.777   8.851 -0.2236 -0.0069 -0.4561
   61SAPC  H15X 4833   5.545   3.670   8.857  2.0519  0.4817 -1.1158
   61SAPC  H15Y 4834   5.565   3.830   8.765  2.2276  0.7818  1.2963
   61SAPC  C316 4835   5.367   3.775   8.841 -0.5181 -0.0041 -0.4764
   61SAPC  H16X 4836   5.321   3.871   8.809  0.3884  0.4269 -0.4887
   61SAPC  H16Y 4837   5.325   3.754   8.942 -3.9706  0.6684 -1.6720
   61SAPC  C317 4838   5.327   3.656   8.753 -0.2951  0.2085 -0.5080
   61SAPC  H17X 4839   5.384   3.571   8.795  1.4824  0.6374 -1.9949
   61SAPC  H17Y 4840   5.361   3.677   8.650  0.6909  0.4051 -0.1447
   61SAPC  C318 4841   5.176   3.640   8.741 -0.5623  0.4756 -0.2583
   61SAPC  H18X 4842   5.138   3.604   8.839 -1.1308  0.9215 -0.3094
   61SAPC  H18Y 4843   5.150   3.567   8.661  0.8486 -0.7429  0.3787
   61SAPC  H18Z 4844   5.128   3.740   8.731 -0.4711  0.5702  0.2449
   62SAPC     N 4845   4.132   3.234  10.964 -0.1600  0.2759 -0.2859
   62SAPC   C12 4846   4.102   3.308  10.834  0.6695 -0.4383 -0.5390
   62SAPC  H12A 4847   4.171   3.392  10.838 -0.4883  0.4507  1.5009
   62SAPC  H12B 4848   4.002   3.346  10.844  0.6719 -0.8761  1.2933
   62SAPC   C13 4849   4.275   3.194  10.965 -0.4931  0.4690  0.1245
   62SAPC  H13A 4850   4.343   3.275  10.988  0.9127  0.0682 -2.4024
   62SAPC  H13B 4851   4.297   3.124  11.045  0.9575  0.6618 -0.0811
   62SAPC  H13C 4852   4.305   3.147  10.873  0.0843 -0.1742  0.6321
   62SAPC   C14 4853   4.110   3.324  11.081  0.0693  0.7420 -0.4455
   62SAPC  H14A 4854   4.175   3.410  11.087  0.2330  0.4210  3.4841
   62SAPC  H14B 4855   4.006   3.352  11.091  0.1021  1.4931 -2.0769
   62SAPC  H14C 4856   4.138   3.270  11.170 -2.5767  0.4823  0.2606
   62SAPC   C15 4857   4.041   3.116  10.989  0.2738 -0.7150 -0.3551
   62SAPC  H15A 4858   4.064   3.069  11.084 -0.0674 -1.4522 -0.6326
   62SAPC  H15B 4859   3.938   3.148  10.998  0.1110 -1.7741  2.1259
   62SAPC  H15C 4860   4.038   3.039  10.914 -2.9810 -0.1927 -0.8368
   62SAPC   C11 4861   4.119   3.233  10.700 -0.5451  0.1390 -0.0349
   62SAPC  H11A 4862   4.213   3.174  10.688 -0.1753  1.0310 -1.6601
   62SAPC  H11B 4863   4.121   3.310  10.620 -0.5109  1.2904  1.0527
   62SAPC     P 4864   3.897   3.168  10.592  0.4115  0.2950 -0.1486
   62SAPC   O13 4865   3.804   3.050  10.614 -0.5294  0.3096 -0.4618
   62SAPC   O14 4866   3.834   3.304  10.618 -0.2215 -0.3914 -0.3616
   62SAPC   O12 4867   4.017   3.130  10.697  0.0851  0.2049  0.6557
   62SAPC   O11 4868   3.971   3.167  10.457 -0.2748 -0.0221 -0.4405
   62SAPC    C1 4869   4.066   3.068  10.414  0.3333  0.1290 -0.4839
   62SAPC    HA 4870   4.083   2.988  10.489  0.3784  1.4459  0.9396
   62SAPC    HB 4871   4.022   3.036  10.318  0.5885 -0.9530 -0.2486
   62SAPC    C2 4872   4.216   3.113  10.384  0.0993 -0.1813  0.2228
   62SAPC    HS 4873   4.238   3.180  10.470 -1.0042 -0.5806  0.8359
   62SAPC   O21 4874   4.227   3.179  10.260 -0.1377  0.4255  1.0541
   62SAPC   C21 4875   4.330   3.267  10.260 -0.0356 -0.7628  0.0865
   62SAPC   O22 4876   4.402   3.284  10.353  0.1440  0.3360 -0.0599
   62SAPC   C22 4877   4.313   3.359  10.134  0.1710  0.3093 -0.1955
   62SAPC   H2R 4878   4.276   3.297  10.049 -0.7762  1.2383 -0.4660
   62SAPC   H2S 4879   4.235   3.433  10.160 -0.6500  0.2418 -2.3205
   62SAPC    C3 4880   4.325   2.995  10.385 -0.1317  0.7578  0.4789
   62SAPC    HX 4881   4.317   2.924  10.470  2.6192  0.0987  0.2310
   62SAPC    HY 4882   4.425   3.042  10.400  0.5604 -0.0839 -1.4308
   62SAPC   O31 4883   4.321   2.919  10.261 -0.0233  0.2077 -0.1010
   62SAPC   C31 4884   4.424   2.927  10.180  0.2154 -0.1603 -0.6514
   62SAPC   O32 4885   4.522   3.000  10.197 -0.5693  0.0130 -0.5075
   62SAPC   C32 4886   4.413   2.824  10.064  0.1967 -0.5518  0.5237
   62SAPC   H2X 4887   4.310   2.783  10.064  0.3625 -0.9700  1.0386
   62SAPC   H2Y 4888   4.478   2.736  10.086 -1.4377 -2.3680 -1.7477
   62SAPC   C23 4889   4.445   3.432  10.096  0.3393 -0.5069  0.3061
   62SAPC   H3R 4890   4.527   3.363  10.068  0.5774  0.3940 -1.2457
   62SAPC   H3S 4891   4.473   3.489  10.188  2.5176  1.7487 -1.6912
   62SAPC   C24 4892   4.419   3.528   9.979 -0.1512 -0.1123  0.6951
   62SAPC   H4R 4893   4.497   3.606   9.975  1.3324 -1.6590 -2.9904
   62SAPC   H4S 4894   4.327   3.581  10.010  1.1186  0.9115  2.8756
   62SAPC   C25 4895   4.412   3.467   9.841  0.1436  0.5791 -0.4281
   62SAPC   H5R 4896   4.314   3.480   9.792  0.0009 -1.5062 -0.7714
   62SAPC   C26 4897   4.504   3.386   9.780  0.0463 -0.6920  0.0702
   62SAPC   H6R 4898   4.468   3.344   9.684  1.2588  0.0802 -0.7359
   62SAPC   C27 4899   4.643   3.344   9.819 -0.4292 -0.2855 -0.4324
   62SAPC   H7R 4900   4.673   3.403   9.908 -3.3073  0.3306  0.1556
   62SAPC   H7S 4901   4.715   3.388   9.746  0.1627  1.1717  1.0107
   62SAPC   C28 4902   4.649   3.194   9.831  0.0631 -0.0287 -0.1276
   62SAPC   H8R 4903   4.645   3.147   9.930  1.2491 -0.3966 -0.2509
   62SAPC   C29 4904   4.664   3.111   9.727  0.5339 -0.2835  0.6118
   62SAPC   H9R 4905   4.669   3.004   9.751  1.0303 -0.5345 -0.5506
   62SAPC  C210 4906   4.676   3.151   9.582  0.2811 -0.2916 -0.1937
   62SAPC  H10R 4907   4.783   3.136   9.557  0.4614  2.2236 -1.0832
   62SAPC  H10S 4908   4.650   3.258   9.571  1.9326  0.1201 -0.1779
   62SAPC  C211 4909   4.597   3.073   9.480 -0.9543 -0.4527 -0.1492
   62SAPC  H11R 4910   4.488   3.086   9.485 -0.7874  0.5545  1.0739
   62SAPC  C212 4911   4.643   2.989   9.385 -0.0524  0.3397 -0.2643
   62SAPC  H12R 4912   4.571   2.941   9.318 -1.6996  2.7821 -0.3036
   62SAPC  C213 4913   4.786   2.955   9.347  0.2556 -0.2928 -0.6821
   62SAPC  H13R 4914   4.852   3.043   9.357 -1.2284  0.3510  4.4901
   62SAPC  H13S 4915   4.799   2.910   9.246 -0.6195 -0.9641 -0.5069
   62SAPC  C214 4916   4.856   2.864   9.446  0.2474 -0.0117  0.0428
   62SAPC  H14R 4917   4.787   2.836   9.528  0.4609  0.3678  0.3502
   62SAPC  C215 4918   4.979   2.813   9.429  0.2602  0.3553 -0.5154
   62SAPC  H15R 4919   5.025   2.741   9.497 -2.0208 -1.9172 -1.3148
   62SAPC  C216 4920   5.069   2.840   9.312  0.4339  0.3931  0.1257
   62SAPC  H16R 4921   5.168   2.883   9.341  1.0375 -2.8363  3.2062
   62SAPC  H16S 4922   5.013   2.897   9.234  1.9737  0.7838 -0.7140
   62SAPC  C217 4923   5.103   2.697   9.243 -0.0615 -0.0112  0.2593
   62SAPC  H17R 4924   5.155   2.721   9.147 -0.4096 -0.3591 -0.0190
   62SAPC  H17S 4925   5.005   2.645   9.236  0.6272 -1.3012  0.0337
   62SAPC  C218 4926   5.200   2.606   9.330 -0.1336  0.1413 -0.3526
   62SAPC  H18R 4927   5.156   2.563   9.422  0.1500 -0.3519 -0.4444
   62SAPC  H18S 4928   5.292   2.662   9.356  0.0712  0.1723 -1.1189
   62SAPC  C219 4929   5.247   2.481   9.248 -0.3674 -0.5304  0.2839
   62SAPC  H19R 4930   5.154   2.444   9.200 -0.0708  1.5391 -1.9290
   62SAPC  H19S 4931   5.302   2.409   9.313 -0.9747  0.3565  1.8055
   62SAPC  C220 4932   5.349   2.516   9.136 -0.0832  0.1001 -0.3345
   62SAPC  H20R 4933   5.295   2.565   9.053  0.1655 -0.5659 -0.8955
   62SAPC  H20S 4934   5.384   2.421   9.089 -4.4304 -1.0873 -1.3879
   62SAPC  H20T 4935   5.430   2.582   9.174 -0.0217 -0.0645 -0.1790
   62SAPC   C33 4936   4.465   2.870   9.938 -0.6699 -0.4447  0.2336
   62SAPC   H3X 4937   4.505   2.781   9.886 -0.4363  0.0812 -0.5060
   62SAPC   H3Y 4938   4.546   2.946   9.935  1.3207 -2.2900  4.1849
   62SAPC   C34 4939   4.350   2.908   9.850 -0.4121 -0.0751  0.5705
   62SAPC   H4X 4940   4.278   2.826   9.829  0.5698 -0.3887 -1.6831
   62SAPC   H4Y 4941   4.396   2.936   9.752  1.1551  0.2732  1.3894
   62SAPC   C35 4942   4.275   3.040   9.894  0.2498  0.0822 -0.3887
   62SAPC   H5X 4943   4.357   3.115   9.900  1.0444 -0.6404 -1.9281
   62SAPC   H5Y 4944   4.236   3.021   9.996 -1.7826 -0.0368 -1.1537
   62SAPC   C36 4945   4.183   3.079   9.785  0.3169 -0.8693  0.7746
   62SAPC   H6X 4946   4.110   3.002   9.752  0.0687 -0.7288  0.9963
   62SAPC   H6Y 4947   4.250   3.114   9.703  0.0517 -0.7539  0.6059
   62SAPC   C37 4948   4.094   3.198   9.823 -0.6608 -0.0714  0.4585
   62SAPC   H7X 4949   4.152   3.275   9.879  0.7335 -0.2765 -0.7017
   62SAPC   H7Y 4950   4.009   3.178   9.892 -0.6604  1.3687  0.9028
   62SAPC   C38 4951   4.037   3.275   9.702  0.1919 -0.2938 -0.2636
   62SAPC   H8X 4952   4.125   3.304   9.640 -1.4593  0.1973 -2.4041
   62SAPC   H8Y 4953   3.992   3.366   9.746 -0.7381  0.8356 -3.4355
   62SAPC   C39 4954   3.925   3.200   9.624 -0.1693 -0.4693  0.2988
   62SAPC   H9X 4955   3.843   3.182   9.697 -0.3865 -0.9037 -0.0501
   62SAPC   H9Y 4956   3.972   3.105   9.590 -0.3195  0.0504 -1.3864
   62SAPC  C310 4957   3.866   3.294   9.514  0.3156  0.2115 -0.7007
   62SAPC  H10X 4958   3.952   3.325   9.451  2.2810 -1.0802  1.2573
   62SAPC  H10Y 4959   3.830   3.385   9.566  0.9144  1.7615 -2.9332
   62SAPC  C311 4960   3.759   3.224   9.428  0.1143 -0.6018  0.8810
   62SAPC  H11X 4961   3.670   3.207   9.493 -3.3746  3.7121 -2.3450
   62SAPC  H11Y 4962   3.801   3.127   9.394 -1.8573 -1.0762 -0.3113
   62SAPC  C312 4963   3.716   3.317   9.318  0.1363  0.2820 -1.0955
   62SAPC  H12X 4964   3.799   3.316   9.244 -0.8650 -2.8434 -2.2525
   62SAPC  H12Y 4965   3.693   3.420   9.350 -0.9263 -0.9184  2.1942
   62SAPC  C313 4966   3.586   3.267   9.247  0.1526  0.6616 -0.8013
   62SAPC  H13X 4967   3.502   3.287   9.317 -0.1090  3.1117 -1.7616
   62SAPC  H13Y 4968   3.598   3.159   9.222  1.1590  0.3439  1.0093
   62SAPC  C314 4969   3.553   3.340   9.119 -0.1301 -1.1493 -0.1075
   62SAPC  H14X 4970   3.629   3.306   9.046 -1.5139  0.5695 -2.4273
   62SAPC  H14Y 4971   3.558   3.451   9.130 -0.8089 -1.1527  0.2916
   62SAPC  C315 4972   3.402   3.323   9.074 -0.2665 -0.7674  0.3561
   62SAPC  H15X 4973   3.330   3.383   9.133  1.2046  1.1935  0.2269
   62SAPC  H15Y 4974   3.372   3.218   9.088 -3.8358  0.1719  0.1757
   62SAPC  C316 4975   3.378   3.357   8.925  0.1703  0.5063 -0.3549
   62SAPC  H16X 4976   3.473   3.328   8.875 -0.1142  1.8423 -1.6837
   62SAPC  H16Y 4977   3.377   3.468   8.915 -4.6294  0.6653  0.8288
   62SAPC  C317 4978   3.241   3.312   8.869 -0.3211  0.0017 -0.8604
   62SAPC  H17X 4979   3.176   3.389   8.915 -1.8170 -1.2621 -0.8055
   62SAPC  H17Y 4980   3.233   3.207   8.903  1.5678  0.1531  0.1538
   62SAPC  C318 4981   3.231   3.324   8.718  0.8277 -0.2658 -0.6039
   62SAPC  H18X 4982   3.123   3.309   8.696  1.1584  0.4408 -2.8612
   62SAPC  H18Y 4983   3.289   3.238   8.679 -0.5907 -2.7405  2.5009
   62SAPC  H18Z 4984   3.259   3.424   8.678  2.1752 -0.7272 -0.8262
   63SAPC     N 4985   0.979   1.914   5.892  0.1502  0.1118  0.0896
   63SAPC   C12 4986   1.000   2.014   6.010 -0.2840 -0.7349  0.1590
   63SAPC  H12A 4987   0.907   2.046   6.055 -0.1650 -1.0148  0.6004
   63SAPC  H12B 4988   1.039   2.109   5.977  1.3220 -0.3336  3.0267
   63SAPC   C13 4989   1.095   1.917   5.795 -0.4788 -0.3749 -0.5235
   63SAPC  H13A 4990   1.100   2.013   5.746 -1.7359  1.2042  2.3130
   63SAPC  H13B 4991   1.184   1.892   5.850  1.2679  0.7964 -2.7382
   63SAPC  H13C 4992   1.074   1.845   5.716 -1.5832  0.4456 -0.9959
   63SAPC   C14 4993   0.967   1.775   5.945  0.5843  0.0702  0.2798
   63SAPC  H14A 4994   0.951   1.702   5.867 -2.8988  1.1552 -0.1209
   63SAPC  H14B 4995   1.051   1.746   6.007  0.4362  2.4829  1.6842
   63SAPC  H14C 4996   0.878   1.776   6.007  0.1553  0.2863 -0.3407
   63SAPC   C15 4997   0.854   1.940   5.810  0.6366  0.4072 -0.1008
   63SAPC  H15A 4998   0.861   2.032   5.753 -2.0825 -1.2261 -3.2702
   63SAPC  H15B 4999   0.824   1.858   5.747  1.5300  0.8504 -1.1028
   63SAPC  H15C 5000   0.765   1.947   5.871  0.9447  2.0968  0.1715
   63SAPC   C11 5001   1.112   1.975   6.103 -0.0334 -0.0684 -0.0986
   63SAPC  H11A 5002   1.150   2.052   6.175 -0.5749 -1.3767  1.6318
   63SAPC  H11B 5003   1.207   1.951   6.051 -1.9981 -2.7075 -2.5915
   63SAPC     P 5004   0.955   1.861   6.285 -0.1108 -0.5236 -0.0154
   63SAPC   O13 5005   0.829   1.863   6.213  0.1977  0.4199 -0.0447
   63SAPC   O14 5006   0.976   1.746   6.380  0.1044  0.1558 -0.0004
   63SAPC   O12 5007   1.079   1.865   6.186  0.0429 -0.0028  0.0123
   63SAPC   O11 5008   0.958   1.988   6.370 -0.1114  0.0799  0.1167
   63SAPC    C1 5009   1.080   2.028   6.432 -0.3999  0.9119 -0.8434
   63SAPC    HA 5010   1.168   1.993   6.373  1.5831  1.4291  1.7194
   63SAPC    HB 5011   1.076   2.139   6.437  0.2427  0.8473  1.9548
   63SAPC    C2 5012   1.096   1.970   6.581  0.3729  0.0641 -0.1119
   63SAPC    HS 5013   1.098   1.859   6.572 -0.0214  0.1800 -1.8873
   63SAPC   O21 5014   0.995   2.032   6.659 -0.1499  0.4862 -0.4118
   63SAPC   C21 5015   0.971   1.980   6.774 -0.2557  0.2653  0.0670
   63SAPC   O22 5016   1.025   1.883   6.820  0.1197  0.4281  0.2109
   63SAPC   C22 5017   0.864   2.063   6.847 -0.0390 -0.0697  0.6124
   63SAPC   H2R 5018   0.920   2.123   6.921  1.5654 -0.1508 -0.5074
   63SAPC   H2S 5019   0.819   2.131   6.772  0.6016 -2.8649 -2.4115
   63SAPC    C3 5020   1.237   2.000   6.639  0.2911 -0.2425  0.4472
   63SAPC    HX 5021   1.308   1.947   6.573  0.6088  2.2912 -1.3299
   63SAPC    HY 5022   1.251   1.963   6.743 -0.9349  0.9690  1.0614
   63SAPC   O31 5023   1.267   2.143   6.635 -0.2835 -0.1732  0.1383
   63SAPC   C31 5024   1.235   2.211   6.745  0.3152 -0.1604 -0.7375
   63SAPC   O32 5025   1.192   2.165   6.849 -0.7930 -0.0604  0.1319
   63SAPC   C32 5026   1.257   2.365   6.728  0.7112 -0.4993 -0.1053
   63SAPC   H2X 5027   1.195   2.421   6.802  0.3099 -1.2154  0.1111
   63SAPC   H2Y 5028   1.222   2.395   6.627  0.1101 -0.4196  0.1192
   63SAPC   C23 5029   0.759   1.968   6.909 -0.0363 -0.0321  0.3254
   63SAPC   H3R 5030   0.811   1.898   6.977  1.2708  1.9452  1.4098
   63SAPC   H3S 5031   0.720   1.904   6.827  4.5569 -0.3797 -1.7869
   63SAPC   C24 5032   0.650   2.045   6.979  0.7210 -0.4852 -0.6634
   63SAPC   H4R 5033   0.595   2.109   6.906 -0.8488  1.4218  2.0975
   63SAPC   H4S 5034   0.696   2.113   7.053 -0.1994  0.1918 -0.6999
   63SAPC   C25 5035   0.554   1.955   7.043  0.2069  0.6128  0.3473
   63SAPC   H5R 5036   0.474   1.925   6.974  0.2886 -4.1266  2.1720
   63SAPC   C26 5037   0.552   1.924   7.173  0.2378  0.1713 -0.3550
   63SAPC   H6R 5038   0.475   1.859   7.216 -2.3341  4.4331  1.7868
   63SAPC   C27 5039   0.648   1.962   7.282  0.0369 -0.4737  0.0695
   63SAPC   H7R 5040   0.597   2.047   7.331 -2.3933 -0.8780 -1.6393
   63SAPC   H7S 5041   0.745   2.003   7.247  0.3398 -0.6623  0.6914
   63SAPC   C28 5042   0.684   1.850   7.377 -0.6531  0.4088 -0.5454
   63SAPC   H8R 5043   0.711   1.757   7.326 -2.9719  0.1333 -1.2934
   63SAPC   C29 5044   0.695   1.852   7.517 -0.2360 -0.8047 -0.3949
   63SAPC   H9R 5045   0.724   1.758   7.567 -2.3550  0.5415  3.4802
   63SAPC  C210 5046   0.665   1.969   7.612  0.2817  0.2406  0.1464
   63SAPC  H10R 5047   0.589   2.029   7.558 -0.7871 -2.4965 -1.4966
   63SAPC  H10S 5048   0.755   2.033   7.618  1.6414 -1.1366 -3.9718
   63SAPC  C211 5049   0.610   1.917   7.742  0.0474 -0.8551 -0.5531
   63SAPC  H11R 5050   0.500   1.920   7.754  0.2107 -0.7786  1.0091
   63SAPC  C212 5051   0.676   1.860   7.841 -0.1112  0.5899  0.7629
   63SAPC  H12R 5052   0.614   1.835   7.929  0.0234  0.1562  0.7369
   63SAPC  C213 5053   0.826   1.826   7.846 -0.8673  0.1822  0.0271
   63SAPC  H13R 5054   0.869   1.850   7.945 -1.6710 -0.7909  0.6259
   63SAPC  H13S 5055   0.883   1.888   7.773  2.3648  2.2397  4.1145
   63SAPC  C214 5056   0.838   1.674   7.807 -0.2176 -0.8155  0.3534
   63SAPC  H14R 5057   0.796   1.661   7.706  0.0408  0.3520  0.0839
   63SAPC  C215 5058   0.889   1.573   7.879 -0.1920 -0.0445 -0.1384
   63SAPC  H15R 5059   0.884   1.470   7.841  1.5829 -0.4766  0.7679
   63SAPC  C216 5060   0.949   1.604   8.018 -0.0547 -0.4420  0.4908
   63SAPC  H16R 5061   0.889   1.680   8.073  0.5854  0.3083  0.1578
   63SAPC  H16S 5062   1.053   1.641   8.013 -0.3891  0.4285 -0.1960
   63SAPC  C217 5063   0.948   1.483   8.103  0.7291 -0.4727  0.1193
   63SAPC  H17R 5064   1.034   1.417   8.077 -0.1935 -0.3235 -3.4403
   63SAPC  H17S 5065   0.854   1.427   8.083  1.2533 -2.1103  2.0227
   63SAPC  C218 5066   0.963   1.511   8.253  0.1186 -0.4792 -1.0872
   63SAPC  H18R 5067   0.953   1.417   8.311  2.3357 -0.6794 -0.9839
   63SAPC  H18S 5068   0.891   1.589   8.289 -0.0295 -0.1248 -2.1335
   63SAPC  C219 5069   1.095   1.573   8.287 -0.0369 -0.0006  0.4857
   63SAPC  H19R 5070   1.114   1.669   8.235  0.5994 -1.2971 -1.7246
   63SAPC  H19S 5071   1.171   1.498   8.255 -0.0351  0.9242 -1.7515
   63SAPC  C220 5072   1.124   1.595   8.440  0.1410  0.2461 -0.2678
   63SAPC  H20R 5073   1.231   1.600   8.469  0.4336 -0.6084 -1.1664
   63SAPC  H20S 5074   1.082   1.509   8.496  0.7679 -0.4144 -0.8062
   63SAPC  H20T 5075   1.085   1.693   8.474  3.1674  1.2146  0.5580
   63SAPC   C33 5076   1.415   2.402   6.744 -0.5592 -0.5483 -0.5228
   63SAPC   H3X 5077   1.421   2.506   6.706 -0.2564 -0.8489 -1.3072
   63SAPC   H3Y 5078   1.489   2.351   6.679  1.5360 -0.5445  1.7734
   63SAPC   C34 5079   1.464   2.399   6.886 -0.1406 -0.1067 -0.2587
   63SAPC   H4X 5080   1.574   2.411   6.886  0.3380 -3.9264  0.0599
   63SAPC   H4Y 5081   1.448   2.303   6.938  0.2507  0.2703  0.5599
   63SAPC   C35 5082   1.413   2.516   6.972  0.9769 -0.9118  0.0394
   63SAPC   H5X 5083   1.305   2.530   6.953  1.3841  0.1184 -1.6824
   63SAPC   H5Y 5084   1.465   2.606   6.932 -0.5697  0.7139  1.6165
   63SAPC   C36 5085   1.427   2.497   7.129 -0.5325  0.0222  0.6103
   63SAPC   H6X 5086   1.534   2.475   7.151 -1.0850 -1.2490  2.1736
   63SAPC   H6Y 5087   1.369   2.407   7.159 -1.3667  1.0277  2.0861
   63SAPC   C37 5088   1.386   2.621   7.200  0.5651 -0.5419 -0.2391
   63SAPC   H7X 5089   1.277   2.642   7.199  0.5380 -0.6653  0.1827
   63SAPC   H7Y 5090   1.415   2.714   7.145 -2.8112 -0.0490 -1.3197
   63SAPC   C38 5091   1.432   2.629   7.348  0.5019 -0.2068 -0.3230
   63SAPC   H8X 5092   1.388   2.723   7.387  0.6942 -0.7079  1.1248
   63SAPC   H8Y 5093   1.542   2.644   7.344  0.5159 -0.2560 -0.1239
   63SAPC   C39 5094   1.385   2.517   7.446  0.1352 -0.2342 -0.0253
   63SAPC   H9X 5095   1.449   2.427   7.427 -0.3535 -0.4069 -0.8771
   63SAPC   H9Y 5096   1.280   2.482   7.441 -0.2761  1.1374 -1.1364
   63SAPC  C310 5097   1.415   2.551   7.595 -0.4114 -1.2118  0.2668
   63SAPC  H10X 5098   1.334   2.612   7.641 -1.1292 -1.7145 -0.3050
   63SAPC  H10Y 5099   1.506   2.614   7.603 -0.9630 -0.0978 -1.8333
   63SAPC  C311 5100   1.430   2.423   7.695  0.4538 -0.0215  0.3082
   63SAPC  H11X 5101   1.443   2.467   7.797 -1.9366  0.3447  0.4791
   63SAPC  H11Y 5102   1.529   2.379   7.670  0.0901 -0.9779  0.5117
   63SAPC  C312 5103   1.312   2.320   7.694 -0.0095 -0.1024 -0.1943
   63SAPC  H12X 5104   1.353   2.242   7.761  1.1741 -0.9466 -1.8730
   63SAPC  H12Y 5105   1.295   2.283   7.591  0.9431 -0.7256 -0.1306
   63SAPC  C313 5106   1.178   2.367   7.750 -0.3265 -0.3127  0.4726
   63SAPC  H13X 5107   1.091   2.300   7.731  0.4405 -1.0376 -0.5296
   63SAPC  H13Y 5108   1.135   2.463   7.715  0.9729  0.1914  0.2158
   63SAPC  C314 5109   1.201   2.376   7.901 -0.8751 -0.8309  0.0902
   63SAPC  H14X 5110   1.275   2.456   7.924  0.0277 -1.7930  0.5804
   63SAPC  H14Y 5111   1.245   2.282   7.940 -0.2355  0.1909  1.8487
   63SAPC  C315 5112   1.067   2.416   7.968  0.4285  0.3190 -0.5133
   63SAPC  H15X 5113   1.027   2.491   7.897  2.3128 -0.8405 -2.8563
   63SAPC  H15Y 5114   1.087   2.474   8.061  0.3111  1.8262 -1.4141
   63SAPC  C316 5115   0.978   2.297   7.988  0.0811 -0.2902 -0.0564
   63SAPC  H16X 5116   1.037   2.216   8.035 -0.4970  0.6498  2.3629
   63SAPC  H16Y 5117   0.956   2.263   7.885  1.3432 -2.1159  0.2685
   63SAPC  C317 5118   0.845   2.326   8.061 -0.5216 -0.5776 -0.1181
   63SAPC  H17X 5119   0.785   2.393   7.996 -0.6751 -1.0568 -0.4717
   63SAPC  H17Y 5120   0.866   2.378   8.157  0.1090 -1.8674  0.4539
   63SAPC  C318 5121   0.753   2.208   8.096 -0.1468 -0.3997 -0.3417
   63SAPC  H18X 5122   0.673   2.228   8.169  2.7030 -0.6401  2.9866
   63SAPC  H18Y 5123   0.810   2.126   8.145  0.4931  1.6483  2.4730
   63SAPC  H18Z 5124   0.704   2.169   8.004 -0.3396  0.4104 -0.5841
   64SAPC     N 5125   3.046   3.103   6.101  0.6325 -0.8580  0.2156
   64SAPC   C12 5126   3.171   3.103   6.188 -0.5209 -0.0869  0.2504
   64SAPC  H12A 5127   3.145   3.078   6.290  1.0373  1.6003  1.0974
   64SAPC  H12B 5128   3.210   3.204   6.190  0.5213 -0.5007  1.6472
   64SAPC   C13 5129   2.966   2.977   6.128  0.1938  0.0866  0.5732
   64SAPC  H13A 5130   3.025   2.894   6.090  1.3732  1.5935 -0.9667
   64SAPC  H13B 5131   2.949   2.949   6.231 -1.8678  0.3436  0.3193
   64SAPC  H13C 5132   2.867   2.974   6.086 -1.0907  1.3167  3.4044
   64SAPC   C14 5133   2.963   3.221   6.135 -0.1439  0.0920 -0.0390
   64SAPC  H14A 5134   2.931   3.201   6.236 -0.3206  1.6386  0.2245
   64SAPC  H14B 5135   3.026   3.309   6.142  0.8966 -0.4931 -1.6791
   64SAPC  H14C 5136   2.878   3.248   6.075 -1.0862  0.3592  1.3891
   64SAPC   C15 5137   3.086   3.113   5.952  1.1371  0.3331 -0.1428
   64SAPC  H15A 5138   2.995   3.099   5.896  0.8553 -0.8048  0.5720
   64SAPC  H15B 5139   3.133   3.209   5.942  0.5391  0.5390 -1.0410
   64SAPC  H15C 5140   3.161   3.035   5.950  1.5837  0.7570  0.0326
   64SAPC   C11 5141   3.287   3.006   6.151 -0.3105 -0.0599 -0.1020
   64SAPC  H11A 5142   3.371   3.019   6.224 -0.1167 -0.9843 -0.1616
   64SAPC  H11B 5143   3.342   3.031   6.058 -0.4728  0.6445 -0.0104
   64SAPC     P 5144   3.315   2.740   6.123  0.0125  0.2103  0.4889
   64SAPC   O13 5145   3.292   2.690   5.978 -0.2323  1.0565 -0.9697
   64SAPC   O14 5146   3.458   2.749   6.164 -0.0232  0.0034 -0.4682
   64SAPC   O12 5147   3.233   2.869   6.153  0.3450  0.1949  0.3263
   64SAPC   O11 5148   3.245   2.629   6.216  0.4657  0.1681 -0.0422
   64SAPC    C1 5149   3.175   2.662   6.338 -0.5829 -0.6620  0.1120
   64SAPC    HA 5150   3.096   2.736   6.316 -1.3550 -1.8724 -1.2977
   64SAPC    HB 5151   3.128   2.573   6.385  0.9897 -1.5721  0.0099
   64SAPC    C2 5152   3.269   2.728   6.449 -0.4971  0.3489  0.0247
   64SAPC    HS 5153   3.316   2.811   6.393 -1.7218  0.4360 -0.8935
   64SAPC   O21 5154   3.357   2.624   6.499  0.0060 -0.0437 -0.2292
   64SAPC   C21 5155   3.468   2.692   6.548  0.2092 -0.1193  0.5253
   64SAPC   O22 5156   3.485   2.809   6.548 -0.1627 -0.1809  0.6332
   64SAPC   C22 5157   3.567   2.589   6.579  0.2502  0.2614 -0.3782
   64SAPC   H2R 5158   3.513   2.492   6.588 -0.9743  0.9164 -0.5975
   64SAPC   H2S 5159   3.638   2.577   6.495 -1.3240 -3.4365 -1.3170
   64SAPC    C3 5160   3.174   2.773   6.569 -0.3417  0.2518 -0.8044
   64SAPC    HX 5161   3.119   2.687   6.613  2.1789 -0.5904  0.8164
   64SAPC    HY 5162   3.097   2.832   6.515  0.5484  0.4603 -1.8692
   64SAPC   O31 5163   3.234   2.838   6.681 -0.7820  0.3992 -0.2199
   64SAPC   C31 5164   3.251   2.963   6.665 -0.0047 -0.2961 -0.3080
   64SAPC   O32 5165   3.232   3.025   6.562  0.2855  0.2664  0.4803
   64SAPC   C32 5166   3.302   3.020   6.795 -0.4342 -0.1266  1.4428
   64SAPC   H2X 5167   3.387   2.959   6.833 -0.4428  1.5393  4.2797
   64SAPC   H2Y 5168   3.221   3.007   6.869 -1.1999 -0.9385  0.4635
   64SAPC   C23 5169   3.658   2.630   6.696  0.2316 -0.1276 -0.1321
   64SAPC   H3R 5170   3.714   2.724   6.679 -1.5657  0.6354 -1.9840
   64SAPC   H3S 5171   3.725   2.542   6.714  0.2807  0.2309  1.5763
   64SAPC   C24 5172   3.579   2.636   6.835  0.6263  0.0399 -0.4146
   64SAPC   H4R 5173   3.507   2.719   6.853 -0.4239 -1.3124  1.8344
   64SAPC   H4S 5174   3.652   2.652   6.917 -1.1401  3.6979  0.5640
   64SAPC   C25 5175   3.493   2.517   6.859  0.2075 -0.3122  0.5658
   64SAPC   H5R 5176   3.386   2.537   6.844  0.3786  0.3945  0.2794
   64SAPC   C26 5177   3.540   2.390   6.883  0.2519 -0.3206  0.1462
   64SAPC   H6R 5178   3.473   2.306   6.905  2.4422 -2.5270 -1.2687
   64SAPC   C27 5179   3.686   2.355   6.904 -0.1360  0.5005  0.2949
   64SAPC   H7R 5180   3.737   2.450   6.928 -2.0918  1.7770 -0.4735
   64SAPC   H7S 5181   3.738   2.336   6.807  1.1559 -1.0995  1.2627
   64SAPC   C28 5182   3.690   2.245   7.010  0.0527 -0.0163 -0.1038
   64SAPC   H8R 5183   3.663   2.145   6.972 -1.2429 -0.1454  1.0913
   64SAPC   C29 5184   3.711   2.260   7.145  0.2039 -0.0799 -0.0588
   64SAPC   H9R 5185   3.701   2.171   7.209  5.5899 -1.2833 -0.6543
   64SAPC  C210 5186   3.729   2.394   7.220  0.2696  0.2598  0.6154
   64SAPC  H10R 5187   3.757   2.481   7.156 -0.7462  0.7462  0.8152
   64SAPC  H10S 5188   3.790   2.382   7.312 -0.6389 -0.7985  1.0825
   64SAPC  C211 5189   3.596   2.442   7.270  0.1941  0.1519  0.0874
   64SAPC  H11R 5190   3.532   2.465   7.184  0.8411 -0.7715 -0.6481
   64SAPC  C212 5191   3.542   2.439   7.401 -0.7403 -1.0754 -0.5592
   64SAPC  H12R 5192   3.439   2.477   7.411 -1.1781 -1.9451 -1.6308
   64SAPC  C213 5193   3.623   2.399   7.523  0.2361 -0.3114 -0.7193
   64SAPC  H13R 5194   3.577   2.429   7.620  1.8436  0.7960 -0.2708
   64SAPC  H13S 5195   3.715   2.462   7.519 -1.7010  2.5913 -0.7665
   64SAPC  C214 5196   3.671   2.256   7.534 -0.2957  0.6951 -0.5633
   64SAPC  H14R 5197   3.710   2.212   7.441  1.0886 -0.6618  0.6336
   64SAPC  C215 5198   3.674   2.183   7.645  1.4411 -0.1102 -0.5257
   64SAPC  H15R 5199   3.705   2.078   7.635 -0.0983 -0.6031 -0.3474
   64SAPC  C216 5200   3.638   2.233   7.777  0.1853  0.2657 -0.1532
   64SAPC  H16R 5201   3.527   2.236   7.785  0.0601  0.7462 -1.8335
   64SAPC  H16S 5202   3.672   2.337   7.796  1.5878 -0.3456  0.7729
   64SAPC  C217 5203   3.686   2.151   7.891 -0.3471 -0.4098  0.6566
   64SAPC  H17R 5204   3.796   2.165   7.895 -0.3434  0.1499 -0.8964
   64SAPC  H17S 5205   3.671   2.041   7.879 -1.2133 -0.1132 -1.1894
   64SAPC  C218 5206   3.626   2.202   8.022  0.7907  0.5702  0.3916
   64SAPC  H18R 5207   3.645   2.134   8.107  0.7164  1.0154  0.7651
   64SAPC  H18S 5208   3.518   2.211   7.995  0.4672  0.2755  1.5792
   64SAPC  C219 5209   3.682   2.335   8.070 -0.6585 -0.1114 -0.1560
   64SAPC  H19R 5210   3.677   2.399   7.980 -0.9354 -0.6558 -0.5317
   64SAPC  H19S 5211   3.792   2.326   8.086 -0.9908 -0.6105  2.0705
   64SAPC  C220 5212   3.610   2.401   8.192  0.6151 -0.7653  0.5659
   64SAPC  H20R 5213   3.668   2.494   8.210  1.3631 -0.9181 -1.0116
   64SAPC  H20S 5214   3.600   2.331   8.278 -0.7868 -2.5938 -1.0597
   64SAPC  H20T 5215   3.507   2.426   8.158  1.2215 -2.1057 -2.4085
   64SAPC   C33 5216   3.334   3.170   6.790  0.6758  0.2538  0.1115
   64SAPC   H3X 5217   3.249   3.221   6.741  0.6559  0.1849  0.0737
   64SAPC   H3Y 5218   3.417   3.195   6.720  1.7634 -0.9345  0.9480
   64SAPC   C34 5219   3.387   3.210   6.931 -0.3434  0.0912  0.2767
   64SAPC   H4X 5220   3.416   3.318   6.928 -0.1974  0.1192  2.3271
   64SAPC   H4Y 5221   3.471   3.147   6.968  0.2811  1.7776  1.8515
   64SAPC   C35 5222   3.277   3.214   7.037 -0.2843 -0.0824 -0.2414
   64SAPC   H5X 5223   3.221   3.119   7.034  1.2439 -0.9527 -1.7828
   64SAPC   H5Y 5224   3.197   3.282   6.999  2.1196  2.3539 -1.1234
   64SAPC   C36 5225   3.341   3.242   7.171  0.0036  0.2471 -0.3437
   64SAPC   H6X 5226   3.431   3.308   7.164 -1.1448  1.6680 -2.2748
   64SAPC   H6Y 5227   3.380   3.144   7.206  1.0114  0.7497 -0.0301
   64SAPC   C37 5228   3.244   3.301   7.275 -0.2057 -0.4609 -0.1540
   64SAPC   H7X 5229   3.143   3.258   7.292 -0.1867  0.6497  3.3906
   64SAPC   H7Y 5230   3.238   3.408   7.245  1.6843 -0.6415 -1.2259
   64SAPC   C38 5231   3.315   3.307   7.408 -0.2678 -0.3878 -0.3214
   64SAPC   H8X 5232   3.279   3.397   7.464  1.6637  0.1197  0.1284
   64SAPC   H8Y 5233   3.424   3.306   7.389  0.3575  1.0784  2.7865
   64SAPC   C39 5234   3.294   3.188   7.505  1.2312  0.0140 -0.1684
   64SAPC   H9X 5235   3.380   3.158   7.569 -0.1645 -1.6405  0.9886
   64SAPC   H9Y 5236   3.284   3.098   7.441  0.5536  1.6335 -2.3788
   64SAPC  C310 5237   3.177   3.202   7.604  0.0954 -0.8826 -0.4568
   64SAPC  H10X 5238   3.165   3.109   7.665 -2.6386 -0.4380 -0.2264
   64SAPC  H10Y 5239   3.081   3.215   7.549 -0.9934 -0.4625  1.4762
   64SAPC  C311 5240   3.187   3.313   7.704  0.7328 -0.8173 -0.5391
   64SAPC  H11X 5241   3.211   3.408   7.653 -1.5496  0.5188  0.7787
   64SAPC  H11Y 5242   3.276   3.291   7.767  0.8606 -0.3002 -0.5435
   64SAPC  C312 5243   3.071   3.323   7.817  0.2420 -0.3707 -0.1994
   64SAPC  H12X 5244   3.073   3.224   7.868  2.9459  0.2953  1.0702
   64SAPC  H12Y 5245   2.977   3.346   7.763 -1.6884 -1.9783  2.3546
   64SAPC  C313 5246   3.112   3.430   7.918 -0.0906 -0.3157  0.2271
   64SAPC  H13X 5247   3.140   3.516   7.854  0.2866 -1.3599 -1.0128
   64SAPC  H13Y 5248   3.208   3.392   7.960 -0.2740 -0.8337  0.1833
   64SAPC  C314 5249   3.014   3.469   8.030  0.0476  1.0292 -0.3830
   64SAPC  H14X 5250   2.960   3.378   8.061  0.5068  0.4463 -1.2879
   64SAPC  H14Y 5251   2.934   3.535   7.988 -0.4543  1.4810  1.2494
   64SAPC  C315 5252   3.076   3.551   8.139  0.6278  0.0893  0.5183
   64SAPC  H15X 5253   3.124   3.644   8.100  1.3955 -1.0725 -1.3821
   64SAPC  H15Y 5254   3.161   3.486   8.170  0.8663  0.4653  0.6615
   64SAPC  C316 5255   2.981   3.582   8.247 -0.6486 -0.6482 -0.1246
   64SAPC  H16X 5256   2.932   3.491   8.287 -1.5134 -0.3649 -0.5341
   64SAPC  H16Y 5257   2.887   3.637   8.227 -0.9504 -1.2731 -0.4370
   64SAPC  C317 5258   3.053   3.650   8.368 -0.3146  0.3921 -0.7752
   64SAPC  H17X 5259   3.090   3.745   8.323  1.4054 -0.4447 -1.1646
   64SAPC  H17Y 5260   3.132   3.583   8.406 -0.9293 -1.1773 -2.1430
   64SAPC  C318 5261   2.968   3.679   8.486 -0.1553  0.1741 -0.0669
   64SAPC  H18X 5262   3.022   3.746   8.556 -2.4856  1.2882  0.7151
   64SAPC  H18Y 5263   2.942   3.584   8.536  1.4057 -1.0970 -1.6245
   64SAPC  H18Z 5264   2.875   3.733   8.455  0.5906  1.6493  0.1936
   65SAPC     N 5265   3.843   4.557   5.791  0.3186 -0.1475 -1.0028
   65SAPC   C12 5266   3.858   4.504   5.935 -0.7526  0.0061  0.1083
   65SAPC  H12A 5267   3.931   4.552   5.999  1.1498 -2.2175 -0.3097
   65SAPC  H12B 5268   3.904   4.406   5.937 -1.5047 -0.3199  2.3963
   65SAPC   C13 5269   3.978   4.579   5.722 -0.0851 -0.1289  0.3631
   65SAPC  H13A 5270   4.031   4.644   5.790 -1.0412  0.6248  0.4000
   65SAPC  H13B 5271   4.029   4.484   5.717 -0.8261 -0.5769  1.1767
   65SAPC  H13C 5272   3.969   4.634   5.630 -0.6507 -1.9078 -0.6730
   65SAPC   C14 5273   3.750   4.476   5.702 -0.3700  0.4654  0.0074
   65SAPC  H14A 5274   3.649   4.484   5.740 -0.6911  1.4314 -1.0342
   65SAPC  H14B 5275   3.735   4.522   5.606  3.0759  1.3235 -0.1855
   65SAPC  H14C 5276   3.778   4.373   5.688  1.4870  0.8232  0.9218
   65SAPC   C15 5277   3.776   4.690   5.804  0.7372  0.4039 -0.2907
   65SAPC  H15A 5278   3.754   4.722   5.703 -0.0658  0.8468  0.0163
   65SAPC  H15B 5279   3.685   4.673   5.860  1.1535  0.5987  0.4569
   65SAPC  H15C 5280   3.833   4.759   5.864  0.1544 -0.3379  1.1522
   65SAPC   C11 5281   3.733   4.505   6.028 -0.4532 -0.5627 -0.1723
   65SAPC  H11A 5282   3.769   4.465   6.126  1.1559 -0.4993 -0.7152
   65SAPC  H11B 5283   3.671   4.425   5.982  0.5226 -0.6156 -1.4154
   65SAPC     P 5284   3.511   4.646   6.061 -0.2160 -0.2878 -0.1136
   65SAPC   O13 5285   3.479   4.778   5.997  0.2375 -0.5780  0.2487
   65SAPC   O14 5286   3.442   4.530   5.996  0.5877 -0.2609  0.4048
   65SAPC   O12 5287   3.667   4.628   6.048  0.3526 -0.2854 -0.4952
   65SAPC   O11 5288   3.470   4.657   6.208 -0.2763  0.6655 -0.7102
   65SAPC    C1 5289   3.565   4.725   6.295  0.0898  0.3048 -0.5956
   65SAPC    HA 5290   3.671   4.695   6.279  0.5769 -0.3962  3.4253
   65SAPC    HB 5291   3.561   4.833   6.269 -2.4350  0.2050 -0.7507
   65SAPC    C2 5292   3.532   4.716   6.445  0.1892 -1.2523 -0.2894
   65SAPC    HS 5293   3.612   4.763   6.507 -2.3223  1.8077  0.7887
   65SAPC   O21 5294   3.481   4.588   6.487  0.2402 -0.4887 -0.5390
   65SAPC   C21 5295   3.570   4.498   6.527  0.0389 -0.4203 -0.2307
   65SAPC   O22 5296   3.683   4.518   6.559  0.7427  0.1273  0.4595
   65SAPC   C22 5297   3.506   4.357   6.517  0.0575  0.4649 -0.2308
   65SAPC   H2R 5298   3.443   4.365   6.426  0.4263  0.0933 -0.5233
   65SAPC   H2S 5299   3.580   4.279   6.489 -0.6140  0.5533 -2.3445
   65SAPC    C3 5300   3.415   4.815   6.477 -0.3504 -0.0853 -0.0051
   65SAPC    HX 5301   3.330   4.783   6.412  0.4200 -0.6268 -0.7678
   65SAPC    HY 5302   3.450   4.917   6.452  0.5186 -0.4232 -0.1926
   65SAPC   O31 5303   3.386   4.815   6.618  0.1649  0.0125  0.2405
   65SAPC   C31 5304   3.297   4.729   6.668 -0.0371 -0.1768 -0.1616
   65SAPC   O32 5305   3.224   4.660   6.604 -0.0012 -0.5931 -0.5877
   65SAPC   C32 5306   3.305   4.734   6.818 -0.4940  0.8878 -0.4504
   65SAPC   H2X 5307   3.231   4.658   6.853 -1.8641  1.8542 -1.1810
   65SAPC   H2Y 5308   3.259   4.829   6.853 -0.1268  0.2495  1.8730
   65SAPC   C23 5309   3.415   4.318   6.635 -0.0987  0.0080  0.1965
   65SAPC   H3R 5310   3.351   4.238   6.593  0.6900 -0.5783  0.0940
   65SAPC   H3S 5311   3.349   4.404   6.660 -1.1369 -0.7780  0.1954
   65SAPC   C24 5312   3.485   4.254   6.754 -0.9137  0.3605 -0.4203
   65SAPC   H4R 5313   3.528   4.156   6.725  1.3856  1.9008 -2.3901
   65SAPC   H4S 5314   3.407   4.235   6.832 -0.0350  0.8116  0.5859
   65SAPC   C25 5315   3.591   4.346   6.812  0.0585  0.0533 -0.2141
   65SAPC   H5R 5316   3.684   4.368   6.759 -0.7269  1.2478 -1.1306
   65SAPC   C26 5317   3.595   4.388   6.939 -0.1756  0.4032  0.0190
   65SAPC   H6R 5318   3.680   4.444   6.979 -0.4975  0.3654  0.7633
   65SAPC   C27 5319   3.509   4.360   7.061  0.6459 -0.0025  0.2475
   65SAPC   H7R 5320   3.402   4.375   7.032  0.0683  0.7807  2.6524
   65SAPC   H7S 5321   3.531   4.436   7.139 -0.1111 -0.4450  0.9041
   65SAPC   C28 5322   3.514   4.224   7.127  0.3253  0.4994  0.4186
   65SAPC   H8R 5323   3.525   4.134   7.065  0.3676  0.2436  0.7964
   65SAPC   C29 5324   3.498   4.194   7.260  0.2454 -0.6804 -0.3602
   65SAPC   H9R 5325   3.498   4.087   7.285 -1.1358 -0.8215 -0.9202
   65SAPC  C210 5326   3.474   4.294   7.361  0.0817  0.0979 -0.0262
   65SAPC  H10R 5327   3.394   4.254   7.428  0.2405  1.1483  0.8062
   65SAPC  H10S 5328   3.432   4.386   7.314  0.1074  0.8141  1.3229
   65SAPC  C211 5329   3.599   4.333   7.440 -0.0546  0.0651  1.0924
   65SAPC  H11R 5330   3.690   4.317   7.381 -0.9269 -0.5011 -0.1045
   65SAPC  C212 5331   3.599   4.381   7.568  0.5085 -0.0577  0.0561
   65SAPC  H12R 5332   3.699   4.403   7.607  0.2236 -0.3289  0.9714
   65SAPC  C213 5333   3.490   4.410   7.668  0.3958 -0.0542 -0.2693
   65SAPC  H13R 5334   3.465   4.317   7.724  0.7606 -1.7160 -2.7902
   65SAPC  H13S 5335   3.410   4.432   7.595  2.2768 -1.6581 -2.8828
   65SAPC  C214 5336   3.504   4.525   7.762 -0.5624 -0.0970  0.1950
   65SAPC  H14R 5337   3.559   4.609   7.718 -3.1757  1.6575  0.1887
   65SAPC  C215 5338   3.478   4.525   7.894 -0.5148 -0.6324 -0.4410
   65SAPC  H15R 5339   3.499   4.616   7.952 -0.1860 -1.1819  0.3233
   65SAPC  C216 5340   3.409   4.423   7.980  0.1205  0.1918  0.3821
   65SAPC  H16R 5341   3.485   4.349   8.013  1.3463  0.4360 -1.7814
   65SAPC  H16S 5342   3.322   4.375   7.929  0.3792  0.8473 -0.6982
   65SAPC  C217 5343   3.363   4.479   8.117  0.2362  0.6861 -0.6581
   65SAPC  H17R 5344   3.448   4.526   8.170 -0.3305  1.0185 -0.0428
   65SAPC  H17S 5345   3.330   4.394   8.180 -1.4045  0.7099 -1.4527
   65SAPC  C218 5346   3.261   4.597   8.113  0.2564  0.0120  0.0291
   65SAPC  H18R 5347   3.170   4.556   8.065 -0.5291 -0.3254  1.7743
   65SAPC  H18S 5348   3.306   4.683   8.058  2.6105 -0.8802  0.4832
   65SAPC  C219 5349   3.224   4.631   8.260 -0.1379 -0.2506  0.2618
   65SAPC  H19R 5350   3.308   4.674   8.318  0.2202  1.1011 -1.2255
   65SAPC  H19S 5351   3.197   4.534   8.306 -4.3164 -0.0561 -1.4993
   65SAPC  C220 5352   3.102   4.718   8.271 -0.2563 -0.4370 -0.4516
   65SAPC  H20R 5353   3.117   4.822   8.235 -1.1810 -0.2718 -0.3765
   65SAPC  H20S 5354   3.069   4.725   8.377 -3.1542  2.3847 -1.4567
   65SAPC  H20T 5355   3.017   4.679   8.212 -0.6606  0.5534 -0.5458
   65SAPC   C33 5356   3.448   4.720   6.882  0.0630  0.6132 -0.5902
   65SAPC   H3X 5357   3.519   4.764   6.809  1.4748  0.4684  0.6700
   65SAPC   H3Y 5358   3.478   4.613   6.895  0.0542  0.5302 -1.2708
   65SAPC   C34 5359   3.467   4.794   7.022 -0.6368  0.2140  0.6861
   65SAPC   H4X 5360   3.453   4.901   6.995  2.3855  0.6022  0.5190
   65SAPC   H4Y 5361   3.568   4.779   7.064 -1.0706 -1.0623  1.3154
   65SAPC   C35 5362   3.367   4.759   7.126  0.6910 -0.6259  0.4391
   65SAPC   H5X 5363   3.403   4.674   7.187  0.8270  1.0533  2.7634
   65SAPC   H5Y 5364   3.277   4.721   7.073  0.9904  0.2151 -0.7098
   65SAPC   C36 5365   3.345   4.874   7.228  0.2533 -0.2641  0.1471
   65SAPC   H6X 5366   3.310   4.960   7.167  1.5433  1.5377  1.8754
   65SAPC   H6Y 5367   3.448   4.894   7.266  1.3582 -1.1099 -2.3171
   65SAPC   C37 5368   3.250   4.843   7.343 -0.4601  0.2773  0.7838
   65SAPC   H7X 5369   3.255   4.738   7.377  0.5034 -0.1563 -0.6285
   65SAPC   H7Y 5370   3.148   4.861   7.304  0.1040  0.1510 -0.8147
   65SAPC   C38 5371   3.272   4.919   7.463 -1.3229 -0.3662  0.1906
   65SAPC   H8X 5372   3.280   5.025   7.430  0.9096  0.3662  2.8519
   65SAPC   H8Y 5373   3.371   4.889   7.505 -0.7845  0.5017 -0.4494
   65SAPC   C39 5374   3.159   4.902   7.563  0.1799  0.5205 -0.5695
   65SAPC   H9X 5375   3.064   4.940   7.521 -0.4201  0.3418  0.6179
   65SAPC   H9Y 5376   3.178   4.965   7.653 -0.8811 -0.6339  0.4859
   65SAPC  C310 5377   3.139   4.756   7.611  0.9148  0.5464  0.1347
   65SAPC  H10X 5378   3.239   4.720   7.645  0.6884 -1.2454 -1.0303
   65SAPC  H10Y 5379   3.111   4.688   7.528  0.9742 -3.3738  3.1837
   65SAPC  C311 5380   3.033   4.761   7.719  0.2442  0.8998  0.3516
   65SAPC  H11X 5381   2.935   4.788   7.675  0.6126  1.1706 -0.3140
   65SAPC  H11Y 5382   3.052   4.847   7.786  1.3192  0.7889  0.2095
   65SAPC  C312 5383   3.020   4.628   7.794  0.5626 -0.5335  0.7786
   65SAPC  H12X 5384   2.930   4.631   7.859 -0.6129 -2.5245 -0.7281
   65SAPC  H12Y 5385   3.110   4.631   7.860  1.7646  0.1196 -0.8301
   65SAPC  C313 5386   3.019   4.500   7.705 -0.0618  0.1632  0.2490
   65SAPC  H13X 5387   3.108   4.510   7.639  0.1587  0.6413  0.6112
   65SAPC  H13Y 5388   2.939   4.506   7.629 -0.6746 -0.9537  0.8033
   65SAPC  C314 5389   3.052   4.375   7.779  0.7660  0.0526  0.3090
   65SAPC  H14X 5390   2.961   4.348   7.837  1.1154 -0.6775  0.5238
   65SAPC  H14Y 5391   3.130   4.394   7.855 -0.1592  1.7277  0.8780
   65SAPC  C315 5392   3.106   4.266   7.680  0.8329  0.1009 -0.7993
   65SAPC  H15X 5393   3.165   4.194   7.741 -0.6444 -1.6465 -1.3958
   65SAPC  H15Y 5394   3.172   4.307   7.601  1.8073 -0.3039 -0.2119
   65SAPC  C316 5395   3.003   4.181   7.597  0.8287  1.0202 -0.6075
   65SAPC  H16X 5396   2.947   4.248   7.527 -1.5818 -0.3853 -0.0931
   65SAPC  H16Y 5397   2.922   4.148   7.665  0.0050  3.8994 -0.1197
   65SAPC  C317 5398   3.058   4.077   7.508  0.5128  1.0119 -0.5706
   65SAPC  H17X 5399   3.121   4.016   7.576 -0.1409  0.2774 -0.6175
   65SAPC  H17Y 5400   3.130   4.112   7.431  1.7654 -0.2213  0.0269
   65SAPC  C318 5401   2.948   3.993   7.447  0.4293 -1.0917 -0.2037
   65SAPC  H18X 5402   2.900   4.057   7.370  0.6255 -1.3879 -0.5711
   65SAPC  H18Y 5403   2.877   3.961   7.526  0.4667 -0.5181  0.0636
   65SAPC  H18Z 5404   2.981   3.903   7.392  1.7899 -0.0138 -1.2037
   66SAPC     N 5405   0.370   3.370   5.631  0.6695 -0.0790 -0.0896
   66SAPC   C12 5406   0.367   3.375   5.782 -0.3465  0.3257  0.0315
   66SAPC  H12A 5407   0.280   3.320   5.815  0.1356 -1.0558 -0.9568
   66SAPC  H12B 5408   0.346   3.474   5.819 -1.9954 -0.1696  0.4451
   66SAPC   C13 5409   0.371   3.226   5.594  0.5247 -0.0651 -0.2597
   66SAPC  H13A 5410   0.270   3.188   5.602  0.4023  0.2165 -0.4494
   66SAPC  H13B 5411   0.389   3.219   5.488 -1.7466 -0.0984 -0.6644
   66SAPC  H13C 5412   0.444   3.168   5.649  0.5042 -0.3655 -0.5469
   66SAPC   C14 5413   0.252   3.441   5.570  0.5704 -0.4537 -0.5222
   66SAPC  H14A 5414   0.160   3.401   5.610  1.3460 -0.6949  1.0760
   66SAPC  H14B 5415   0.258   3.545   5.598 -3.5497 -0.0918 -0.6886
   66SAPC  H14C 5416   0.251   3.431   5.463 -0.0682 -2.6221 -0.3365
   66SAPC   C15 5417   0.491   3.445   5.577 -0.0385 -0.3072 -0.2009
   66SAPC  H15A 5418   0.488   3.547   5.614 -1.1958  1.0100 -3.8126
   66SAPC  H15B 5419   0.581   3.402   5.620 -1.3164 -0.8841  1.9821
   66SAPC  H15C 5420   0.485   3.443   5.470 -0.0709  0.1941 -0.2067
   66SAPC   C11 5421   0.488   3.312   5.862  0.6285  0.2258 -0.4146
   66SAPC  H11A 5422   0.519   3.214   5.821 -0.8307 -0.4373  0.0313
   66SAPC  H11B 5423   0.451   3.293   5.965  1.5574  1.0784  0.0868
   66SAPC     P 5424   0.612   3.516   5.956 -0.1226 -0.2765 -0.0118
   66SAPC   O13 5425   0.745   3.577   5.933 -0.1568 -0.0699  0.7751
   66SAPC   O14 5426   0.493   3.604   5.957  0.2115  0.5121  0.1290
   66SAPC   O12 5427   0.599   3.400   5.850  0.2090 -0.0982  0.3486
   66SAPC   O11 5428   0.618   3.430   6.092  0.0272  0.3438  0.2030
   66SAPC    C1 5429   0.724   3.328   6.106 -0.6334 -0.1870  0.5453
   66SAPC    HA 5430   0.701   3.245   6.036  1.7915 -1.0023  0.6754
   66SAPC    HB 5431   0.824   3.365   6.075 -0.5619 -0.1133  0.8662
   66SAPC    C2 5432   0.732   3.265   6.248  0.1880  0.4089 -0.3890
   66SAPC    HS 5433   0.628   3.233   6.268  0.6561 -1.6378 -1.0802
   66SAPC   O21 5434   0.796   3.354   6.344  0.8737  0.3878 -0.0994
   66SAPC   C21 5435   0.707   3.435   6.400 -0.1931  0.7378 -0.8650
   66SAPC   O22 5436   0.585   3.429   6.401 -0.4881 -0.4662  0.2289
   66SAPC   C22 5437   0.780   3.537   6.486 -0.1260  0.9967  0.4002
   66SAPC   H2R 5438   0.703   3.596   6.540  1.2722  1.6042  1.7657
   66SAPC   H2S 5439   0.840   3.478   6.559 -1.3338 -2.9268 -1.6438
   66SAPC    C3 5440   0.816   3.130   6.228 -0.1518 -0.0748  0.3941
   66SAPC    HX 5441   0.921   3.160   6.207 -0.5667 -0.3765 -2.2668
   66SAPC    HY 5442   0.792   3.070   6.138 -0.6690  0.4930  0.1581
   66SAPC   O31 5443   0.809   3.057   6.354  0.6028  0.0169  0.1011
   66SAPC   C31 5444   0.701   2.998   6.388 -0.3644 -0.1163  0.3956
   66SAPC   O32 5445   0.594   3.016   6.337 -0.7976  0.0317  0.4923
   66SAPC   C32 5446   0.727   2.915   6.509  0.0274 -0.0142 -0.1468
   66SAPC   H2X 5447   0.763   2.822   6.460 -0.4411 -0.9100  1.2091
   66SAPC   H2Y 5448   0.636   2.896   6.569 -0.2633 -0.8200 -0.8360
   66SAPC   C23 5449   0.875   3.636   6.415  0.0539 -0.3969 -0.1300
   66SAPC   H3R 5450   0.827   3.676   6.323 -1.1690 -1.6500 -0.0545
   66SAPC   H3S 5451   0.963   3.583   6.372  1.7471  1.2253  1.2454
   66SAPC   C24 5452   0.921   3.755   6.504  0.7094 -0.0695  1.1061
   66SAPC   H4R 5453   0.830   3.813   6.532 -0.2891 -1.4751  0.7843
   66SAPC   H4S 5454   0.980   3.824   6.441 -0.2806 -1.5186 -1.4688
   66SAPC   C25 5455   1.025   3.722   6.612 -0.6612  0.4348  0.2310
   66SAPC   H5R 5456   1.126   3.698   6.574 -0.6411  0.0565  0.5265
   66SAPC   C26 5457   0.999   3.726   6.747  0.4421  0.6084  0.5761
   66SAPC   H6R 5458   1.084   3.711   6.814  2.7794  1.9413 -2.0057
   66SAPC   C27 5459   0.867   3.750   6.811  0.0017  0.1707 -0.2689
   66SAPC   H7R 5460   0.791   3.770   6.732  0.8888 -1.5693 -1.6159
   66SAPC   H7S 5461   0.867   3.842   6.872 -0.7676 -0.4750  0.7240
   66SAPC   C28 5462   0.809   3.643   6.901 -0.0969  0.3553  0.0385
   66SAPC   H8R 5463   0.746   3.569   6.850  0.3578 -0.8300  1.1662
   66SAPC   C29 5464   0.819   3.627   7.031 -0.6031  0.2607  0.7332
   66SAPC   H9R 5465   0.772   3.538   7.075  1.6500 -0.9548  0.7540
   66SAPC  C210 5466   0.899   3.703   7.135 -0.4778  0.1985 -0.0081
   66SAPC  H10R 5467   0.988   3.753   7.093 -0.6961 -0.1154 -0.8611
   66SAPC  H10S 5468   0.942   3.630   7.207  0.7933 -1.7902 -2.7005
   66SAPC  C211 5469   0.828   3.806   7.213  0.0922 -0.8999 -0.7827
   66SAPC  H11R 5470   0.795   3.886   7.145  2.8990  0.6263 -0.4239
   66SAPC  C212 5471   0.806   3.829   7.343  0.6871 -0.0484 -0.0240
   66SAPC  H12R 5472   0.750   3.917   7.378  2.0469  0.7883  0.1066
   66SAPC  C213 5473   0.860   3.743   7.456 -0.4012 -0.5296  0.0312
   66SAPC  H13R 5474   0.922   3.656   7.425  1.7162  0.9740 -0.0975
   66SAPC  H13S 5475   0.773   3.696   7.507 -0.0182  1.3542  2.5325
   66SAPC  C214 5476   0.957   3.814   7.556 -0.3268  0.9404 -0.0653
   66SAPC  H14R 5477   0.988   3.914   7.523  2.6391 -0.2339 -0.9938
   66SAPC  C215 5478   1.000   3.774   7.676 -1.2232 -0.4366 -0.0184
   66SAPC  H15R 5479   1.076   3.828   7.733 -1.2220 -0.6764  0.2057
   66SAPC  C216 5480   0.960   3.642   7.733 -0.1199  0.3004 -0.8990
   66SAPC  H16R 5481   1.043   3.570   7.753  0.4147  0.7629 -1.4326
   66SAPC  H16S 5482   0.902   3.587   7.657  1.0847 -0.9072 -0.9677
   66SAPC  C217 5483   0.876   3.649   7.866 -0.6458 -0.0535 -0.3774
   66SAPC  H17R 5484   0.824   3.552   7.881 -1.8813  0.7732  0.8986
   66SAPC  H17S 5485   0.801   3.731   7.853 -1.2126 -0.3835  0.7652
   66SAPC  C218 5486   0.959   3.684   7.986 -0.2103  0.2049 -0.4862
   66SAPC  H18R 5487   1.007   3.782   7.963  1.5027 -0.2649  0.9062
   66SAPC  H18S 5488   1.033   3.603   8.005 -0.2623  0.7211  2.1464
   66SAPC  C219 5489   0.887   3.684   8.120 -0.9885  1.0571 -0.2075
   66SAPC  H19R 5490   0.956   3.687   8.207  1.1493 -0.2746 -1.7956
   66SAPC  H19S 5491   0.837   3.585   8.127 -0.1947  0.3727 -3.3427
   66SAPC  C220 5492   0.784   3.788   8.129 -0.2078  0.9374  0.1059
   66SAPC  H20R 5493   0.698   3.746   8.072  0.2289  0.4092 -0.1769
   66SAPC  H20S 5494   0.808   3.887   8.085 -0.5813  0.6591 -0.7501
   66SAPC  H20T 5495   0.764   3.809   8.236 -0.9418  2.3102 -0.2943
   66SAPC   C33 5496   0.836   2.969   6.602  0.4885  0.0095 -0.1456
   66SAPC   H3X 5497   0.819   3.079   6.613 -1.6091 -0.2783 -0.3070
   66SAPC   H3Y 5498   0.929   2.961   6.541  0.2226  0.7382 -0.6572
   66SAPC   C34 5499   0.850   2.896   6.733 -0.0849 -0.1377 -0.5140
   66SAPC   H4X 5500   0.864   2.788   6.712  0.7380 -0.5990  2.1535
   66SAPC   H4Y 5501   0.754   2.901   6.790  0.7695  2.3712  0.7768
   66SAPC   C35 5502   0.959   2.952   6.819 -0.0540 -0.6728  0.7607
   66SAPC   H5X 5503   0.934   3.061   6.822 -0.8378 -0.6510 -3.6040
   66SAPC   H5Y 5504   1.059   2.940   6.772  0.1121  1.9882  0.3376
   66SAPC   C36 5505   0.963   2.891   6.959  0.0175  0.0117 -0.3317
   66SAPC   H6X 5506   0.989   2.783   6.948  1.3491  0.0577  1.9675
   66SAPC   H6Y 5507   0.860   2.901   6.999  0.4480  0.5182  0.6684
   66SAPC   C37 5508   1.071   2.954   7.045  0.3446 -0.5678  0.3328
   66SAPC   H7X 5509   1.041   3.061   7.054  0.0750 -0.6556  0.4974
   66SAPC   H7Y 5510   1.169   2.960   6.993  0.6597  1.7224  1.1001
   66SAPC   C38 5511   1.097   2.905   7.189 -0.1079 -0.7984 -0.5398
   66SAPC   H8X 5512   1.140   2.803   7.187  1.0579 -0.3236 -0.5424
   66SAPC   H8Y 5513   0.999   2.900   7.240  0.9230 -1.2156  1.4622
   66SAPC   C39 5514   1.180   3.001   7.278 -1.2173  0.2536  0.7840
   66SAPC   H9X 5515   1.153   3.108   7.265  2.0730  1.2286  1.5273
   66SAPC   H9Y 5516   1.282   3.001   7.233 -0.9838 -0.2496  1.3070
   66SAPC  C310 5517   1.195   2.950   7.420  0.6684  0.0267 -0.1786
   66SAPC  H10X 5518   1.268   2.867   7.411 -0.2823 -0.9280  0.7257
   66SAPC  H10Y 5519   1.102   2.899   7.456  1.3775 -0.1844  1.3913
   66SAPC  C311 5520   1.260   3.032   7.530 -0.3268 -0.6409  0.0665
   66SAPC  H11X 5521   1.195   3.107   7.580  0.2011 -0.1928  0.0912
   66SAPC  H11Y 5522   1.336   3.097   7.483 -1.4231  0.7396  0.1735
   66SAPC  C312 5523   1.327   2.937   7.631  0.0689  0.6904 -0.2904
   66SAPC  H12X 5524   1.387   3.007   7.692 -2.1166  0.6153  2.0343
   66SAPC  H12Y 5525   1.399   2.875   7.573  0.6768  0.7951  0.3523
   66SAPC  C313 5526   1.227   2.857   7.723  0.2656 -0.5162  0.0788
   66SAPC  H13X 5527   1.197   2.765   7.667 -0.2359  0.4384 -1.2532
   66SAPC  H13Y 5528   1.136   2.918   7.740 -0.1849 -0.6222 -1.7910
   66SAPC  C314 5529   1.285   2.817   7.856  0.2942 -0.2695 -0.8512
   66SAPC  H14X 5530   1.357   2.895   7.891 -1.9117  2.0829 -1.3944
   66SAPC  H14Y 5531   1.350   2.727   7.857 -1.3098 -1.4489  1.4413
   66SAPC  C315 5532   1.177   2.796   7.964 -0.3100 -0.3921 -0.6204
   66SAPC  H15X 5533   1.099   2.723   7.935  1.7845 -2.2204 -1.7951
   66SAPC  H15Y 5534   1.132   2.897   7.982  1.9965  0.7811 -1.1964
   66SAPC  C316 5535   1.246   2.756   8.101  0.3934  0.4442  0.4410
   66SAPC  H16X 5536   1.323   2.833   8.123 -1.6965  2.1583  2.0451
   66SAPC  H16Y 5537   1.293   2.657   8.081  0.4630  0.5059  0.2967
   66SAPC  C317 5538   1.148   2.752   8.216  0.2184  0.0450 -0.5228
   66SAPC  H17X 5539   1.077   2.671   8.190 -2.1418  2.1561 -0.8522
   66SAPC  H17Y 5540   1.082   2.842   8.216 -0.0741 -0.1324 -2.5181
   66SAPC  C318 5541   1.216   2.723   8.347 -0.3488  0.2894  0.3458
   66SAPC  H18X 5542   1.213   2.614   8.367  1.6081  0.0949 -0.3412
   66SAPC  H18Y 5543   1.159   2.766   8.432  0.1091 -1.1154  1.3761
   66SAPC  H18Z 5544   1.322   2.755   8.360 -0.4037  1.1348 -1.1807
   67SAPC     N 5545   3.606   5.334   6.179  0.5466  0.2526 -0.1910
   67SAPC   C12 5546   3.602   5.402   6.315 -0.0794  0.4595  0.0851
   67SAPC  H12A 5547   3.701   5.445   6.319 -0.1615  0.7578 -0.9380
   67SAPC  H12B 5548   3.579   5.321   6.383 -0.5538 -1.3351 -2.1422
   67SAPC   C13 5549   3.606   5.440   6.075  0.5246 -0.6444  0.5305
   67SAPC  H13A 5550   3.686   5.511   6.087 -0.1289 -0.1735  2.2199
   67SAPC  H13B 5551   3.612   5.395   5.977  1.7925 -1.3699  0.9403
   67SAPC  H13C 5552   3.510   5.489   6.079  0.1985 -1.0772 -1.5475
   67SAPC   C14 5553   3.729   5.250   6.167  0.0686 -0.3603 -0.2220
   67SAPC  H14A 5554   3.729   5.191   6.076  0.3498  0.8218 -1.0069
   67SAPC  H14B 5555   3.818   5.310   6.179  0.0723  0.2189 -2.7429
   67SAPC  H14C 5556   3.723   5.185   6.252  3.8913  0.5745  0.8468
   67SAPC   C15 5557   3.483   5.255   6.155 -0.5896  0.5088  0.1295
   67SAPC  H15A 5558   3.394   5.312   6.175 -1.4548 -0.6715 -0.2399
   67SAPC  H15B 5559   3.480   5.218   6.053 -1.7547 -0.6070  0.5518
   67SAPC  H15C 5560   3.472   5.179   6.231 -2.3233  0.6393  0.0389
   67SAPC   C11 5561   3.492   5.503   6.349  0.3057 -0.2853  0.7590
   67SAPC  H11A 5562   3.503   5.591   6.281 -0.7811  0.5137  1.6130
   67SAPC  H11B 5563   3.507   5.541   6.452 -2.4915  1.4633  0.5662
   67SAPC     P 5564   3.315   5.347   6.464 -0.1023  0.2485 -0.4240
   67SAPC   O13 5565   3.167   5.330   6.450  0.2225 -0.2602  0.1420
   67SAPC   O14 5566   3.409   5.233   6.460  0.3144  0.2426 -0.0855
   67SAPC   O12 5567   3.361   5.443   6.347 -0.7765  0.4569  0.3512
   67SAPC   O11 5568   3.350   5.429   6.595 -0.2736 -0.0525  0.3727
   67SAPC    C1 5569   3.315   5.569   6.600 -0.5131 -0.9971 -0.1342
   67SAPC    HA 5570   3.407   5.628   6.580  0.5444 -2.9581 -1.2153
   67SAPC    HB 5571   3.242   5.598   6.521 -0.6645 -2.2280 -0.4553
   67SAPC    C2 5572   3.248   5.610   6.734  0.4143  0.2123  0.4083
   67SAPC    HS 5573   3.238   5.721   6.729 -3.0104 -0.0530  0.0998
   67SAPC   O21 5574   3.341   5.568   6.831 -0.0113 -0.2667  0.2450
   67SAPC   C21 5575   3.446   5.644   6.857 -0.1091  0.2204 -0.3509
   67SAPC   O22 5576   3.468   5.751   6.805 -0.7663 -0.6470  0.4790
   67SAPC   C22 5577   3.526   5.586   6.972 -0.1061  0.6127 -0.1162
   67SAPC   H2R 5578   3.456   5.537   7.043  1.5966 -0.4232  0.8684
   67SAPC   H2S 5579   3.592   5.509   6.927 -0.6760  0.5990 -0.9442
   67SAPC    C3 5580   3.111   5.542   6.749  0.2565  0.9997 -0.4849
   67SAPC    HX 5581   3.128   5.432   6.748 -0.6558  0.8415 -2.1406
   67SAPC    HY 5582   3.046   5.564   6.661  1.2949  0.9137 -1.2931
   67SAPC   O31 5583   3.048   5.578   6.878  0.1970 -0.3071 -0.3506
   67SAPC   C31 5584   2.918   5.595   6.878  0.5747 -0.1789  0.3540
   67SAPC   O32 5585   2.838   5.582   6.784 -0.2790 -0.0925  0.1449
   67SAPC   C32 5586   2.867   5.631   7.019 -0.7829 -0.6582 -0.7225
   67SAPC   H2X 5587   2.784   5.705   7.021  1.8078  2.3347 -0.6363
   67SAPC   H2Y 5588   2.953   5.684   7.065  0.8950 -0.8023 -3.5704
   67SAPC   C23 5589   3.617   5.688   7.043  1.3016 -0.2817 -0.0835
   67SAPC   H3R 5590   3.558   5.765   7.096  1.6228  0.9685 -1.4984
   67SAPC   H3S 5591   3.685   5.739   6.971  0.9902 -0.6771 -0.6589
   67SAPC   C24 5592   3.705   5.622   7.151  0.2244 -0.4604 -0.3340
   67SAPC   H4R 5593   3.769   5.540   7.111  1.1091  1.3569 -2.7723
   67SAPC   H4S 5594   3.643   5.561   7.220 -2.0993 -1.0219 -2.8188
   67SAPC   C25 5595   3.791   5.720   7.216 -0.4282  0.1271 -0.5258
   67SAPC   H5R 5596   3.883   5.747   7.161 -0.7267  2.9994  0.2859
   67SAPC   C26 5597   3.772   5.798   7.328 -0.1732 -0.1771  0.2399
   67SAPC   H6R 5598   3.854   5.865   7.356 -0.3155  0.8925 -1.8271
   67SAPC   C27 5599   3.653   5.791   7.425  0.0465  0.3872  0.4092
   67SAPC   H7R 5600   3.551   5.807   7.386  0.5436  0.8527 -0.7381
   67SAPC   H7S 5601   3.670   5.869   7.502 -2.1319  0.5138  0.7840
   67SAPC   C28 5602   3.652   5.647   7.485  0.5857  0.1305  0.1647
   67SAPC   H8R 5603   3.581   5.581   7.433  0.1864  0.0520  0.7979
   67SAPC   C29 5604   3.713   5.610   7.601  0.1707  0.5539  0.3347
   67SAPC   H9R 5605   3.700   5.509   7.643  2.0845  0.4835  0.7711
   67SAPC  C210 5606   3.801   5.698   7.689 -0.1198  0.4699  0.6934
   67SAPC  H10R 5607   3.872   5.753   7.624  1.0298 -0.2492  1.3133
   67SAPC  H10S 5608   3.882   5.651   7.749  0.9530 -1.5355 -2.2173
   67SAPC  C211 5609   3.721   5.795   7.776  0.1823  0.1083  0.2560
   67SAPC  H11R 5610   3.655   5.868   7.728 -1.6169 -0.9985  1.0305
   67SAPC  C212 5611   3.724   5.806   7.908 -0.2374  0.5184 -0.0092
   67SAPC  H12R 5612   3.658   5.877   7.960 -1.4833  0.3897 -1.3844
   67SAPC  C213 5613   3.805   5.717   7.999 -0.3852  0.3053  0.0851
   67SAPC  H13R 5614   3.834   5.620   7.952  1.4982  0.8926 -0.0150
   67SAPC  H13S 5615   3.739   5.689   8.083  1.2733  1.0327  1.6503
   67SAPC  C214 5616   3.929   5.778   8.056 -0.0234 -0.4969  0.2446
   67SAPC  H14R 5617   3.978   5.854   7.994  1.6141 -1.8363 -0.1326
   67SAPC  C215 5618   3.983   5.766   8.180 -0.0543  0.6164 -0.5018
   67SAPC  H15R 5619   4.076   5.816   8.211  0.8270 -1.0956 -0.3178
   67SAPC  C216 5620   3.916   5.677   8.280 -0.2725 -0.1623 -0.0559
   67SAPC  H16R 5621   3.982   5.595   8.314 -1.1785  0.0071  2.2215
   67SAPC  H16S 5622   3.830   5.623   8.234 -1.3809  1.8888 -0.4412
   67SAPC  C217 5623   3.872   5.765   8.396 -0.0642  0.0441  0.0957
   67SAPC  H17R 5624   3.949   5.826   8.448  0.2641  0.4214 -0.8311
   67SAPC  H17S 5625   3.841   5.692   8.474 -0.1934  0.3391  0.3273
   67SAPC  C218 5626   3.752   5.862   8.363  0.1356 -0.3731  0.0428
   67SAPC  H18R 5627   3.664   5.809   8.321  1.8473 -3.1427 -0.1515
   67SAPC  H18S 5628   3.796   5.931   8.288  0.1103  0.0425  0.4094
   67SAPC  C219 5629   3.722   5.960   8.483  0.5092 -0.4674  0.2995
   67SAPC  H19R 5630   3.693   5.895   8.568  0.6206 -1.9421 -0.7660
   67SAPC  H19S 5631   3.634   6.021   8.452 -0.3269 -1.8721 -0.1084
   67SAPC  C220 5632   3.833   6.060   8.527  0.3028 -0.1414 -0.0118
   67SAPC  H20R 5633   3.785   6.126   8.602  0.2925 -0.5851  0.3712
   67SAPC  H20S 5634   3.872   6.120   8.442  0.5294 -1.8676 -1.1507
   67SAPC  H20T 5635   3.911   6.007   8.585  0.5829 -0.5234 -0.7293
   67SAPC   C33 5636   2.833   5.512   7.104  0.1455  0.2377 -0.2623
   67SAPC   H3X 5637   2.920   5.445   7.126 -1.1875 -1.1389  0.9323
   67SAPC   H3Y 5638   2.769   5.453   7.035  0.2357  0.4260 -0.5035
   67SAPC   C34 5639   2.774   5.544   7.239  0.1293  0.5964  0.0059
   67SAPC   H4X 5640   2.665   5.564   7.232  0.0767 -0.1846 -1.5179
   67SAPC   H4Y 5641   2.820   5.635   7.284  2.0901  0.2566 -1.2701
   67SAPC   C35 5642   2.807   5.431   7.344  0.8756  0.2340 -0.8506
   67SAPC   H5X 5643   2.905   5.385   7.321  0.4331 -1.1092 -0.1091
   67SAPC   H5Y 5644   2.741   5.343   7.328  1.9646 -0.5818 -0.9349
   67SAPC   C36 5645   2.788   5.486   7.485 -0.3918 -0.6690 -0.3489
   67SAPC   H6X 5646   2.684   5.524   7.492 -0.6504 -0.4620 -4.2418
   67SAPC   H6Y 5647   2.871   5.558   7.502 -1.0045 -0.2192  0.7476
   67SAPC   C37 5648   2.815   5.385   7.595  0.8070  0.8652  0.2154
   67SAPC   H7X 5649   2.879   5.301   7.560  0.2721  0.0765  1.1000
   67SAPC   H7Y 5650   2.722   5.337   7.633  1.0574  0.4121  0.2570
   67SAPC   C38 5651   2.904   5.449   7.706 -0.1896 -1.0305 -0.1258
   67SAPC   H8X 5652   2.840   5.533   7.742 -0.3346 -0.3500 -1.8981
   67SAPC   H8Y 5653   2.999   5.482   7.658 -0.5227  1.7803  1.0690
   67SAPC   C39 5654   2.927   5.338   7.815 -0.4472 -0.6483  0.3803
   67SAPC   H9X 5655   2.985   5.257   7.765  2.5527  3.2285 -2.7685
   67SAPC   H9Y 5656   2.828   5.319   7.862 -1.1782  0.2472 -0.7480
   67SAPC  C310 5657   3.026   5.389   7.924 -0.5338 -1.3374 -0.3597
   67SAPC  H10X 5658   2.967   5.459   7.986  1.1062  0.5975 -0.9305
   67SAPC  H10Y 5659   3.105   5.448   7.873  0.1379 -1.9615 -0.0479
   67SAPC  C311 5660   3.082   5.285   8.012  0.1872  0.1090  0.0941
   67SAPC  H11X 5661   3.136   5.215   7.944 -1.6360 -0.7636 -0.4849
   67SAPC  H11Y 5662   3.002   5.229   8.065  0.7320  0.4580  1.2877
   67SAPC  C312 5663   3.161   5.344   8.130 -0.9726  0.3409  0.3250
   67SAPC  H12X 5664   3.106   5.436   8.160 -0.0514  1.5937 -1.7113
   67SAPC  H12Y 5665   3.249   5.392   8.081 -1.1002  0.6059  0.3591
   67SAPC  C313 5666   3.180   5.270   8.262  0.5100 -0.6062  0.4252
   67SAPC  H13X 5667   3.092   5.220   8.308 -0.1529 -1.4335 -1.6941
   67SAPC  H13Y 5668   3.206   5.343   8.342 -0.1761 -0.4535  0.5086
   67SAPC  C314 5669   3.290   5.164   8.252  0.1156  0.9940 -0.1078
   67SAPC  H14X 5670   3.382   5.219   8.222 -0.4020  0.7491 -2.2107
   67SAPC  H14Y 5671   3.263   5.092   8.173 -0.7242 -1.5284  2.3969
   67SAPC  C315 5672   3.325   5.093   8.384  0.1139  0.3690 -0.2022
   67SAPC  H15X 5673   3.381   5.159   8.453  0.6559  0.1080 -0.3880
   67SAPC  H15Y 5674   3.387   5.005   8.354  0.7082  0.1745  1.5489
   67SAPC  C316 5675   3.197   5.036   8.453 -0.6381 -1.5641  0.4487
   67SAPC  H16X 5676   3.124   4.980   8.391 -1.5437  0.9445 -0.8192
   67SAPC  H16Y 5677   3.135   5.121   8.487  0.5158 -0.9117  0.9354
   67SAPC  C317 5678   3.228   4.964   8.587 -0.6520 -0.7158 -0.1274
   67SAPC  H17X 5679   3.274   5.035   8.658 -0.1204 -1.2042  0.0160
   67SAPC  H17Y 5680   3.302   4.883   8.569  0.5093  0.3788 -0.3260
   67SAPC  C318 5681   3.107   4.919   8.651  0.1635  0.1195 -0.1714
   67SAPC  H18X 5682   3.052   4.849   8.586 -2.7713  0.6763  1.6251
   67SAPC  H18Y 5683   3.029   4.995   8.673  1.8661  1.3543  1.7671
   67SAPC  H18Z 5684   3.137   4.875   8.749  0.4815  0.9048  0.0938
   68SAPC     N 5685   0.759   4.643   6.152 -0.3455 -0.0855  0.5904
   68SAPC   C12 5686   0.906   4.623   6.171 -0.1965 -0.1374 -0.0655
   68SAPC  H12A 5687   0.911   4.524   6.214 -0.4458  0.3252  1.0335
   68SAPC  H12B 5688   0.938   4.690   6.249 -2.8789 -1.2902  2.1284
   68SAPC   C13 5689   0.705   4.693   6.279 -0.1080  0.7563  0.4184
   68SAPC  H13A 5690   0.722   4.624   6.359  2.7357 -1.4227 -1.9392
   68SAPC  H13B 5691   0.743   4.789   6.314  0.6599 -0.4647  3.0491
   68SAPC  H13C 5692   0.598   4.687   6.275 -0.0953  1.6167 -2.9493
   68SAPC   C14 5693   0.732   4.759   6.054  0.1910  1.0559  0.9012
   68SAPC  H14A 5694   0.628   4.788   6.056 -0.0698  0.0097  2.8254
   68SAPC  H14B 5695   0.796   4.843   6.075  2.8188 -0.8857  0.8978
   68SAPC  H14C 5696   0.737   4.722   5.952  2.1837  0.7399  1.0985
   68SAPC   C15 5697   0.698   4.523   6.098  0.1110 -0.2146  0.3101
   68SAPC  H15A 5698   0.759   4.492   6.013  1.6123  0.9908  0.9173
   68SAPC  H15B 5699   0.703   4.447   6.174  0.3468 -0.0320  0.4767
   68SAPC  H15C 5700   0.598   4.541   6.061 -0.1427 -0.3894  0.9145
   68SAPC   C11 5701   0.999   4.646   6.043  0.1957  0.1602 -0.2951
   68SAPC  H11A 5702   1.104   4.638   6.078  1.0568 -0.1005 -2.8037
   68SAPC  H11B 5703   0.988   4.750   6.003 -2.8542 -0.2370 -0.6355
   68SAPC     P 5704   1.001   4.405   5.950 -0.1574  0.2023 -0.0377
   68SAPC   O13 5705   0.878   4.323   5.959  0.3514  0.6560 -0.8742
   68SAPC   O14 5706   1.100   4.381   5.838  0.0641 -0.2960  0.7903
   68SAPC   O12 5707   0.968   4.559   5.939  0.1580  0.4680  0.4238
   68SAPC   O11 5708   1.083   4.389   6.085 -0.0277  0.0242 -0.1295
   68SAPC    C1 5709   1.231   4.386   6.082 -0.6215  0.4284  0.2732
   68SAPC    HA 5710   1.269   4.287   6.049 -6.8215 -1.9986 -0.1748
   68SAPC    HB 5711   1.275   4.476   6.034  1.9565  1.1406  3.7138
   68SAPC    C2 5712   1.289   4.391   6.229 -0.1794 -0.0074  0.2389
   68SAPC    HS 5713   1.399   4.376   6.216 -0.2186  0.9683 -1.4517
   68SAPC   O21 5714   1.232   4.297   6.315  0.0621  0.2351 -0.6914
   68SAPC   C21 5715   1.291   4.175   6.307  0.1050  0.0207  0.1903
   68SAPC   O22 5716   1.389   4.154   6.241 -0.1623  0.0714 -0.5089
   68SAPC   C22 5717   1.215   4.077   6.394  0.0289 -0.1590 -0.3056
   68SAPC   H2R 5718   1.122   4.048   6.341 -0.0131  0.0027 -0.3227
   68SAPC   H2S 5719   1.279   3.990   6.418  1.1091  0.7257  0.0689
   68SAPC    C3 5720   1.270   4.527   6.296  0.1822 -0.1993  0.3387
   68SAPC    HX 5721   1.164   4.554   6.275 -0.0673  0.9198  2.8006
   68SAPC    HY 5722   1.326   4.605   6.239  0.3289 -2.4791 -2.7517
   68SAPC   O31 5723   1.292   4.540   6.433 -0.7581  0.0503 -0.0096
   68SAPC   C31 5724   1.187   4.524   6.521  0.0135 -0.4519  0.4088
   68SAPC   O32 5725   1.072   4.514   6.480  0.3276  0.2455 -0.3008
   68SAPC   C32 5726   1.238   4.531   6.657 -0.5073  0.5580 -0.2869
   68SAPC   H2X 5727   1.270   4.636   6.672  1.8731 -0.1621 -0.2270
   68SAPC   H2Y 5728   1.327   4.466   6.665 -0.8640 -0.0137 -0.9237
   68SAPC   C23 5729   1.187   4.137   6.535 -0.5079 -0.2824  0.0124
   68SAPC   H3R 5730   1.115   4.071   6.586 -0.2017 -0.8455 -0.2811
   68SAPC   H3S 5731   1.138   4.235   6.517 -1.9187 -1.2183 -1.3577
   68SAPC   C24 5732   1.311   4.139   6.632 -0.6399  0.1526  0.8692
   68SAPC   H4R 5733   1.292   4.205   6.718  0.8684  0.9904  0.5773
   68SAPC   H4S 5734   1.394   4.187   6.576 -0.5788  0.0216  0.8466
   68SAPC   C25 5735   1.355   4.000   6.677  0.2209 -0.7538  1.1264
   68SAPC   H5R 5736   1.428   3.950   6.612 -0.6929 -0.8554  0.1642
   68SAPC   C26 5737   1.341   3.954   6.805  0.4570 -0.3804 -0.4146
   68SAPC   H6R 5738   1.396   3.863   6.833  1.3384 -0.3113 -1.8460
   68SAPC   C27 5739   1.284   4.028   6.924  0.2322  0.4157  0.1474
   68SAPC   H7R 5740   1.209   4.107   6.901  1.6995  1.7879  0.0109
   68SAPC   H7S 5741   1.364   4.085   6.976 -0.0891  1.4725 -0.4891
   68SAPC   C28 5742   1.209   3.935   7.008 -0.3047  0.3873 -0.4807
   68SAPC   H8R 5743   1.135   3.868   6.961 -1.5516  0.4167  1.3683
   68SAPC   C29 5744   1.216   3.925   7.142  0.3107  0.5014 -0.1017
   68SAPC   H9R 5745   1.166   3.840   7.189  0.3041  0.9508  0.7145
   68SAPC  C210 5746   1.312   4.003   7.223 -0.3450 -0.1068  0.1571
   68SAPC  H10R 5747   1.407   4.002   7.165 -0.4954 -0.0469 -0.0920
   68SAPC  H10S 5748   1.329   3.945   7.316  0.5342  2.3500  1.5638
   68SAPC  C211 5749   1.264   4.140   7.253  0.2938 -0.1065 -0.0999
   68SAPC  H11R 5750   1.221   4.200   7.171  0.3184 -0.5220 -0.4159
   68SAPC  C212 5751   1.269   4.204   7.373 -0.3689  0.8679  0.5554
   68SAPC  H12R 5752   1.222   4.304   7.378 -0.6544  0.9872 -2.9793
   68SAPC  C213 5753   1.323   4.145   7.499 -0.0045 -0.0355  1.2037
   68SAPC  H13R 5754   1.395   4.221   7.537  0.2697  0.2160  0.1988
   68SAPC  H13S 5755   1.392   4.059   7.487  1.6013  1.4014 -0.1675
   68SAPC  C214 5756   1.210   4.124   7.601  0.0266  0.0819 -0.5398
   68SAPC  H14R 5757   1.109   4.093   7.571 -1.5543  2.5432  1.9928
   68SAPC  C215 5758   1.222   4.129   7.735 -0.1250  0.2718 -0.1386
   68SAPC  H15R 5759   1.135   4.111   7.800  1.5229 -0.7913  1.8596
   68SAPC  C216 5760   1.346   4.172   7.805 -0.6861 -0.3808 -0.2369
   68SAPC  H16R 5761   1.342   4.283   7.819 -2.0530 -0.4755  0.1681
   68SAPC  H16S 5762   1.425   4.148   7.730 -1.1357  0.1156 -0.8828
   68SAPC  C217 5763   1.368   4.116   7.939 -0.8600 -0.0169  0.4491
   68SAPC  H17R 5764   1.462   4.164   7.973  0.5297 -2.6866  0.5329
   68SAPC  H17S 5765   1.397   4.009   7.930  0.9843  0.5725 -0.8392
   68SAPC  C218 5766   1.265   4.143   8.043 -0.7465  0.6526  0.3368
   68SAPC  H18R 5767   1.176   4.084   8.013 -0.3685 -0.3158  1.1061
   68SAPC  H18S 5768   1.226   4.247   8.044 -0.6038  0.7099  0.0774
   68SAPC  C219 5769   1.309   4.089   8.177 -0.3062  0.7898 -0.0332
   68SAPC  H19R 5770   1.412   4.117   8.208  0.3780 -1.0070 -0.5879
   68SAPC  H19S 5771   1.305   3.978   8.187 -3.1555  0.7169 -1.5303
   68SAPC  C220 5772   1.203   4.131   8.282  0.4315 -0.2539  0.0247
   68SAPC  H20R 5773   1.098   4.119   8.247  0.4153  0.7861 -0.3162
   68SAPC  H20S 5774   1.201   4.241   8.302  0.5316 -0.4327  1.0929
   68SAPC  H20T 5775   1.217   4.080   8.380  0.6045  0.6889  0.5082
   68SAPC   C33 5776   1.128   4.487   6.759 -0.2499 -0.4673 -0.0249
   68SAPC   H3X 5777   1.090   4.382   6.757  0.2088 -0.6236 -1.1832
   68SAPC   H3Y 5778   1.050   4.564   6.744  0.1362 -0.6348 -3.4860
   68SAPC   C34 5779   1.192   4.491   6.904  0.7700  0.8094  1.3796
   68SAPC   H4X 5780   1.283   4.427   6.903 -0.1743 -0.5387  0.4156
   68SAPC   H4Y 5781   1.128   4.445   6.983  0.2612  1.4204  1.3258
   68SAPC   C35 5782   1.206   4.625   6.962  0.0611  0.2076  0.4987
   68SAPC   H5X 5783   1.137   4.688   6.901 -0.0749 -0.2256  0.2025
   68SAPC   H5Y 5784   1.308   4.666   6.942  1.2277 -1.7833  2.2233
   68SAPC   C36 5785   1.181   4.636   7.113 -0.5705  0.4298 -0.2780
   68SAPC   H6X 5786   1.072   4.633   7.135 -1.0638  2.0229 -2.3921
   68SAPC   H6Y 5787   1.220   4.732   7.153  1.6303  0.2290 -1.8420
   68SAPC   C37 5788   1.251   4.532   7.200 -0.3119  0.4545  0.0238
   68SAPC   H7X 5789   1.358   4.526   7.171 -0.5325 -1.5985 -0.4312
   68SAPC   H7Y 5790   1.213   4.429   7.186  1.5750 -0.6757  2.8489
   68SAPC   C38 5791   1.252   4.569   7.356 -0.3152 -0.4342  0.1376
   68SAPC   H8X 5792   1.285   4.675   7.353 -0.8844 -0.2542  0.2660
   68SAPC   H8Y 5793   1.329   4.501   7.400 -1.3942 -0.8081  1.4686
   68SAPC   C39 5794   1.125   4.566   7.443  0.2421  0.4730  0.0769
   68SAPC   H9X 5795   1.108   4.459   7.465  2.1554 -0.2876 -1.9048
   68SAPC   H9Y 5796   1.031   4.604   7.399  0.2753  1.3157  0.7136
   68SAPC  C310 5797   1.143   4.640   7.574 -0.1030 -0.2180  0.3962
   68SAPC  H10X 5798   1.045   4.665   7.618 -0.7475 -0.7878 -0.6931
   68SAPC  H10Y 5799   1.192   4.738   7.559 -0.9145  0.0638 -0.4968
   68SAPC  C311 5800   1.229   4.556   7.680 -0.1460  0.4190 -0.0613
   68SAPC  H11X 5801   1.320   4.518   7.629 -0.8367  0.4367 -1.3178
   68SAPC  H11Y 5802   1.176   4.463   7.710  1.9524 -0.9417 -0.4920
   68SAPC  C312 5803   1.280   4.644   7.795 -0.0786  0.3097 -0.2789
   68SAPC  H12X 5804   1.312   4.741   7.750 -1.7451 -0.2777 -2.8094
   68SAPC  H12Y 5805   1.372   4.594   7.832  0.2836  1.2575  0.1176
   68SAPC  C313 5806   1.190   4.665   7.911 -0.0530  0.0299  0.1162
   68SAPC  H13X 5807   1.241   4.701   8.003 -0.3574 -2.2587  1.2192
   68SAPC  H13Y 5808   1.154   4.567   7.948 -1.6350  0.2357 -0.8356
   68SAPC  C314 5809   1.077   4.754   7.868  0.2839  0.2682 -0.5514
   68SAPC  H14X 5810   0.997   4.688   7.829 -0.8567  1.6661 -0.6220
   68SAPC  H14Y 5811   1.107   4.830   7.793 -0.0195  1.3499  0.3979
   68SAPC  C315 5812   1.027   4.846   7.982  0.2557 -0.1773 -0.3535
   68SAPC  H15X 5813   0.955   4.919   7.939  1.7048  2.3422  1.3294
   68SAPC  H15Y 5814   1.119   4.898   8.016  0.7954 -1.5711  0.3429
   68SAPC  C316 5815   0.962   4.788   8.115  0.0851 -0.4588 -0.1618
   68SAPC  H16X 5816   1.046   4.721   8.146  0.3039 -1.8596 -3.5997
   68SAPC  H16Y 5817   0.875   4.722   8.093 -0.5260  0.0625  0.6661
   68SAPC  C317 5818   0.931   4.891   8.226  0.7279  0.3891 -0.5777
   68SAPC  H17X 5819   1.019   4.958   8.238  1.7346 -0.7638 -1.3469
   68SAPC  H17Y 5820   0.916   4.831   8.318 -2.5072  4.8943  2.0564
   68SAPC  C318 5821   0.811   4.977   8.204 -0.3806 -0.4055 -0.8383
   68SAPC  H18X 5822   0.816   5.041   8.114 -1.0951 -0.3114 -0.8153
   68SAPC  H18Y 5823   0.796   5.034   8.298  5.0657 -0.4180  0.2266
   68SAPC  H18Z 5824   0.721   4.912   8.203 -0.0118 -0.9147 -1.2638
   69SLPC     N 5825   6.357   3.080  11.154  0.5926 -0.3938 -0.1861
   69SLPC   C13 5826   6.446   3.050  11.037 -0.5210  0.3597  0.5823
   69SLPC  H13A 5827   6.392   2.978  10.976  1.8262 -1.0565  0.1395
   69SLPC  H13B 5828   6.463   3.140  10.980 -0.2755  0.1438  0.3114
   69SLPC  H13C 5829   6.541   3.009  11.067  0.3365  2.0996  0.3093
   69SLPC   C14 5830   6.437   3.164  11.253 -0.0727  0.6139 -0.4748
   69SLPC  H14A 5831   6.376   3.202  11.334 -1.8964  0.5950 -1.8028
   69SLPC  H14B 5832   6.516   3.103  11.293  2.2911  3.2978 -0.8797
   69SLPC  H14C 5833   6.487   3.252  11.213 -1.5092  1.6143 -0.1310
   69SLPC   C15 5834   6.324   2.954  11.222  0.5722 -0.1987  0.4965
   69SLPC  H15A 5835   6.410   2.916  11.275  2.2777  0.5079 -1.6849
   69SLPC  H15B 5836   6.239   2.978  11.284 -0.2197 -2.8051  0.4645
   69SLPC  H15C 5837   6.299   2.875  11.153  3.9801  0.5286 -1.6944
   69SLPC   C12 5838   6.234   3.152  11.108 -0.0983  0.4762  0.4890
   69SLPC  H12A 5839   6.246   3.254  11.074 -1.8178  0.8981  1.0652
   69SLPC  H12B 5840   6.164   3.162  11.189 -0.3770  2.4576  0.0242
   69SLPC   C11 5841   6.152   3.072  10.998 -0.1131  0.5194  0.2753
   69SLPC  H11A 5842   6.220   3.035  10.918 -1.0305  1.0166 -0.7569
   69SLPC  H11B 5843   6.076   3.139  10.952  0.3561  2.3709  2.1585
   69SLPC     P 5844   6.082   2.818  10.974  0.0082  0.6609  0.1634
   69SLPC   O13 5845   6.210   2.749  10.969 -0.1780  0.2167 -0.2585
   69SLPC   O14 5846   5.968   2.748  11.039  0.6275  0.1479 -0.6043
   69SLPC   O12 5847   6.093   2.958  11.050 -0.2308  0.0917 -0.5092
   69SLPC   O11 5848   6.041   2.858  10.825  0.2864  0.1472 -0.5601
   69SLPC    C1 5849   5.932   2.948  10.799 -0.9976  0.3824  0.0446
   69SLPC    HA 5850   5.854   2.941  10.878 -0.8319 -0.2370  0.1570
   69SLPC    HB 5851   5.971   3.051  10.788 -1.1749  0.2527 -1.9073
   69SLPC    C2 5852   5.857   2.915  10.673 -0.8508 -0.0032  0.2422
   69SLPC    HS 5853   5.767   2.979  10.661 -1.0637 -0.3265  0.1326
   69SLPC   O21 5854   5.835   2.774  10.664  0.4613  0.3135 -0.0906
   69SLPC   C21 5855   5.738   2.734  10.747  0.7234  0.8658  0.1030
   69SLPC   O22 5856   5.673   2.806  10.822  0.1294 -0.1225 -1.0838
   69SLPC   C22 5857   5.704   2.591  10.731 -0.3861 -0.4653  0.9430
   69SLPC   H2R 5858   5.782   2.549  10.665 -1.5508 -0.3569 -0.5551
   69SLPC   H2S 5859   5.710   2.533  10.825  0.0341 -2.4563 -0.2892
   69SLPC    C3 5860   5.949   2.951  10.554  0.1723 -0.3482 -0.1069
   69SLPC    HX 5861   6.049   2.909  10.578  0.2315  0.8208  1.7974
   69SLPC    HY 5862   5.963   3.061  10.559 -1.3357 -0.0495 -1.9242
   69SLPC   O31 5863   5.903   2.914  10.424 -0.3911  0.2442 -0.2477
   69SLPC   C31 5864   5.827   2.997  10.368  0.3615 -0.0549 -0.1794
   69SLPC   O32 5865   5.817   3.116  10.401 -0.1444  0.1481 -0.2219
   69SLPC   C32 5866   5.759   2.927  10.252  0.0637  0.1960 -0.1831
   69SLPC   H2X 5867   5.652   2.949  10.232 -0.6342 -2.0309  0.9209
   69SLPC   H2Y 5868   5.765   2.816  10.256 -0.9244  0.1224 -0.7248
   69SLPC   C23 5869   5.566   2.575  10.659  0.1462  0.2747  0.4953
   69SLPC   H3R 5870   5.486   2.631  10.712  0.0238  1.1478 -0.5979
   69SLPC   H3S 5871   5.532   2.469  10.663 -1.7839  0.8245 -0.9490
   69SLPC   C24 5872   5.582   2.605  10.508  0.1152  0.1130  0.2032
   69SLPC   H4R 5873   5.644   2.695  10.488 -1.7573  1.0189 -1.7284
   69SLPC   H4S 5874   5.479   2.625  10.471  0.4262  0.4461 -0.4922
   69SLPC   C25 5875   5.634   2.485  10.427 -0.1065  0.3252 -0.2185
   69SLPC   H5R 5876   5.549   2.416  10.409 -0.9030  1.8628 -2.5693
   69SLPC   H5S 5877   5.713   2.426  10.477 -1.7391 -2.2030 -0.5303
   69SLPC   C26 5878   5.692   2.522  10.291 -0.1613 -0.4953 -0.3874
   69SLPC   H6R 5879   5.717   2.425  10.245  1.1959 -0.2516 -0.1679
   69SLPC   H6S 5880   5.778   2.592  10.302 -0.1772 -0.8478  2.3583
   69SLPC   C27 5881   5.592   2.594  10.199  0.1580 -0.1566 -0.4718
   69SLPC   H7R 5882   5.592   2.703  10.216  1.6256  0.1516 -2.2770
   69SLPC   H7S 5883   5.492   2.550  10.220 -0.4471  0.0059 -2.8713
   69SLPC   C28 5884   5.604   2.557  10.055 -0.8817  0.5870  0.6893
   69SLPC   H8R 5885   5.612   2.446  10.060 -0.3457  0.6842  2.4341
   69SLPC   H8S 5886   5.703   2.583  10.013 -0.9694  2.2398  1.4368
   69SLPC   C29 5887   5.490   2.607   9.979 -0.4827 -0.0375  0.6415
   69SLPC   H9R 5888   5.409   2.647  10.041  0.0389  1.0915  0.6180
   69SLPC  C210 5889   5.462   2.613   9.846 -0.2406 -0.0228  0.4179
   69SLPC  H10R 5890   5.361   2.649   9.819 -0.9551 -0.9120  1.8360
   69SLPC  C211 5891   5.547   2.569   9.729 -0.0659 -0.1566  0.6251
   69SLPC  H11R 5892   5.507   2.635   9.650 -0.8739 -2.0955 -0.6320
   69SLPC  H11S 5893   5.517   2.462   9.723 -0.2442 -0.1083  0.6543
   69SLPC  C212 5894   5.702   2.560   9.740 -0.0106  0.1957  0.0623
   69SLPC  H12R 5895   5.754   2.612   9.821  1.5266  0.1897 -0.8989
   69SLPC  C213 5896   5.779   2.498   9.643 -0.1453 -0.1273  0.5975
   69SLPC  H13R 5897   5.888   2.500   9.657  0.0245 -0.8148 -0.5917
   69SLPC  C214 5898   5.725   2.425   9.521  1.2865  0.0753  0.6320
   69SLPC  H14R 5899   5.615   2.412   9.522  1.2818  0.0961  0.3787
   69SLPC  H14S 5900   5.753   2.318   9.524  1.9593  0.2532  0.8745
   69SLPC  C215 5901   5.768   2.501   9.395  0.6507 -0.9497  0.4445
   69SLPC  H15R 5902   5.875   2.477   9.382  1.2504  1.5254  0.6139
   69SLPC  H15S 5903   5.747   2.610   9.398 -1.3104 -1.2481 -0.8884
   69SLPC  C216 5904   5.706   2.447   9.263  0.0634 -0.2611  0.8134
   69SLPC  H16R 5905   5.600   2.481   9.264 -0.4727 -1.8264 -0.8319
   69SLPC  H16S 5906   5.702   2.336   9.258 -3.5404 -0.2086  1.0065
   69SLPC  C217 5907   5.771   2.506   9.137 -0.1561 -0.3730  0.0852
   69SLPC  H17R 5908   5.882   2.501   9.137 -0.1409 -0.4671  2.4471
   69SLPC  H17S 5909   5.737   2.612   9.132 -0.6065 -0.5075  0.3396
   69SLPC  C218 5910   5.729   2.461   8.997  0.3911 -0.5154  0.4248
   69SLPC  H18R 5911   5.751   2.352   8.985 -1.3034 -0.9610  1.1653
   69SLPC  H18S 5912   5.773   2.521   8.915  0.1506  0.3782  0.9478
   69SLPC  H18T 5913   5.621   2.480   8.979  0.2575 -0.0304  1.6939
   69SLPC   C33 5914   5.830   2.977  10.124 -0.7000  0.1870  0.1494
   69SLPC   H3X 5915   5.928   2.925  10.120  0.2037  1.5917  3.1118
   69SLPC   H3Y 5916   5.845   3.087  10.124  3.8551 -0.3203  0.2035
   69SLPC   C34 5917   5.765   2.937   9.995  0.0371 -0.5461 -0.0646
   69SLPC   H4X 5918   5.664   2.983   9.984  0.4519 -0.0987 -2.2004
   69SLPC   H4Y 5919   5.745   2.828   9.996 -0.5003 -0.4453  1.4494
   69SLPC   C35 5920   5.845   2.967   9.864  0.1013  1.0956 -0.0767
   69SLPC   H5X 5921   5.859   3.075   9.842  0.1542  1.4038  1.4138
   69SLPC   H5Y 5922   5.777   2.931   9.784 -1.2289  1.0210  1.0716
   69SLPC   C36 5923   5.969   2.892   9.839  0.3626 -0.2317  0.5009
   69SLPC   H6X 5924   5.938   2.785   9.830  1.8864 -0.8419  2.3146
   69SLPC   H6Y 5925   6.028   2.900   9.932 -0.8491 -1.0493  1.3650
   69SLPC   C37 5926   6.039   2.920   9.705 -0.3470 -0.4376  0.2347
   69SLPC   H7X 5927   6.115   2.841   9.686  0.7392  0.9991 -1.5201
   69SLPC   H7Y 5928   6.093   3.016   9.707 -0.4437 -0.4010  1.3492
   69SLPC   C38 5929   5.935   2.915   9.588  0.3296  0.6309 -0.2551
   69SLPC   H8X 5930   5.863   3.000   9.595 -1.3028 -0.7494 -0.0025
   69SLPC   H8Y 5931   5.876   2.822   9.592  0.9939  0.2032 -0.3721
   69SLPC   C39 5932   5.997   2.916   9.444 -0.0014  0.8495 -0.3515
   69SLPC   H9X 5933   6.054   3.011   9.444  1.8733 -0.2565  0.2041
   69SLPC   H9Y 5934   5.910   2.932   9.377 -0.2052  3.0305  0.3732
   69SLPC  C310 5935   6.088   2.795   9.405  0.4525 -0.0830 -0.0363
   69SLPC  H10X 5936   6.020   2.706   9.404  0.1278  0.1073  2.4006
   69SLPC  H10Y 5937   6.157   2.776   9.490 -1.1384 -2.6791  0.7332
   69SLPC  C311 5938   6.166   2.810   9.279 -0.1776  0.2502 -0.5449
   69SLPC  H11X 5939   6.245   2.733   9.272  0.0512  0.2710  1.3609
   69SLPC  H11Y 5940   6.221   2.906   9.270  0.1684  0.0475 -0.5619
   69SLPC  C312 5941   6.076   2.790   9.161  0.1361 -0.6635  0.4226
   69SLPC  H12X 5942   5.994   2.865   9.164  0.3109 -0.3665 -1.4608
   69SLPC  H12Y 5943   6.035   2.689   9.181 -1.0710 -0.3199 -0.2625
   69SLPC  C313 5944   6.162   2.804   9.034  0.0968  0.8309  0.1274
   69SLPC  H13X 5945   6.234   2.720   9.046 -0.2271  0.5480  0.0945
   69SLPC  H13Y 5946   6.224   2.895   9.046  1.3126  0.3134 -1.9731
   69SLPC  C314 5947   6.077   2.805   8.905  0.3988 -0.1556 -0.0263
   69SLPC  H14X 5948   6.002   2.886   8.904 -0.0054 -0.5202 -3.5383
   69SLPC  H14Y 5949   6.024   2.708   8.891  0.9695 -0.3834 -0.6544
   69SLPC  C315 5950   6.165   2.810   8.783  0.1979 -1.0728  0.3071
   69SLPC  H15X 5951   6.229   2.900   8.777  0.9690 -1.7017 -1.2536
   69SLPC  H15Y 5952   6.097   2.825   8.696 -0.2183  0.7254  0.9297
   69SLPC  C316 5953   6.268   2.689   8.757  0.8413  0.1921  0.3259
   69SLPC  H16X 5954   6.220   2.590   8.767 -0.2498  0.6684 -0.1324
   69SLPC  H16Y 5955   6.347   2.708   8.833 -0.3888  0.6895  1.4862
   69SLPC  C317 5956   6.329   2.692   8.616 -0.3087  0.6516 -0.7369
   69SLPC  H17X 5957   6.400   2.776   8.623 -0.4656  0.6929  0.5749
   69SLPC  H17Y 5958   6.244   2.709   8.547 -1.3191 -0.4791  0.2001
   69SLPC  C318 5959   6.394   2.555   8.589 -0.4440  0.3966  0.4233
   69SLPC  H18X 5960   6.457   2.529   8.677  0.6790  0.8606 -0.2359
   69SLPC  H18Y 5961   6.466   2.566   8.505 -1.0181 -1.2949 -0.3076
   69SLPC  H18Z 5962   6.311   2.482   8.579 -0.3064  0.6732 -3.6019
   70SLPC     N 5963   0.354   6.438  10.883  0.4304  0.0460  0.0632
   70SLPC   C13 5964   0.223   6.424  10.952  0.6712  0.7523 -0.1210
   70SLPC  H13A 5965   0.224   6.328  11.000 -2.6469  0.3417 -0.8020
   70SLPC  H13B 5966   0.202   6.499  11.026  0.9674  0.1601  0.5678
   70SLPC  H13C 5967   0.136   6.424  10.889  1.0037  2.8995 -0.6512
   70SLPC   C14 5968   0.376   6.321  10.799  0.7256 -0.5258 -0.7146
   70SLPC  H14A 5969   0.295   6.321  10.728  1.4819 -0.4537 -1.5793
   70SLPC  H14B 5970   0.466   6.322  10.739  1.4260 -1.0713  0.2931
   70SLPC  H14C 5971   0.388   6.239  10.868  2.0274 -1.1548 -1.6709
   70SLPC   C15 5972   0.469   6.454  10.975  0.5621 -0.7836 -0.5960
   70SLPC  H15A 5973   0.559   6.466  10.917  0.3097  0.6407 -0.7094
   70SLPC  H15B 5974   0.456   6.541  11.037  0.5047 -0.3781 -1.1709
   70SLPC  H15C 5975   0.477   6.361  11.029 -2.4144 -1.5716 -1.4391
   70SLPC   C12 5976   0.348   6.562  10.792 -0.0023  0.1120 -0.4795
   70SLPC  H12A 5977   0.263   6.562  10.726 -0.3580  0.2721 -0.0184
   70SLPC  H12B 5978   0.437   6.562  10.731 -2.1506  2.2557 -3.7489
   70SLPC   C11 5979   0.341   6.691  10.864  0.4010  0.3472  0.6934
   70SLPC  H11A 5980   0.273   6.689  10.952 -2.4490  0.1297 -1.4118
   70SLPC  H11B 5981   0.288   6.759  10.794 -1.1606 -1.9505 -0.4109
   70SLPC     P 5982   0.558   6.806  10.796 -0.2094  0.1305  0.0680
   70SLPC   O13 5983   0.603   6.935  10.850  0.6558  0.6160 -0.4069
   70SLPC   O14 5984   0.661   6.706  10.756  0.1872 -0.1862 -0.3227
   70SLPC   O12 5985   0.468   6.735  10.897  0.1237 -0.0405 -0.0828
   70SLPC   O11 5986   0.462   6.825  10.666 -0.1614 -0.1870  0.2132
   70SLPC    C1 5987   0.537   6.832  10.544  0.1221 -0.0940  0.5478
   70SLPC    HA 5988   0.613   6.913  10.541 -0.2506  0.3167  2.0651
   70SLPC    HB 5989   0.575   6.736  10.502  2.3282  0.9261  0.1374
   70SLPC    C2 5990   0.434   6.870  10.435 -0.6741  0.9752  0.2317
   70SLPC    HS 5991   0.359   6.789  10.429 -0.7601  1.0941 -0.2676
   70SLPC   O21 5992   0.509   6.892  10.312 -0.2419  0.0868  0.0965
   70SLPC   C21 5993   0.532   6.775  10.247  0.2853  0.2892 -0.3724
   70SLPC   O22 5994   0.491   6.666  10.282 -0.0278  0.3292  0.3115
   70SLPC   C22 5995   0.601   6.799  10.115 -0.2421 -0.1494  0.4637
   70SLPC   H2R 5996   0.709   6.784  10.135 -0.1538 -2.0409 -1.3172
   70SLPC   H2S 5997   0.569   6.731  10.034  2.2427 -0.5305 -0.2404
   70SLPC    C3 5998   0.357   7.001  10.470  0.3212  0.1044  0.0603
   70SLPC    HX 5999   0.429   7.085  10.484 -1.2471  1.5344 -0.1518
   70SLPC    HY 6000   0.297   6.992  10.563 -0.8915 -1.2502 -0.8377
   70SLPC   O31 6001   0.270   7.042  10.364  0.4452 -0.1775  0.8567
   70SLPC   C31 6002   0.158   6.969  10.345 -0.6169  0.5618  0.1799
   70SLPC   O32 6003   0.130   6.864  10.408  0.2648 -0.6257 -0.3167
   70SLPC   C32 6004   0.075   7.026  10.232  0.1942  0.0213  0.5961
   70SLPC   H2X 6005   0.111   6.981  10.137 -1.2240 -1.0059  0.5220
   70SLPC   H2Y 6006   0.092   7.136  10.232  2.0105 -0.2390  1.7569
   70SLPC   C23 6007   0.577   6.945  10.050 -0.3205  0.6448 -0.1939
   70SLPC   H3R 6008   0.640   6.960   9.960 -1.1471 -0.4914 -0.9854
   70SLPC   H3S 6009   0.606   7.023  10.124  2.2888  0.0315 -0.5311
   70SLPC   C24 6010   0.441   6.960   9.990 -0.0126  0.2766  0.0380
   70SLPC   H4R 6011   0.375   6.967  10.079  0.8978  1.1514  0.6582
   70SLPC   H4S 6012   0.418   6.869   9.931 -2.4434  1.5289 -0.9775
   70SLPC   C25 6013   0.417   7.085   9.914 -0.0228 -0.6019  0.4141
   70SLPC   H5R 6014   0.428   7.173   9.980  0.6325  0.3373 -0.9134
   70SLPC   H5S 6015   0.311   7.076   9.880 -1.0562  2.0760  2.7865
   70SLPC   C26 6016   0.506   7.109   9.787  0.7124 -0.6346 -0.1505
   70SLPC   H6R 6017   0.613   7.095   9.814 -0.0750 -2.6910  2.0596
   70SLPC   H6S 6018   0.494   7.218   9.767 -1.3355 -1.0463 -1.3003
   70SLPC   C27 6019   0.453   7.022   9.667 -0.5989  0.6997  0.1383
   70SLPC   H7R 6020   0.342   7.032   9.661 -0.6922  0.0019  0.6258
   70SLPC   H7S 6021   0.471   6.916   9.695  3.7988  1.7285  1.6346
   70SLPC   C28 6022   0.519   7.044   9.533  0.5058  0.1521  0.2851
   70SLPC   H8R 6023   0.493   6.951   9.477  0.1526  0.6731 -0.4156
   70SLPC   H8S 6024   0.628   7.041   9.553  0.6354 -0.1376 -0.4362
   70SLPC   C29 6025   0.483   7.176   9.468  0.2029  0.0950 -0.1746
   70SLPC   H9R 6026   0.506   7.262   9.532  0.4709  0.9970 -1.4487
   70SLPC  C210 6027   0.414   7.193   9.354  0.0444 -0.5543  0.6863
   70SLPC  H10R 6028   0.416   7.290   9.303 -0.0098 -1.7138 -1.5866
   70SLPC  C211 6029   0.353   7.092   9.259  0.4323 -0.1220  0.1178
   70SLPC  H11R 6030   0.244   7.109   9.269  0.7840  1.9194  0.7428
   70SLPC  H11S 6031   0.371   6.984   9.278 -0.1611 -0.4301 -1.0071
   70SLPC  C212 6032   0.382   7.113   9.113  0.8933 -0.3422 -0.9377
   70SLPC  H12R 6033   0.293   7.140   9.053  0.4690  1.8278  0.6065
   70SLPC  C213 6034   0.495   7.094   9.049 -0.6815  1.0673 -0.0801
   70SLPC  H13R 6035   0.503   7.120   8.942  2.6860  0.9240  0.0670
   70SLPC  C214 6036   0.625   7.054   9.105  0.6108 -0.0987 -0.0032
   70SLPC  H14R 6037   0.603   7.012   9.205 -2.9359  0.7584 -0.3663
   70SLPC  H14S 6038   0.672   7.152   9.128 -1.9533  1.1849 -0.0558
   70SLPC  C215 6039   0.724   6.957   9.044 -0.8139 -0.0016 -0.2399
   70SLPC  H15R 6040   0.679   6.858   9.024 -0.1374 -0.2923 -0.3008
   70SLPC  H15S 6041   0.804   6.926   9.115 -1.4621 -1.7137 -0.2323
   70SLPC  C216 6042   0.806   7.013   8.926 -0.1995  0.2843  0.0365
   70SLPC  H16R 6043   0.876   7.085   8.973  0.6601 -0.0726 -0.6681
   70SLPC  H16S 6044   0.732   7.069   8.865 -0.2095  0.5590  0.2991
   70SLPC  C217 6045   0.882   6.904   8.840 -0.6178  0.1196  0.3851
   70SLPC  H17R 6046   0.955   6.964   8.781 -0.8437 -1.2706 -1.3690
   70SLPC  H17S 6047   0.813   6.855   8.768 -0.4768  0.9122 -0.2900
   70SLPC  C218 6048   0.956   6.794   8.915  0.2901 -0.5089  0.3625
   70SLPC  H18R 6049   1.034   6.847   8.974 -1.1689  1.4334  0.5754
   70SLPC  H18S 6050   1.001   6.714   8.851  0.2481 -2.1040  2.2718
   70SLPC  H18T 6051   0.883   6.745   8.983  0.1493  0.9706  1.2993
   70SLPC   C33 6052  -0.077   7.016  10.238 -0.2103 -0.5659 -0.2189
   70SLPC   H3X 6053  -0.109   7.092  10.313  1.7502 -0.3955  0.4926
   70SLPC   H3Y 6054  -0.113   6.918  10.276 -0.9109  0.9469  3.2166
   70SLPC   C34 6055  -0.146   7.050  10.115  0.7124 -0.2348  0.3111
   70SLPC   H4X 6056  -0.144   7.159  10.093 -2.3148 -0.4404 -1.2412
   70SLPC   H4Y 6057  -0.253   7.031  10.138  0.1599  1.7261 -0.5291
   70SLPC   C35 6058  -0.118   6.948  10.002 -0.0567  0.0978  0.3296
   70SLPC   H5X 6059  -0.131   6.842  10.032  3.7136 -0.5090  0.1552
   70SLPC   H5Y 6060  -0.009   6.959   9.979 -0.6249  2.0620 -1.6809
   70SLPC   C36 6061  -0.186   6.971   9.868 -0.3153 -0.0155  0.4302
   70SLPC   H6X 6062  -0.178   7.080   9.845  1.6698 -0.2589 -0.1069
   70SLPC   H6Y 6063  -0.295   6.955   9.851 -0.2231 -1.4696  1.1477
   70SLPC   C37 6064  -0.117   6.877   9.763 -0.6096  0.7908 -0.0477
   70SLPC   H7X 6065  -0.153   6.774   9.781  0.6537 -0.1625 -2.6328
   70SLPC   H7Y 6066  -0.007   6.877   9.780 -0.4586 -1.0853 -0.8851
   70SLPC   C38 6067  -0.154   6.909   9.619 -0.0220  0.1494 -0.1006
   70SLPC   H8X 6068  -0.259   6.913   9.584 -0.3989  0.5913  1.0799
   70SLPC   H8Y 6069  -0.102   6.829   9.561  1.1832 -0.8752  2.3325
   70SLPC   C39 6070  -0.099   7.045   9.578 -0.1725 -0.9450 -0.0388
   70SLPC   H9X 6071   0.008   7.048   9.608 -0.2783 -0.8121  0.3224
   70SLPC   H9Y 6072  -0.151   7.133   9.622 -0.2291 -0.1269 -1.6940
   70SLPC  C310 6073  -0.125   7.069   9.423  0.3935  0.2827  0.3487
   70SLPC  H10X 6074  -0.121   7.178   9.403  3.7948  0.0995 -0.1552
   70SLPC  H10Y 6075  -0.233   7.044   9.414  0.3831  0.7787 -0.9359
   70SLPC  C311 6076  -0.035   6.985   9.329 -0.3411 -0.5124 -0.5376
   70SLPC  H11X 6077  -0.063   6.878   9.329  0.6061 -0.8160  2.6743
   70SLPC  H11Y 6078   0.067   6.987   9.373 -1.0557 -0.4746  1.1614
   70SLPC  C312 6079  -0.045   7.027   9.182 -0.7441  0.4994 -0.6345
   70SLPC  H12X 6080   0.030   6.969   9.123  2.3101  1.0737  2.5529
   70SLPC  H12Y 6081  -0.018   7.135   9.185  0.2030  0.3732 -3.1934
   70SLPC  C313 6082  -0.181   7.000   9.120  0.0329  0.1878 -0.1614
   70SLPC  H13X 6083  -0.236   6.937   9.193 -1.2210  1.3897 -0.0688
   70SLPC  H13Y 6084  -0.173   6.940   9.026  2.2034 -3.0683  1.9794
   70SLPC  C314 6085  -0.262   7.120   9.090  0.0513 -0.2192 -0.0706
   70SLPC  H14X 6086  -0.194   7.180   9.026 -0.6211 -0.2233 -0.7976
   70SLPC  H14Y 6087  -0.274   7.178   9.184  2.8843  0.6805 -0.1960
   70SLPC  C315 6088  -0.393   7.101   9.016 -0.4381  0.4070  0.7271
   70SLPC  H15X 6089  -0.482   7.142   9.069  1.1355  3.9562  0.7818
   70SLPC  H15Y 6090  -0.408   6.992   9.003  0.0194  0.6056 -1.6505
   70SLPC  C316 6091  -0.376   7.162   8.871  0.4070 -0.0431  0.0389
   70SLPC  H16X 6092  -0.273   7.150   8.831  0.2944  1.0046 -0.5940
   70SLPC  H16Y 6093  -0.395   7.271   8.886  1.5631  0.3835 -1.4021
   70SLPC  C317 6094  -0.495   7.109   8.783 -0.3758  0.1767 -0.1697
   70SLPC  H17X 6095  -0.586   7.141   8.837 -0.2306  0.7496 -0.2623
   70SLPC  H17Y 6096  -0.489   6.998   8.776  1.3572  0.0786  2.0532
   70SLPC  C318 6097  -0.496   7.164   8.643  0.1310  0.2017  0.9110
   70SLPC  H18X 6098  -0.572   7.121   8.575  1.2832 -0.0207 -0.2668
   70SLPC  H18Y 6099  -0.394   7.161   8.597  1.1262  1.3067  2.9734
   70SLPC  H18Z 6100  -0.526   7.271   8.640 -2.0526 -0.3747  1.5074
   71SLPC     N 6101   5.890   5.156  11.097 -0.5811  0.0159 -0.7561
   71SLPC   C13 6102   5.791   5.094  11.193  0.0673 -0.4213  0.3036
   71SLPC  H13A 6103   5.711   5.165  11.206 -0.5144 -0.7541 -1.2701
   71SLPC  H13B 6104   5.753   5.000  11.155 -1.2764  0.3713 -0.3453
   71SLPC  H13C 6105   5.844   5.081  11.286 -0.9087  1.3380  1.1273
   71SLPC   C14 6106   5.998   5.055  11.071 -0.2585  0.2001 -0.3145
   71SLPC  H14A 6107   6.041   5.019  11.163  1.8321 -0.7139 -1.6142
   71SLPC  H14B 6108   5.948   4.973  11.020  1.8212 -0.0468 -2.0259
   71SLPC  H14C 6109   6.078   5.084  11.005 -0.9499  0.9357 -0.8404
   71SLPC   C15 6110   5.949   5.276  11.159  0.1801  0.3301  1.1368
   71SLPC  H15A 6111   5.985   5.242  11.255 -0.1386 -0.8446  0.8427
   71SLPC  H15B 6112   6.023   5.328  11.101 -1.4196  0.3917 -0.8756
   71SLPC  H15C 6113   5.873   5.349  11.185 -0.0081  0.5248  0.0275
   71SLPC   C12 6114   5.825   5.195  10.964  0.5267 -0.1280 -0.6525
   71SLPC  H12A 6115   5.726   5.229  10.993 -0.1353 -1.5911 -1.1472
   71SLPC  H12B 6116   5.812   5.107  10.903 -0.3156 -1.4391  1.3385
   71SLPC   C11 6117   5.892   5.306  10.872  0.1405  0.4719 -0.2501
   71SLPC  H11A 6118   5.872   5.406  10.917 -0.7457 -0.3161  1.1355
   71SLPC  H11B 6119   5.829   5.308  10.780  2.0314 -0.3385 -1.5859
   71SLPC     P 6120   6.052   5.185  10.718  0.2288 -0.0109  0.0597
   71SLPC   O13 6121   6.193   5.166  10.696 -0.5071 -0.3616  0.1403
   71SLPC   O14 6122   5.967   5.071  10.718  0.1175  0.1394  0.2198
   71SLPC   O12 6123   6.028   5.273  10.843 -0.3129  0.0158 -0.6277
   71SLPC   O11 6124   5.986   5.270  10.602  0.4506 -0.3601  0.2235
   71SLPC    C1 6125   6.013   5.406  10.579  0.2150 -0.3023  0.1276
   71SLPC    HA 6126   5.949   5.470  10.644 -1.2426 -0.7940 -0.7873
   71SLPC    HB 6127   6.122   5.422  10.586  0.2362 -0.2582 -0.2870
   71SLPC    C2 6128   5.962   5.447  10.434 -0.3925 -0.3468 -0.7698
   71SLPC    HS 6129   5.858   5.410  10.426 -1.4871  2.1051  1.4696
   71SLPC   O21 6130   6.044   5.376  10.341  0.2533  0.2036 -0.1253
   71SLPC   C21 6131   6.021   5.252  10.315  0.0229 -0.2753 -0.6667
   71SLPC   O22 6132   5.926   5.189  10.364 -0.5614 -0.5909 -0.6471
   71SLPC   C22 6133   6.123   5.197  10.206  0.2917 -0.2163  0.0278
   71SLPC   H2R 6134   6.202   5.275  10.204 -1.7972  2.0208  1.0337
   71SLPC   H2S 6135   6.165   5.099  10.236 -1.9976 -1.7966 -1.7679
   71SLPC    C3 6136   5.969   5.598  10.414  0.3290 -0.1278  0.1799
   71SLPC    HX 6137   6.067   5.640  10.444 -0.4007  0.8934  1.2310
   71SLPC    HY 6138   5.903   5.655  10.483 -0.0129 -1.0039  0.5859
   71SLPC   O31 6139   5.922   5.631  10.283 -0.4880 -0.2202 -0.2561
   71SLPC   C31 6140   6.011   5.659  10.190  0.1233 -0.1953  0.2809
   71SLPC   O32 6141   6.131   5.660  10.210 -0.0176 -0.0318 -0.0532
   71SLPC   C32 6142   5.943   5.702  10.064 -0.2459  0.2431  0.6196
   71SLPC   H2X 6143   5.914   5.809  10.062  0.2146  0.3429 -1.7299
   71SLPC   H2Y 6144   5.856   5.634  10.052  0.1974 -0.1950 -0.1285
   71SLPC   C23 6145   6.054   5.181  10.063  0.1434 -0.3417  0.2012
   71SLPC   H3R 6146   5.958   5.125  10.064 -1.4913  2.3599 -0.5937
   71SLPC   H3S 6147   6.124   5.124   9.998 -0.3708  1.2223 -1.7436
   71SLPC   C24 6148   6.031   5.323  10.004  0.6255 -0.2898 -0.1369
   71SLPC   H4R 6149   6.130   5.361   9.972  0.8609 -1.5657 -0.9549
   71SLPC   H4S 6150   5.993   5.391  10.084 -1.2638 -0.1515 -1.1351
   71SLPC   C25 6151   5.955   5.326   9.865  0.3265  0.3720 -0.6642
   71SLPC   H5R 6152   5.902   5.422   9.855 -2.2004 -0.7807  1.1097
   71SLPC   H5S 6153   5.875   5.248   9.863 -0.1616  0.8402  0.3388
   71SLPC   C26 6154   6.041   5.303   9.738 -0.5405  0.3897  0.3186
   71SLPC   H6R 6155   6.107   5.214   9.738 -0.1781  0.6473 -1.0710
   71SLPC   H6S 6156   6.118   5.382   9.723 -0.3213 -0.4408 -3.4033
   71SLPC   C27 6157   5.958   5.294   9.607 -0.8938  0.3984 -0.2202
   71SLPC   H7R 6158   5.905   5.392   9.612 -1.2899  0.0865  2.3699
   71SLPC   H7S 6159   5.891   5.206   9.619 -0.4498  0.0676 -0.1656
   71SLPC   C28 6160   6.028   5.278   9.472  0.0803  0.0709 -0.7341
   71SLPC   H8R 6161   6.075   5.178   9.463  0.6089  0.4823 -2.9455
   71SLPC   H8S 6162   6.107   5.356   9.471  0.6177 -0.4501 -2.9823
   71SLPC   C29 6163   5.920   5.308   9.370  0.4399 -0.0892 -0.2765
   71SLPC   H9R 6164   5.826   5.340   9.417 -0.2495 -0.9089 -1.0988
   71SLPC  C210 6165   5.935   5.309   9.237 -0.0715 -0.6922 -0.2677
   71SLPC  H10R 6166   5.848   5.332   9.174 -0.1626  0.4715  0.2646
   71SLPC  C211 6167   6.058   5.278   9.157  0.3603 -0.3337 -0.3051
   71SLPC  H11R 6168   6.122   5.205   9.210  0.4097  0.3913  0.6459
   71SLPC  H11S 6169   6.114   5.373   9.167 -0.0453 -0.1346  0.1157
   71SLPC  C212 6170   6.036   5.234   9.016 -0.0329 -0.3504 -1.2284
   71SLPC  H12R 6171   5.979   5.142   9.002  0.1491 -0.6149 -0.2745
   71SLPC  C213 6172   6.062   5.295   8.904  0.5371 -0.5443  0.0202
   71SLPC  H13R 6173   6.052   5.237   8.811  3.2241 -0.1338 -0.5825
   71SLPC  C214 6174   6.133   5.425   8.899 -0.2084  0.0374  0.2881
   71SLPC  H14R 6175   6.239   5.401   8.875  0.0790  1.1257  0.4334
   71SLPC  H14S 6176   6.124   5.484   8.993  0.8884  1.0359 -0.2195
   71SLPC  C215 6177   6.077   5.520   8.785  0.5880  0.0712 -0.1086
   71SLPC  H15R 6178   6.119   5.622   8.794 -0.9329  0.6795  0.1928
   71SLPC  H15S 6179   5.968   5.529   8.800  0.7965  2.5751  0.1925
   71SLPC  C216 6180   6.111   5.473   8.648 -0.5318 -0.2278 -0.8630
   71SLPC  H16R 6181   6.094   5.366   8.622 -2.3904  0.5324 -2.9158
   71SLPC  H16S 6182   6.222   5.478   8.660 -0.9152  1.6695  2.4124
   71SLPC  C217 6183   6.074   5.562   8.528 -0.3693  0.5626  0.2303
   71SLPC  H17R 6184   5.967   5.547   8.503 -0.3327  0.4659  0.1281
   71SLPC  H17S 6185   6.134   5.532   8.439 -0.7293  1.2902 -0.2634
   71SLPC  C218 6186   6.105   5.712   8.553  0.2172 -0.6742 -0.7271
   71SLPC  H18R 6187   6.061   5.749   8.648  0.2408 -0.4563 -0.8024
   71SLPC  H18S 6188   6.071   5.771   8.465  0.9361  1.7081  0.5492
   71SLPC  H18T 6189   6.214   5.731   8.562 -0.1058  1.7228 -1.4325
   71SLPC   C33 6190   6.045   5.683   9.951  0.1192  0.4729  0.0876
   71SLPC   H3X 6191   6.099   5.587   9.953 -2.9846 -1.3202  1.7360
   71SLPC   H3Y 6192   6.131   5.751   9.970 -1.4413  2.9391 -1.2943
   71SLPC   C34 6193   5.998   5.714   9.807  0.0195 -0.5555 -0.5858
   71SLPC   H4X 6194   5.958   5.817   9.798  1.3102 -0.0885 -1.1001
   71SLPC   H4Y 6195   5.928   5.630   9.787 -0.3950 -0.5237  0.6769
   71SLPC   C35 6196   6.117   5.708   9.714  0.1970  1.0074  0.2949
   71SLPC   H5X 6197   6.183   5.619   9.719 -0.4492  0.5942  1.8233
   71SLPC   H5Y 6198   6.186   5.776   9.768  0.8790  0.2194  0.4342
   71SLPC   C36 6199   6.108   5.758   9.567  0.7057  0.1142 -0.4177
   71SLPC   H6X 6200   6.206   5.781   9.520  1.3289 -2.9569 -0.7094
   71SLPC   H6Y 6201   6.052   5.853   9.576 -0.0776 -0.3337 -0.4974
   71SLPC   C37 6202   6.016   5.665   9.481  0.3475  0.1863 -0.4419
   71SLPC   H7X 6203   5.916   5.655   9.529  0.5681  1.4162  0.2797
   71SLPC   H7Y 6204   6.069   5.567   9.486 -1.1276 -0.5725  0.4791
   71SLPC   C38 6205   6.005   5.693   9.328  0.4459 -0.6121 -0.0259
   71SLPC   H8X 6206   5.973   5.595   9.285  1.9752 -0.7349 -0.9187
   71SLPC   H8Y 6207   6.107   5.715   9.291  0.1183 -2.1424 -1.9664
   71SLPC   C39 6208   5.904   5.799   9.275 -0.4713  0.6397 -0.0942
   71SLPC   H9X 6209   5.898   5.885   9.346  0.6099  1.0548 -0.4981
   71SLPC   H9Y 6210   5.805   5.750   9.279 -0.5063  0.4848 -2.2497
   71SLPC  C310 6211   5.945   5.847   9.136 -0.0468  0.1142 -0.8736
   71SLPC  H10X 6212   6.055   5.842   9.142 -0.0297  0.7128 -0.6412
   71SLPC  H10Y 6213   5.899   5.946   9.114  0.2383  0.9003  1.8342
   71SLPC  C311 6214   5.900   5.760   9.020 -0.0816  0.4405 -0.0115
   71SLPC  H11X 6215   5.800   5.720   9.049 -0.2813  1.1237  0.2354
   71SLPC  H11Y 6216   5.975   5.682   8.994  0.0517  1.1729 -1.9173
   71SLPC  C312 6217   5.883   5.836   8.885  1.1222 -1.2847 -0.5410
   71SLPC  H12X 6218   5.877   5.754   8.809 -0.9855 -0.9682 -0.7456
   71SLPC  H12Y 6219   5.961   5.914   8.873 -1.0688  1.3365  1.7474
   71SLPC  C313 6220   5.756   5.924   8.876  0.1612  0.1220  0.0834
   71SLPC  H13X 6221   5.755   6.007   8.951  0.2131 -0.7815  1.0940
   71SLPC  H13Y 6222   5.675   5.852   8.900  1.2311 -1.5372 -1.2140
   71SLPC  C314 6223   5.729   5.997   8.743 -0.0753 -0.6291  0.3236
   71SLPC  H14X 6224   5.622   6.025   8.753  0.4024  0.6054  2.4914
   71SLPC  H14Y 6225   5.726   5.916   8.667  0.7213  1.6862 -2.2367
   71SLPC  C315 6226   5.825   6.114   8.704 -0.5288 -0.5418 -0.1720
   71SLPC  H15X 6227   5.933   6.087   8.708  0.0351  1.5209 -0.9384
   71SLPC  H15Y 6228   5.799   6.195   8.776 -1.8459 -1.4874  0.4335
   71SLPC  C316 6229   5.814   6.154   8.558 -0.1942 -0.2343  0.4297
   71SLPC  H16X 6230   5.705   6.154   8.535 -0.2558 -0.3304  0.7247
   71SLPC  H16Y 6231   5.854   6.072   8.495  0.5498 -0.0716  0.6873
   71SLPC  C317 6232   5.867   6.284   8.518 -0.1332 -0.7026  0.0057
   71SLPC  H17X 6233   5.819   6.369   8.570  0.8677 -1.1355  1.6784
   71SLPC  H17Y 6234   5.852   6.304   8.410  0.6817  0.9928  0.1922
   71SLPC  C318 6235   6.014   6.297   8.553 -0.0101  0.3094  0.3874
   71SLPC  H18X 6236   6.054   6.397   8.527  1.0484 -0.3564 -0.5728
   71SLPC  H18Y 6237   6.078   6.230   8.491 -0.3579  1.9164 -1.7630
   71SLPC  H18Z 6238   6.036   6.282   8.661 -0.1078 -0.9496  0.2473
   72SLPC     N 6239   1.170   3.874  10.585  0.3573  0.7494 -0.1148
   72SLPC   C13 6240   1.122   3.808  10.463 -0.2950  0.6755  0.5362
   72SLPC  H13A 6241   1.136   3.702  10.451 -2.4055  0.4546 -0.1215
   72SLPC  H13B 6242   1.022   3.844  10.442 -0.3150  0.4152  0.1990
   72SLPC  H13C 6243   1.191   3.845  10.389  0.1686  0.7160  0.9864
   72SLPC   C14 6244   1.318   3.857  10.606  0.1941  0.2850 -0.2209
   72SLPC  H14A 6245   1.343   3.762  10.653 -0.8702 -0.3684 -0.9439
   72SLPC  H14B 6246   1.381   3.865  10.519  0.5991 -1.1759 -0.0763
   72SLPC  H14C 6247   1.353   3.928  10.678  2.3471 -1.6442  0.7063
   72SLPC   C15 6248   1.100   3.817  10.704 -0.5772 -0.5979 -0.0716
   72SLPC  H15A 6249   0.998   3.854  10.707 -0.5797 -0.5925 -0.2222
   72SLPC  H15B 6250   1.092   3.710  10.693 -1.3934 -0.6424  0.8500
   72SLPC  H15C 6251   1.155   3.840  10.794 -0.8110  0.9904 -0.3080
   72SLPC   C12 6252   1.126   4.020  10.569 -0.2230 -0.3472  0.6920
   72SLPC  H12A 6253   1.174   4.073  10.488 -1.8491  1.9279  1.1625
   72SLPC  H12B 6254   1.133   4.074  10.662 -1.4515  0.3212  0.4192
   72SLPC   C11 6255   0.972   4.040  10.537 -0.2061  0.2543 -0.2928
   72SLPC  H11A 6256   0.967   4.003  10.432  3.3495  0.0746 -0.4630
   72SLPC  H11B 6257   0.957   4.150  10.543  0.5819  0.4239 -1.2845
   72SLPC     P 6258   0.749   3.901  10.573 -0.1559  0.1550  0.2004
   72SLPC   O13 6259   0.689   3.832  10.686 -0.5792  0.2130  0.7102
   72SLPC   O14 6260   0.678   4.005  10.497  0.5549 -0.4315  0.2299
   72SLPC   O12 6261   0.877   3.976  10.625 -0.7290 -0.0390  0.2584
   72SLPC   O11 6262   0.808   3.791  10.476  0.5418  0.3864  0.5050
   72SLPC    C1 6263   0.733   3.669  10.448  0.3474  0.4145 -0.3631
   72SLPC    HA 6264   0.786   3.586  10.499  0.1302 -0.1093 -0.9958
   72SLPC    HB 6265   0.627   3.663  10.481 -0.0936 -0.2792 -1.8729
   72SLPC    C2 6266   0.738   3.634  10.296  0.3839  0.8637  0.6711
   72SLPC    HS 6267   0.840   3.637  10.250 -0.5691 -0.1194 -1.6145
   72SLPC   O21 6268   0.636   3.712  10.236 -0.1787  0.4910  0.7488
   72SLPC   C21 6269   0.678   3.816  10.171  0.4255  0.3764 -0.5629
   72SLPC   O22 6270   0.796   3.855  10.164  0.1192  0.7429 -0.0351
   72SLPC   C22 6271   0.555   3.876  10.094  0.0015 -0.2718 -0.4092
   72SLPC   H2R 6272   0.468   3.839  10.153 -0.3744  0.3641 -0.5588
   72SLPC   H2S 6273   0.558   3.985  10.113  1.4374 -0.4570  0.4373
   72SLPC    C3 6274   0.711   3.486  10.273 -0.5276  0.0482  0.9492
   72SLPC    HX 6275   0.605   3.469  10.301 -0.9980 -0.1640 -0.8951
   72SLPC    HY 6276   0.766   3.424  10.347  2.0840 -0.1358 -1.0700
   72SLPC   O31 6277   0.740   3.446  10.133 -0.0672 -0.0548 -0.1555
   72SLPC   C31 6278   0.644   3.374  10.073 -0.3950 -0.9440  1.0163
   72SLPC   O32 6279   0.554   3.310  10.130  0.0760 -0.4398  0.0884
   72SLPC   C32 6280   0.671   3.363   9.924 -0.8944 -0.3705 -0.1681
   72SLPC   H2X 6281   0.766   3.309   9.907  0.3241  0.2610  4.0041
   72SLPC   H2Y 6282   0.677   3.467   9.886 -1.3310 -0.4462 -0.4456
   72SLPC   C23 6283   0.563   3.849   9.945 -0.3510 -0.1328 -0.2418
   72SLPC   H3R 6284   0.566   3.740   9.925 -1.2795 -0.1894 -0.1301
   72SLPC   H3S 6285   0.660   3.889   9.910  0.1007 -0.5817  0.4924
   72SLPC   C24 6286   0.449   3.902   9.854  0.1354 -0.3522 -0.1771
   72SLPC   H4R 6287   0.452   4.013   9.860 -3.0646  0.0234 -3.6136
   72SLPC   H4S 6288   0.349   3.869   9.890  1.1666 -2.7331  0.6162
   72SLPC   C25 6289   0.462   3.861   9.710  0.5886 -1.0257  0.4628
   72SLPC   H5R 6290   0.385   3.913   9.649  1.0012 -1.6940 -0.6425
   72SLPC   H5S 6291   0.430   3.755   9.702 -2.8857 -0.0047 -0.2866
   72SLPC   C26 6292   0.603   3.882   9.652 -0.1538 -0.4109  0.0734
   72SLPC   H6R 6293   0.678   3.821   9.706  1.2562  0.4836 -0.8630
   72SLPC   H6S 6294   0.627   3.990   9.661 -0.5594 -0.3753  0.7375
   72SLPC   C27 6295   0.623   3.830   9.508 -0.4296 -0.9056  0.1744
   72SLPC   H7R 6296   0.580   3.728   9.518 -0.1749 -0.8009  2.5447
   72SLPC   H7S 6297   0.730   3.806   9.495  0.4048  2.6424  0.0799
   72SLPC   C28 6298   0.556   3.903   9.394 -0.1293 -0.2870  0.4475
   72SLPC   H8R 6299   0.461   3.936   9.440 -1.1395 -1.5728 -0.6934
   72SLPC   H8S 6300   0.538   3.829   9.314  2.9221 -2.0281  1.2992
   72SLPC   C29 6301   0.644   4.017   9.342 -0.2897  0.1370 -0.9901
   72SLPC   H9R 6302   0.740   4.030   9.394 -0.8578  1.2511 -0.2168
   72SLPC  C210 6303   0.610   4.103   9.242  0.2195  0.0458  0.4011
   72SLPC  H10R 6304   0.677   4.177   9.196 -2.5361  1.1311 -1.9812
   72SLPC  C211 6305   0.482   4.105   9.161  0.2019 -0.6105 -0.3371
   72SLPC  H11R 6306   0.430   4.203   9.171  2.3885  0.7156 -1.5685
   72SLPC  H11S 6307   0.409   4.045   9.218  0.0157 -1.9789 -1.9787
   72SLPC  C212 6308   0.479   4.040   9.022 -0.2628 -0.5160  1.0136
   72SLPC  H12R 6309   0.481   3.931   9.033 -0.4798 -0.3644  2.6874
   72SLPC  C213 6310   0.442   4.101   8.906 -0.1184 -0.1717 -0.2077
   72SLPC  H13R 6311   0.447   4.044   8.812  0.9059  0.2843 -0.4361
   72SLPC  C214 6312   0.404   4.244   8.896  0.3100  0.2996  0.2526
   72SLPC  H14R 6313   0.450   4.300   8.980 -2.5598  1.6598  1.0032
   72SLPC  H14S 6314   0.295   4.265   8.901 -0.3397 -2.8490  0.0631
   72SLPC  C215 6315   0.464   4.319   8.776 -0.1891 -0.1747  1.1262
   72SLPC  H15R 6316   0.575   4.322   8.771 -0.2080  0.9640  1.0620
   72SLPC  H15S 6317   0.446   4.427   8.798  0.0533  0.0126  0.4183
   72SLPC  C216 6318   0.408   4.289   8.640 -0.8392  0.7762  0.1994
   72SLPC  H16R 6319   0.301   4.260   8.649 -0.9183  1.6099  2.2960
   72SLPC  H16S 6320   0.445   4.199   8.587 -0.4735  1.0848 -0.0681
   72SLPC  C217 6321   0.416   4.402   8.536  0.0010 -0.4757  0.3886
   72SLPC  H17R 6322   0.521   4.416   8.500 -0.0251 -1.3811 -0.0606
   72SLPC  H17S 6323   0.376   4.495   8.582 -1.5488 -1.2460  0.6128
   72SLPC  C218 6324   0.330   4.376   8.411 -0.0094 -0.1422 -0.0469
   72SLPC  H18R 6325   0.372   4.301   8.341  0.3074 -0.7917  0.8324
   72SLPC  H18S 6326   0.327   4.474   8.358  0.6204  0.0002  0.1828
   72SLPC  H18T 6327   0.223   4.354   8.433 -0.0435  0.4978  0.4398
   72SLPC   C33 6328   0.568   3.281   9.845 -0.4852  0.0491  0.2679
   72SLPC   H3X 6329   0.473   3.337   9.835 -0.5353  0.3555  2.1894
   72SLPC   H3Y 6330   0.557   3.184   9.899 -0.6609 -0.0027  0.1411
   72SLPC   C34 6331   0.630   3.261   9.704  0.0083  0.3265  0.1330
   72SLPC   H4X 6332   0.730   3.215   9.722  1.9354  3.3583 -2.1657
   72SLPC   H4Y 6333   0.642   3.358   9.652 -1.5909  0.6230  0.3035
   72SLPC   C35 6334   0.542   3.176   9.615  1.1524  0.7073 -0.0569
   72SLPC   H5X 6335   0.437   3.213   9.616  0.1147 -2.0876 -0.8874
   72SLPC   H5Y 6336   0.546   3.073   9.657  1.8972 -0.3926 -2.7175
   72SLPC   C36 6337   0.588   3.172   9.465 -0.5335 -0.1378 -0.3045
   72SLPC   H6X 6338   0.525   3.098   9.412  1.4267 -0.6260 -2.0424
   72SLPC   H6Y 6339   0.696   3.144   9.455  0.1058  2.1038 -0.0384
   72SLPC   C37 6340   0.566   3.302   9.383 -0.3950  0.2028  0.1728
   72SLPC   H7X 6341   0.632   3.383   9.421 -0.1374 -0.1830  0.5473
   72SLPC   H7Y 6342   0.462   3.343   9.376 -0.8723 -1.0024  0.1155
   72SLPC   C38 6343   0.626   3.271   9.246 -0.1294 -0.4371  0.2901
   72SLPC   H8X 6344   0.585   3.179   9.200  1.3300 -1.1225  0.3300
   72SLPC   H8Y 6345   0.731   3.260   9.279  0.0447 -0.9372 -0.4197
   72SLPC   C39 6346   0.612   3.389   9.151  0.3236 -0.0151  0.2699
   72SLPC   H9X 6347   0.649   3.480   9.205 -1.1971  1.2120 -0.7051
   72SLPC   H9Y 6348   0.511   3.391   9.104  1.1671 -3.0921 -1.8010
   72SLPC  C310 6349   0.711   3.379   9.031 -0.0195 -0.2229  0.0734
   72SLPC  H10X 6350   0.809   3.400   9.080 -1.2751  3.1595  1.2916
   72SLPC  H10Y 6351   0.685   3.463   8.963  0.7459 -1.0317 -1.2325
   72SLPC  C311 6352   0.707   3.254   8.943  0.0242 -0.4514  0.2857
   72SLPC  H11X 6353   0.700   3.167   9.011  2.8192 -1.4149 -0.5983
   72SLPC  H11Y 6354   0.802   3.246   8.887  1.2575  1.3532  2.0659
   72SLPC  C312 6355   0.597   3.255   8.841 -0.7320 -0.1913  0.3139
   72SLPC  H12X 6356   0.623   3.336   8.769 -1.4606  0.1357  0.4145
   72SLPC  H12Y 6357   0.499   3.271   8.892 -0.2735  1.2273  0.7916
   72SLPC  C313 6358   0.576   3.120   8.773  0.3993 -1.0923  1.5102
   72SLPC  H13X 6359   0.472   3.109   8.737  0.5949  0.7180  0.3095
   72SLPC  H13Y 6360   0.592   3.049   8.857  1.5601 -0.7932  1.5625
   72SLPC  C314 6361   0.676   3.091   8.658  0.1390 -0.3649  0.7072
   72SLPC  H14X 6362   0.670   2.982   8.641 -1.7118 -0.6090  2.6477
   72SLPC  H14Y 6363   0.781   3.119   8.680 -0.1591  1.7481 -0.3807
   72SLPC  C315 6364   0.647   3.171   8.532 -0.1090 -0.2015 -0.1901
   72SLPC  H15X 6365   0.747   3.183   8.484 -0.0708  1.6592  0.3210
   72SLPC  H15Y 6366   0.628   3.277   8.559 -0.3949 -0.7152  1.7077
   72SLPC  C316 6367   0.533   3.120   8.448 -0.2420 -0.3036  0.7445
   72SLPC  H16X 6368   0.438   3.152   8.495 -0.9087 -1.0995 -0.0658
   72SLPC  H16Y 6369   0.533   3.010   8.438 -0.8227 -0.5881  3.5760
   72SLPC  C317 6370   0.528   3.185   8.308 -0.3006 -0.2079  0.1604
   72SLPC  H17X 6371   0.624   3.180   8.253 -1.1863 -2.1946 -1.2728
   72SLPC  H17Y 6372   0.503   3.293   8.307  0.5682  0.0069  1.4092
   72SLPC  C318 6373   0.417   3.114   8.223 -0.4602 -0.6838 -0.4043
   72SLPC  H18X 6374   0.324   3.104   8.284  0.6098  2.1759  1.8358
   72SLPC  H18Y 6375   0.456   3.019   8.182  1.0215  0.9379 -2.8740
   72SLPC  H18Z 6376   0.400   3.175   8.131 -1.0128 -1.3068 -0.7167
   73SLPC     N 6377   0.782   3.122  10.703 -0.2405  0.3219 -0.0879
   73SLPC   C13 6378   0.656   3.142  10.781 -0.1352  0.0715  0.1600
   73SLPC  H13A 6379   0.636   3.248  10.786 -2.1617 -0.3083  0.8056
   73SLPC  H13B 6380   0.566   3.091  10.750 -1.3250  0.1407  3.3084
   73SLPC  H13C 6381   0.671   3.108  10.882  2.5325 -0.2460 -0.3186
   73SLPC   C14 6382   0.900   3.185  10.770 -0.3892 -0.0127  0.0023
   73SLPC  H14A 6383   0.904   3.150  10.873 -0.7909  1.3130  0.4744
   73SLPC  H14B 6384   0.993   3.161  10.721 -0.8325  0.4380 -1.0553
   73SLPC  H14C 6385   0.889   3.292  10.762  0.9404 -0.0625 -2.8101
   73SLPC   C15 6386   0.770   3.181  10.566 -0.1193 -0.0022  0.1002
   73SLPC  H15A 6387   0.867   3.162  10.521 -0.4302 -1.2973 -0.0451
   73SLPC  H15B 6388   0.706   3.121  10.504 -0.6606  0.4129  0.2539
   73SLPC  H15C 6389   0.736   3.284  10.570  2.1233  0.8281 -0.7862
   73SLPC   C12 6390   0.812   2.976  10.681  0.0513 -0.0795  0.8314
   73SLPC  H12A 6391   0.828   2.923  10.774  1.8558 -1.2951 -0.1247
   73SLPC  H12B 6392   0.910   2.972  10.635 -1.0617  1.0418 -1.7062
   73SLPC   C11 6393   0.709   2.889  10.603 -0.3936 -0.2143 -0.6880
   73SLPC  H11A 6394   0.764   2.795  10.585  2.3081  1.0298  0.7966
   73SLPC  H11B 6395   0.692   2.934  10.503 -0.3238  0.4311 -0.4139
   73SLPC     P 6396   0.565   2.754  10.770  0.1825  0.0323 -0.0528
   73SLPC   O13 6397   0.689   2.743  10.852  0.9715  0.1868 -0.6309
   73SLPC   O14 6398   0.441   2.765  10.853  0.1537 -0.0083 -0.1704
   73SLPC   O12 6399   0.582   2.873  10.668  0.0483 -0.4302  0.1397
   73SLPC   O11 6400   0.559   2.623  10.683  0.3135 -0.2914  0.3026
   73SLPC    C1 6401   0.503   2.622  10.553 -0.7271  0.4326  0.2657
   73SLPC    HA 6402   0.405   2.572  10.567 -0.3719 -0.0334  1.1338
   73SLPC    HB 6403   0.474   2.722  10.513 -0.0038  1.3525  1.9776
   73SLPC    C2 6404   0.593   2.532  10.457  0.5153 -0.2239 -1.1577
   73SLPC    HS 6405   0.700   2.558  10.472  0.3181 -0.3248  0.5624
   73SLPC   O21 6406   0.540   2.538  10.324 -0.2381  0.0762 -0.0575
   73SLPC   C21 6407   0.593   2.635  10.250 -0.1994  0.0039 -0.5621
   73SLPC   O22 6408   0.696   2.696  10.279 -0.6665 -0.2251  0.2328
   73SLPC   C22 6409   0.507   2.661  10.119  0.0900  0.1038  0.3805
   73SLPC   H2R 6410   0.496   2.564  10.066 -1.2803  0.0487  0.7470
   73SLPC   H2S 6411   0.412   2.712  10.148 -0.4855 -0.1423 -0.9950
   73SLPC    C3 6412   0.580   2.385  10.504  0.1323 -0.1260  0.2135
   73SLPC    HX 6413   0.475   2.365  10.534 -1.0855  1.4407 -2.7185
   73SLPC    HY 6414   0.639   2.378  10.597 -0.0750 -0.3842  0.3266
   73SLPC   O31 6415   0.609   2.288  10.401  0.3792 -0.4189 -0.0619
   73SLPC   C31 6416   0.713   2.211  10.410  0.2076 -0.1504  0.0485
   73SLPC   O32 6417   0.790   2.198  10.501  0.3820  0.5095  0.0792
   73SLPC   C32 6418   0.738   2.139  10.286 -0.2292  0.1280 -0.3281
   73SLPC   H2X 6419   0.748   2.222  10.212 -0.6104  0.5847  0.1288
   73SLPC   H2Y 6420   0.640   2.098  10.254 -0.9268  2.5785 -1.4648
   73SLPC   C23 6421   0.585   2.766  10.031  1.0025  0.1648 -0.1784
   73SLPC   H3R 6422   0.688   2.728  10.019  1.3687  0.7305  1.0568
   73SLPC   H3S 6423   0.588   2.863  10.085  1.8037  0.6923 -1.1590
   73SLPC   C24 6424   0.510   2.781   9.894  0.2660  0.6251 -0.4045
   73SLPC   H4R 6425   0.521   2.886   9.859  1.4918  0.1996 -1.3236
   73SLPC   H4S 6426   0.402   2.754   9.899  0.0182  1.5600 -0.5528
   73SLPC   C25 6427   0.571   2.679   9.795 -0.1811 -0.0255  0.1437
   73SLPC   H5R 6428   0.552   2.574   9.827  0.2269 -1.1119 -3.0009
   73SLPC   H5S 6429   0.681   2.690   9.792 -0.2061  0.0919 -0.2868
   73SLPC   C26 6430   0.499   2.696   9.661  0.1557  0.0818  0.3605
   73SLPC   H6R 6431   0.484   2.802   9.633  1.7336  0.1531 -0.2721
   73SLPC   H6S 6432   0.397   2.660   9.684  0.0785 -0.5300 -0.9150
   73SLPC   C27 6433   0.548   2.596   9.556 -0.0228  0.3006 -0.1701
   73SLPC   H7R 6434   0.568   2.494   9.595  1.2169  0.6618  0.1451
   73SLPC   H7S 6435   0.647   2.627   9.516  0.0960  0.5415  0.3023
   73SLPC   C28 6436   0.446   2.585   9.444 -0.3278  0.0928  0.5761
   73SLPC   H8R 6437   0.440   2.686   9.398  2.1985 -0.9976 -2.3611
   73SLPC   H8S 6438   0.352   2.551   9.493  0.7238 -2.0166  1.1526
   73SLPC   C29 6439   0.494   2.481   9.335  0.6544  0.1429 -0.1257
   73SLPC   H9R 6440   0.528   2.385   9.377  1.9312  0.6326  0.0013
   73SLPC  C210 6441   0.501   2.503   9.200 -0.2617 -0.2939 -0.2181
   73SLPC  H10R 6442   0.537   2.422   9.134 -0.2176  0.1423 -0.7301
   73SLPC  C211 6443   0.466   2.632   9.134 -0.5439  0.2349 -0.7478
   73SLPC  H11R 6444   0.422   2.701   9.209  0.4532  0.0656  0.0019
   73SLPC  H11S 6445   0.381   2.607   9.068 -0.2956  0.5375 -1.1797
   73SLPC  C212 6446   0.579   2.701   9.059 -0.1513 -0.2672 -0.4496
   73SLPC  H12R 6447   0.668   2.717   9.121 -2.1691 -0.2755  2.5304
   73SLPC  C213 6448   0.583   2.744   8.928  0.2886  0.0201 -0.0288
   73SLPC  H13R 6449   0.686   2.773   8.904  0.7569 -0.0271  1.8663
   73SLPC  C214 6450   0.467   2.745   8.828 -0.1282 -0.2087  0.2589
   73SLPC  H14R 6451   0.438   2.847   8.795 -0.5178  0.0916  1.4935
   73SLPC  H14S 6452   0.372   2.708   8.871 -0.2187 -1.1084 -0.6904
   73SLPC  C215 6453   0.497   2.660   8.703 -0.0320  0.3818  0.5009
   73SLPC  H15R 6454   0.495   2.557   8.744  2.7793 -0.5207 -1.4741
   73SLPC  H15S 6455   0.596   2.676   8.655 -0.6320  0.5339 -0.7041
   73SLPC  C216 6456   0.388   2.675   8.588 -0.5268  0.3046 -0.6390
   73SLPC  H16R 6457   0.398   2.774   8.538  2.6192  1.1411  1.4917
   73SLPC  H16S 6458   0.291   2.656   8.639 -0.2820 -0.0792 -0.3107
   73SLPC  C217 6459   0.390   2.568   8.477 -0.4406  0.4091 -0.2183
   73SLPC  H17R 6460   0.335   2.483   8.522  0.5283  0.6467  1.4631
   73SLPC  H17S 6461   0.495   2.534   8.466  0.3669  2.2924  1.3211
   73SLPC  C218 6462   0.341   2.619   8.345 -0.0691  0.3517  0.2778
   73SLPC  H18R 6463   0.254   2.686   8.360 -0.8511 -1.0782  2.4641
   73SLPC  H18S 6464   0.302   2.539   8.278  3.4584  1.2449 -3.0836
   73SLPC  H18T 6465   0.411   2.683   8.288  1.7052 -0.5462  1.3877
   73SLPC   C33 6466   0.864   2.045  10.278  0.3239  0.3367 -0.6497
   73SLPC   H3X 6467   0.843   1.937  10.294  1.0681  0.0992 -1.2846
   73SLPC   H3Y 6468   0.933   2.073  10.361 -1.0509  2.6385 -0.2319
   73SLPC   C34 6469   0.940   2.075  10.151 -0.6835  0.4831  0.0454
   73SLPC   H4X 6470   1.044   2.038  10.166 -0.4473  0.6769 -1.0764
   73SLPC   H4Y 6471   0.958   2.184  10.140 -1.0501  0.5665  0.2741
   73SLPC   C35 6472   0.873   2.018  10.022  0.1372  0.2524  0.4990
   73SLPC   H5X 6473   0.782   2.075   9.995  0.6134  0.9182  0.2825
   73SLPC   H5Y 6474   0.844   1.910  10.026 -0.3471  0.3148 -0.9499
   73SLPC   C36 6475   0.952   2.036   9.892 -0.2966  0.5268  0.1813
   73SLPC   H6X 6476   1.044   1.974   9.902 -0.6018  0.1166  0.4366
   73SLPC   H6Y 6477   0.975   2.143   9.871 -2.5691  0.6616 -1.8925
   73SLPC   C37 6478   0.870   1.969   9.779  0.2125 -0.6912 -0.2871
   73SLPC   H7X 6479   0.767   2.009   9.788  0.8543  0.5921  1.8110
   73SLPC   H7Y 6480   0.859   1.861   9.803 -1.1644 -0.3234  0.7679
   73SLPC   C38 6481   0.919   2.005   9.641 -0.1533  0.2046  0.2043
   73SLPC   H8X 6482   1.030   1.999   9.641 -0.0700  1.6503  1.4874
   73SLPC   H8Y 6483   0.896   2.111   9.619  2.2906  0.6634 -0.2507
   73SLPC   C39 6484   0.842   1.922   9.539 -0.2953 -0.0200 -0.0295
   73SLPC   H9X 6485   0.734   1.924   9.567 -0.2204  2.0086  0.2305
   73SLPC   H9Y 6486   0.866   1.817   9.565  2.1426  0.5065 -0.0926
   73SLPC  C310 6487   0.875   1.954   9.394  1.1928 -0.5654  0.2720
   73SLPC  H10X 6488   0.980   1.923   9.377  1.4679 -2.8303  5.0980
   73SLPC  H10Y 6489   0.864   2.063   9.376  3.0482 -0.8738 -2.9961
   73SLPC  C311 6490   0.790   1.883   9.290  1.2501 -0.2055 -0.5746
   73SLPC  H11X 6491   0.683   1.913   9.292  1.3131  0.1484 -1.8509
   73SLPC  H11Y 6492   0.802   1.774   9.312  1.6810  0.2285  1.4197
   73SLPC  C312 6493   0.850   1.918   9.157 -0.4828 -0.5563  0.5139
   73SLPC  H12X 6494   0.959   1.897   9.160  0.0883  2.2002  0.0730
   73SLPC  H12Y 6495   0.833   2.027   9.146 -0.5139 -0.8261 -2.5724
   73SLPC  C313 6496   0.788   1.860   9.027 -0.4352 -0.0384 -0.9766
   73SLPC  H13X 6497   0.680   1.885   9.016 -0.6574 -0.6767 -0.2385
   73SLPC  H13Y 6498   0.792   1.750   9.036 -0.9815 -0.1511 -2.0274
   73SLPC  C314 6499   0.859   1.907   8.906  0.4606  0.0335  0.3135
   73SLPC  H14X 6500   0.969   1.890   8.914  0.6327  1.1204  0.4056
   73SLPC  H14Y 6501   0.853   2.018   8.907  1.3217  0.0849  0.5206
   73SLPC  C315 6502   0.808   1.858   8.767  0.0600  0.1604  0.2470
   73SLPC  H15X 6503   0.699   1.873   8.750 -0.5547 -2.3264  1.7143
   73SLPC  H15Y 6504   0.825   1.748   8.775  0.5051  0.2932  1.1524
   73SLPC  C316 6505   0.877   1.924   8.649 -0.4538  0.2025  0.4448
   73SLPC  H16X 6506   0.986   1.924   8.668 -0.1777  0.6673 -1.0940
   73SLPC  H16Y 6507   0.843   2.029   8.649  0.5698  0.5581 -1.5386
   73SLPC  C317 6508   0.848   1.850   8.514 -0.5082 -0.7032 -0.6865
   73SLPC  H17X 6509   0.737   1.842   8.522 -0.5647  0.4192 -0.3644
   73SLPC  H17Y 6510   0.889   1.747   8.521 -0.2852 -0.4852  1.7451
   73SLPC  C318 6511   0.904   1.916   8.391 -0.6065  0.3265  0.2645
   73SLPC  H18X 6512   0.851   1.876   8.302 -0.3886 -1.3452  0.8612
   73SLPC  H18Y 6513   1.013   1.905   8.371 -0.7080 -2.3356  0.9410
   73SLPC  H18Z 6514   0.893   2.026   8.403 -1.6137  0.2851 -0.2337
   74SLPC     N 6515   1.106   4.624  10.716  0.4020 -0.1954 -0.1362
   74SLPC   C13 6516   1.032   4.582  10.587  0.5464  0.1487  0.0225
   74SLPC  H13A 6517   1.001   4.479  10.586  2.1088 -0.3220 -0.2003
   74SLPC  H13B 6518   0.947   4.646  10.564 -0.6586 -1.8908 -1.3382
   74SLPC  H13C 6519   1.100   4.591  10.504 -0.3708  0.1835 -0.7369
   74SLPC   C14 6520   1.018   4.626  10.832  0.2139  0.1594 -0.1353
   74SLPC  H14A 6521   1.006   4.525  10.869 -1.6151  0.9624  1.5555
   74SLPC  H14B 6522   1.048   4.691  10.913 -2.2738 -0.4368  1.2943
   74SLPC  H14C 6523   0.920   4.668  10.816 -0.0281  0.8830  3.0471
   74SLPC   C15 6524   1.154   4.758  10.693  0.5206 -0.2701  0.2139
   74SLPC  H15A 6525   1.236   4.756  10.623 -0.3218 -0.7851 -0.7701
   74SLPC  H15B 6526   1.074   4.823  10.661  1.1454  1.1800  1.5404
   74SLPC  H15C 6527   1.187   4.811  10.781  0.8569 -1.6341  0.9362
   74SLPC   C12 6528   1.228   4.532  10.747  0.7998  0.5245 -0.3215
   74SLPC  H12A 6529   1.251   4.556  10.850 -0.1182 -0.1545  0.0563
   74SLPC  H12B 6530   1.307   4.569  10.683  0.7923  1.0124 -0.0523
   74SLPC   C11 6531   1.205   4.377  10.731 -0.0754  0.4494  0.4973
   74SLPC  H11A 6532   1.117   4.351  10.794 -3.3464  1.8272 -3.2428
   74SLPC  H11B 6533   1.279   4.321  10.791  1.3402  0.9753 -0.7320
   74SLPC     P 6534   1.325   4.325  10.508  0.4375 -0.0250  0.1583
   74SLPC   O13 6535   1.380   4.456  10.474 -0.1983  0.4154  0.0584
   74SLPC   O14 6536   1.416   4.228  10.570  0.2637 -0.0575  0.7510
   74SLPC   O12 6537   1.195   4.332  10.591 -0.7163 -0.1012 -0.1685
   74SLPC   O11 6538   1.275   4.257  10.372  0.3235 -0.1798  0.2692
   74SLPC    C1 6539   1.152   4.281  10.302  0.8577  0.6744  0.2706
   74SLPC    HA 6540   1.070   4.219  10.343  0.9003 -0.0375 -0.7063
   74SLPC    HB 6541   1.126   4.389  10.291  0.9687  0.4942 -2.0419
   74SLPC    C2 6542   1.171   4.237  10.155  0.4144  0.1241  0.4435
   74SLPC    HS 6543   1.191   4.128  10.148  0.5794  0.1605  0.3646
   74SLPC   O21 6544   1.272   4.329  10.099  0.2252  0.5307  0.0791
   74SLPC   C21 6545   1.393   4.284  10.080  0.9305  0.2475  0.4270
   74SLPC   O22 6546   1.421   4.165  10.094  0.1377  0.4002  0.5556
   74SLPC   C22 6547   1.483   4.391  10.038  0.1444 -0.1064 -0.3385
   74SLPC   H2R 6548   1.482   4.477  10.110  2.4852 -0.3600  0.0393
   74SLPC   H2S 6549   1.586   4.353  10.027  0.2086  0.6968 -2.8822
   74SLPC    C3 6550   1.033   4.254  10.077  0.1952 -0.4018  0.6435
   74SLPC    HX 6551   0.994   4.354  10.107  0.8499  0.8026 -2.3090
   74SLPC    HY 6552   0.969   4.171  10.114 -0.2181 -0.1063  0.6042
   74SLPC   O31 6553   1.049   4.257   9.938 -0.3732  0.0588  0.2412
   74SLPC   C31 6554   1.051   4.140   9.870  0.2576  0.2706 -0.4522
   74SLPC   O32 6555   1.056   4.029   9.925  0.2862 -0.5501  0.7172
   74SLPC   C32 6556   1.046   4.166   9.720 -0.8388 -0.2345 -0.8777
   74SLPC   H2X 6557   1.154   4.170   9.692 -0.7458 -3.8649 -1.3075
   74SLPC   H2Y 6558   0.988   4.253   9.684  1.5005  0.8164 -2.2544
   74SLPC   C23 6559   1.454   4.445   9.898  0.4969 -0.3613 -0.1905
   74SLPC   H3R 6560   1.500   4.544   9.883 -0.8641  0.2965 -0.0836
   74SLPC   H3S 6561   1.343   4.455   9.898  0.3074 -1.9328 -3.4250
   74SLPC   C24 6562   1.475   4.348   9.784 -0.2134 -0.1438  0.5252
   74SLPC   H4R 6563   1.422   4.374   9.689  1.4156 -1.2102 -0.7115
   74SLPC   H4S 6564   1.445   4.248   9.822 -2.1741  0.1829 -0.0860
   74SLPC   C25 6565   1.619   4.347   9.738 -0.4160  0.5611 -0.3186
   74SLPC   H5R 6566   1.674   4.268   9.795 -0.4251  1.1349  0.4976
   74SLPC   H5S 6567   1.677   4.439   9.761  0.4943  0.1246 -0.8368
   74SLPC   C26 6568   1.628   4.325   9.591 -0.1624 -0.0195  0.0361
   74SLPC   H6R 6569   1.589   4.412   9.534 -0.9198 -0.6436 -0.4138
   74SLPC   H6S 6570   1.556   4.241   9.578 -0.6019  0.3174  0.2728
   74SLPC   C27 6571   1.772   4.296   9.548 -0.3269  0.0840 -0.2215
   74SLPC   H7R 6572   1.820   4.226   9.620 -1.2347  1.1735  1.4690
   74SLPC   H7S 6573   1.832   4.388   9.566 -0.9597  0.3269  0.6687
   74SLPC   C28 6574   1.795   4.248   9.399  0.2460  0.3426  0.4363
   74SLPC   H8R 6575   1.747   4.148   9.390  1.2490 -0.1282  0.1952
   74SLPC   H8S 6576   1.904   4.239   9.377 -0.3663  1.1626 -3.2759
   74SLPC   C29 6577   1.716   4.321   9.304 -0.5811  0.7485 -0.5597
   74SLPC   H9R 6578   1.611   4.315   9.336 -0.2087 -0.5381  0.4846
   74SLPC  C210 6579   1.749   4.385   9.186 -0.7245 -0.0440 -0.5775
   74SLPC  H10R 6580   1.675   4.433   9.120 -0.2776  0.0186 -1.0377
   74SLPC  C211 6581   1.893   4.384   9.131 -0.0536  0.6928  0.3675
   74SLPC  H11R 6582   1.939   4.296   9.181  2.3273  0.7991 -1.5574
   74SLPC  H11S 6583   1.954   4.471   9.164  0.1674  0.8823 -0.5320
   74SLPC  C212 6584   1.903   4.355   8.982  0.3243 -0.2584  0.3704
   74SLPC  H12R 6585   1.910   4.454   8.935 -2.2405 -0.0176  0.4167
   74SLPC  C213 6586   1.913   4.243   8.908 -0.0222  0.4523 -0.1652
   74SLPC  H13R 6587   1.917   4.260   8.799 -0.5239  0.5565 -0.1676
   74SLPC  C214 6588   1.919   4.100   8.963  0.5806  0.7032 -0.0965
   74SLPC  H14R 6589   1.818   4.068   8.995  1.2222  0.3151  1.6368
   74SLPC  H14S 6590   1.983   4.097   9.054  1.1601 -1.6988 -0.5443
   74SLPC  C215 6591   1.967   3.991   8.859  0.0697 -0.5733 -0.6507
   74SLPC  H15R 6592   1.985   3.895   8.912 -0.3801  1.4408  3.3584
   74SLPC  H15S 6593   2.068   4.026   8.828  1.1732 -1.5842  1.6599
   74SLPC  C216 6594   1.875   3.957   8.743  0.3025  0.3270  0.8300
   74SLPC  H16R 6595   1.833   4.049   8.697 -2.2228 -1.4955 -0.5827
   74SLPC  H16S 6596   1.787   3.892   8.760 -0.9786  2.1373  1.2507
   74SLPC  C217 6597   1.964   3.912   8.625  0.1365  1.1583 -0.1785
   74SLPC  H17R 6598   2.012   4.000   8.577 -0.1688  0.2459 -2.2174
   74SLPC  H17S 6599   1.907   3.872   8.538 -3.4761  0.5473  2.3618
   74SLPC  C218 6600   2.074   3.807   8.656  0.2024 -0.2622  0.4476
   74SLPC  H18R 6601   2.127   3.780   8.562  3.1392  1.3682  1.5394
   74SLPC  H18S 6602   2.012   3.725   8.698 -1.5293  0.6482 -0.2843
   74SLPC  H18T 6603   2.152   3.838   8.729  0.5472 -0.3034  0.0999
   74SLPC   C33 6604   1.007   4.040   9.631 -0.0647 -0.5693  0.7713
   74SLPC   H3X 6605   0.898   4.020   9.632  0.2987 -2.7746  0.1099
   74SLPC   H3Y 6606   1.063   3.956   9.678 -0.1659  0.5118  2.9047
   74SLPC   C34 6607   1.056   4.042   9.487 -0.4510 -0.9043 -0.6733
   74SLPC   H4X 6608   1.013   3.950   9.442  1.9298 -2.8445  0.9039
   74SLPC   H4Y 6609   1.167   4.039   9.489 -0.4938 -3.0234  2.9135
   74SLPC   C35 6610   0.998   4.169   9.410  0.3470 -0.0025 -0.3274
   74SLPC   H5X 6611   1.032   4.252   9.475 -0.6042  0.2184 -0.1025
   74SLPC   H5Y 6612   0.887   4.175   9.414  0.3224 -0.6775  0.3456
   74SLPC   C36 6613   1.045   4.197   9.266  0.0421  0.1894 -0.2980
   74SLPC   H6X 6614   1.154   4.212   9.251 -0.4124  2.2162 -1.8004
   74SLPC   H6Y 6615   1.012   4.298   9.234  2.9208  0.3613 -2.9903
   74SLPC   C37 6616   0.988   4.087   9.174  0.4100 -0.2594 -0.3611
   74SLPC   H7X 6617   0.880   4.067   9.187  0.4400 -0.5365 -0.5361
   74SLPC   H7Y 6618   1.038   3.999   9.220  0.2865  0.9009  2.0608
   74SLPC   C38 6619   1.039   4.098   9.035  0.3370  0.2942  0.1045
   74SLPC   H8X 6620   1.027   4.005   8.975  0.8696  0.4769 -0.2848
   74SLPC   H8Y 6621   1.150   4.104   9.038  0.2229  3.8482 -0.3766
   74SLPC   C39 6622   0.979   4.216   8.960  0.1256  0.6701  0.7326
   74SLPC   H9X 6623   1.000   4.315   9.007 -1.3781  2.6419 -2.5480
   74SLPC   H9Y 6624   0.869   4.207   8.948  0.1977  1.0890 -0.2766
   74SLPC  C310 6625   1.056   4.227   8.829 -0.1952 -0.1912 -0.7057
   74SLPC  H10X 6626   1.045   4.127   8.781 -2.0844 -0.3621  0.0348
   74SLPC  H10Y 6627   1.161   4.235   8.866 -0.4471  0.1661 -0.0501
   74SLPC  C311 6628   1.014   4.339   8.741 -0.0104 -0.3596 -0.0121
   74SLPC  H11X 6629   1.049   4.431   8.791  3.5813 -1.8162  0.2891
   74SLPC  H11Y 6630   0.904   4.346   8.725  0.3892  4.3078 -1.3718
   74SLPC  C312 6631   1.084   4.332   8.604 -0.5443  0.5267 -0.5117
   74SLPC  H12X 6632   1.010   4.309   8.524 -0.1702 -1.2699 -0.3636
   74SLPC  H12Y 6633   1.166   4.257   8.613  2.8644  4.2411  0.9910
   74SLPC  C313 6634   1.162   4.463   8.584 -0.2939  0.7796  1.1147
   74SLPC  H13X 6635   1.239   4.475   8.663 -0.1248 -2.0442  1.4120
   74SLPC  H13Y 6636   1.096   4.552   8.594 -2.9847 -0.9465 -0.5779
   74SLPC  C314 6637   1.238   4.455   8.455 -0.8352 -0.9051  0.2843
   74SLPC  H14X 6638   1.169   4.436   8.370 -0.7589 -0.8853  0.2177
   74SLPC  H14Y 6639   1.312   4.373   8.455 -0.2977 -0.4222  0.7054
   74SLPC  C315 6640   1.295   4.593   8.417 -0.1053  0.6565  1.1265
   74SLPC  H15X 6641   1.385   4.617   8.477  0.7363 -0.8149  0.5032
   74SLPC  H15Y 6642   1.212   4.663   8.440 -1.1680 -0.2431  0.0930
   74SLPC  C316 6643   1.332   4.605   8.273 -0.0342 -0.1997 -0.2577
   74SLPC  H16X 6644   1.242   4.605   8.207 -1.1506 -0.5955  1.2467
   74SLPC  H16Y 6645   1.410   4.533   8.240 -0.2282 -0.0682 -1.0045
   74SLPC  C317 6646   1.397   4.741   8.246 -0.1550 -0.2795  0.0609
   74SLPC  H17X 6647   1.380   4.808   8.333 -0.5159  2.3249 -1.9483
   74SLPC  H17Y 6648   1.341   4.799   8.169 -0.3353 -1.3441 -0.6159
   74SLPC  C318 6649   1.549   4.730   8.229 -0.5850  0.2246  0.1542
   74SLPC  H18X 6650   1.594   4.688   8.321  1.3714  0.1277 -0.8040
   74SLPC  H18Y 6651   1.601   4.824   8.199 -2.9431  1.4535 -0.1892
   74SLPC  H18Z 6652   1.570   4.651   8.155 -4.1747 -0.7469  0.0778
   75SLPC     N 6653   6.433   0.258   6.153 -0.0464  0.2295  0.2285
   75SLPC   C13 6654   6.435   0.118   6.098 -0.3413  1.0763  0.0578
   75SLPC  H13A 6655   6.508   0.097   6.021 -1.6295 -2.3682 -0.3382
   75SLPC  H13B 6656   6.444   0.050   6.182  3.1238  0.4953 -0.7359
   75SLPC  H13C 6657   6.340   0.096   6.052 -0.8052 -0.3336  1.6069
   75SLPC   C14 6658   6.393   0.344   6.038  0.4654  0.1299 -0.1316
   75SLPC  H14A 6659   6.290   0.324   6.012  0.4511  1.0036 -0.7561
   75SLPC  H14B 6660   6.402   0.450   6.058 -0.9008  0.4433 -1.1227
   75SLPC  H14C 6661   6.447   0.321   5.947  1.5813 -2.8099  1.1861
   75SLPC   C15 6662   6.570   0.289   6.198  0.4900  0.3748  0.4516
   75SLPC  H15A 6663   6.643   0.267   6.122  0.6582  1.0646  0.4115
   75SLPC  H15B 6664   6.571   0.378   6.259 -3.7215  1.7975 -1.4285
   75SLPC  H15C 6665   6.584   0.216   6.277 -2.0758 -0.2999  0.3264
   75SLPC   C12 6666   6.320   0.274   6.255 -0.9599 -0.1919  0.0022
   75SLPC  H12A 6667   6.229   0.270   6.196 -0.7774  2.1172 -0.4997
   75SLPC  H12B 6668   6.325   0.376   6.291  1.2617 -0.2716 -0.0463
   75SLPC   C11 6669   6.318   0.186   6.382  0.7554 -0.4334 -0.0803
   75SLPC  H11A 6670   6.301   0.083   6.343 -3.9876 -0.1669  1.0687
   75SLPC  H11B 6671   6.224   0.218   6.432  1.2538 -1.4988  1.5867
   75SLPC     P 6672   6.454   0.306   6.564  0.0229 -0.2417  0.0748
   75SLPC   O13 6673   6.586   0.292   6.633 -0.1673  0.0915 -0.4768
   75SLPC   O14 6674   6.440   0.422   6.482 -0.4384 -0.4688  0.1707
   75SLPC   O12 6675   6.436   0.187   6.465  0.3262 -0.5712 -0.8673
   75SLPC   O11 6676   6.340   0.301   6.667  0.2854 -0.4142  0.4477
   75SLPC    C1 6677   6.272   0.180   6.705  0.0401 -0.2839  0.0741
   75SLPC    HA 6678   6.203   0.146   6.625 -0.8382 -1.9633  1.5272
   75SLPC    HB 6679   6.346   0.103   6.735  0.5875 -0.6149 -2.0494
   75SLPC    C2 6680   6.177   0.210   6.834 -0.7166 -0.8592 -0.3289
   75SLPC    HS 6681   6.094   0.279   6.805 -1.9242 -2.8358 -1.7374
   75SLPC   O21 6682   6.256   0.265   6.941 -0.4535  0.0930 -0.1041
   75SLPC   C21 6683   6.194   0.357   7.010 -0.0728 -0.3890  0.1160
   75SLPC   O22 6684   6.086   0.405   6.993 -0.0806  0.1686 -0.3471
   75SLPC   C22 6685   6.282   0.396   7.132 -0.1550 -0.1001 -0.4393
   75SLPC   H2R 6686   6.389   0.364   7.129 -0.0088  0.1610  1.5029
   75SLPC   H2S 6687   6.275   0.506   7.144  0.5706  0.4157 -4.2544
   75SLPC    C3 6688   6.122   0.067   6.875  0.0756  0.2307  0.6482
   75SLPC    HX 6689   6.206   0.010   6.920  1.0265 -0.2911 -1.6821
   75SLPC    HY 6690   6.088   0.009   6.786  1.5382 -0.9307  0.8245
   75SLPC   O31 6691   6.013   0.073   6.972 -0.3014 -0.2518  0.4025
   75SLPC   C31 6692   5.894   0.109   6.905  0.1118  0.6330  0.2528
   75SLPC   O32 6693   5.885   0.124   6.783  0.7402  0.0819 -0.6811
   75SLPC   C32 6694   5.765   0.119   6.985  0.0421 -0.5806  0.3625
   75SLPC   H2X 6695   5.706   0.026   6.972 -1.1424  0.0751  0.9961
   75SLPC   H2Y 6696   5.710   0.209   6.950 -3.4073 -2.6089  0.3023
   75SLPC   C23 6697   6.221   0.324   7.256 -0.3836  0.8612 -0.5243
   75SLPC   H3R 6698   6.114   0.351   7.266 -0.4079  0.7995 -0.6126
   75SLPC   H3S 6699   6.275   0.361   7.346 -0.0157  0.7063 -0.6815
   75SLPC   C24 6700   6.237   0.171   7.257  0.4362  0.0871 -0.5316
   75SLPC   H4R 6701   6.338   0.140   7.222  0.4087  1.8703 -2.2774
   75SLPC   H4S 6702   6.164   0.134   7.182  1.3107  2.8096 -2.8364
   75SLPC   C25 6703   6.218   0.118   7.403  0.5191  0.2846  0.2103
   75SLPC   H5R 6704   6.290   0.177   7.464  0.8333  0.4458 -0.3135
   75SLPC   H5S 6705   6.250   0.013   7.417 -0.4284  0.3611  3.1915
   75SLPC   C26 6706   6.070   0.123   7.445  0.5087 -0.3045  0.2073
   75SLPC   H6R 6707   6.016   0.061   7.371  0.6691 -2.2485  1.6870
   75SLPC   H6S 6708   6.034   0.228   7.437 -2.4663 -1.4780 -3.1776
   75SLPC   C27 6709   6.045   0.067   7.587  0.6209 -0.3020  0.5212
   75SLPC   H7R 6710   6.078   0.147   7.657 -0.9477  0.0678  0.8674
   75SLPC   H7S 6711   6.104  -0.026   7.604  1.0675  0.0820  1.0896
   75SLPC   C28 6712   5.899   0.048   7.626 -0.5796 -0.9647  0.4429
   75SLPC   H8R 6713   5.858  -0.017   7.545 -6.1966  1.3232  1.2236
   75SLPC   H8S 6714   5.842   0.143   7.626 -0.0133 -0.6306  0.2165
   75SLPC   C29 6715   5.880  -0.021   7.758 -0.0248 -0.5919 -0.2889
   75SLPC   H9R 6716   5.897  -0.129   7.763  1.7596 -0.3771 -1.4470
   75SLPC  C210 6717   5.840   0.043   7.863 -0.3405 -0.1498 -0.5089
   75SLPC  H10R 6718   5.828  -0.026   7.948 -3.6732 -0.9270 -1.5032
   75SLPC  C211 6719   5.814   0.193   7.888 -0.5018  0.0968  0.2251
   75SLPC  H11R 6720   5.835   0.252   7.796 -0.1214 -0.5845 -0.1349
   75SLPC  H11S 6721   5.892   0.227   7.959  0.3848  0.4059 -0.8826
   75SLPC  C212 6722   5.675   0.212   7.939  0.4615 -0.0373  0.1469
   75SLPC  H12R 6723   5.599   0.242   7.866  1.4397  0.4838 -0.6651
   75SLPC  C213 6724   5.629   0.179   8.062  0.0117 -0.3130 -0.5486
   75SLPC  H13R 6725   5.528   0.212   8.090  0.6581  1.9338 -0.7359
   75SLPC  C214 6726   5.716   0.122   8.174  0.9724 -0.0223  0.5790
   75SLPC  H14R 6727   5.783   0.041   8.139  0.7861 -0.0423  0.2610
   75SLPC  H14S 6728   5.655   0.065   8.248  0.2670 -1.3914 -1.0234
   75SLPC  C215 6729   5.801   0.227   8.241 -0.5758 -0.2153 -0.6313
   75SLPC  H15R 6730   5.729   0.309   8.260 -0.1601 -0.1652  0.7912
   75SLPC  H15S 6731   5.882   0.251   8.169 -0.0123 -0.9818 -0.2598
   75SLPC  C216 6732   5.866   0.175   8.371 -0.1715 -0.0498 -0.1714
   75SLPC  H16R 6733   5.940   0.097   8.342  0.6713  0.2910  1.0071
   75SLPC  H16S 6734   5.789   0.125   8.434  0.1681  0.6573  0.8118
   75SLPC  C217 6735   5.935   0.292   8.443  0.6422  0.5350 -0.5061
   75SLPC  H17R 6736   5.999   0.247   8.522  0.9473 -2.4544 -2.3609
   75SLPC  H17S 6737   5.862   0.349   8.503 -1.2645  0.4493 -2.6837
   75SLPC  C218 6738   6.019   0.386   8.359  0.4205 -0.1540 -0.1479
   75SLPC  H18R 6739   6.085   0.444   8.426  0.0504  0.9088 -0.6968
   75SLPC  H18S 6740   5.953   0.449   8.295 -2.0651  0.1184  2.5378
   75SLPC  H18T 6741   6.090   0.330   8.294  1.1849  0.7243 -0.0748
   75SLPC   C33 6742   5.780   0.124   7.139 -0.3878  0.2998  0.1936
   75SLPC   H3X 6743   5.843   0.038   7.172 -2.1575 -0.9956  0.2515
   75SLPC   H3Y 6744   5.842   0.212   7.166 -2.7257  2.1076 -0.1518
   75SLPC   C34 6745   5.638   0.130   7.211 -0.5557  0.2076  0.0656
   75SLPC   H4X 6746   5.565   0.050   7.183  0.3209 -0.7246  0.4306
   75SLPC   H4Y 6747   5.596   0.227   7.175 -1.5030  1.1242  3.4676
   75SLPC   C35 6748   5.646   0.125   7.363 -0.4841 -0.1233  0.3172
   75SLPC   H5X 6749   5.709   0.205   7.407 -0.4284  0.7936 -1.3967
   75SLPC   H5Y 6750   5.690   0.029   7.398  1.0825  0.6193  0.4046
   75SLPC   C36 6751   5.503   0.130   7.422 -0.3580  0.1329 -0.0774
   75SLPC   H6X 6752   5.443   0.053   7.368  0.1141  0.2820 -0.8265
   75SLPC   H6Y 6753   5.474   0.235   7.400  2.5341  1.0234  0.2191
   75SLPC   C37 6754   5.508   0.122   7.574  0.8723  0.6229  0.0597
   75SLPC   H7X 6755   5.575   0.199   7.616  1.9919  0.4781 -1.4276
   75SLPC   H7Y 6756   5.550   0.024   7.603  1.6594  0.9376 -0.0218
   75SLPC   C38 6757   5.375   0.128   7.638  0.2962 -0.6359 -0.2394
   75SLPC   H8X 6758   5.308   0.067   7.574 -1.1069 -0.6870  1.2624
   75SLPC   H8Y 6759   5.341   0.234   7.630 -0.5900 -0.7445  1.8845
   75SLPC   C39 6760   5.365   0.095   7.780 -0.5996 -0.0412 -0.1476
   75SLPC   H9X 6761   5.386   0.188   7.836 -2.2325 -1.3928  2.8061
   75SLPC   H9Y 6762   5.448   0.026   7.808 -1.5385  0.0936  3.0759
   75SLPC  C310 6763   5.234   0.033   7.813 -0.2721  0.5827 -0.6160
   75SLPC  H10X 6764   5.230  -0.072   7.776 -1.0487 -0.3247  1.8740
   75SLPC  H10Y 6765   5.149   0.095   7.777  0.2500  0.6479 -1.7497
   75SLPC  C311 6766   5.214  -0.004   7.969 -0.0162 -0.3607  0.0281
   75SLPC  H11X 6767   5.314  -0.040   8.002 -0.2369  0.1877  1.3056
   75SLPC  H11Y 6768   5.159  -0.098   7.986 -0.6713 -0.3176 -1.7655
   75SLPC  C312 6769   5.182   0.118   8.048  0.1007  0.3705 -0.0279
   75SLPC  H12X 6770   5.089   0.162   8.005 -1.3950 -1.9602  0.6873
   75SLPC  H12Y 6771   5.264   0.193   8.048 -0.2237  0.7647 -2.1774
   75SLPC  C313 6772   5.125   0.077   8.190 -0.1960 -0.0578  0.4165
   75SLPC  H13X 6773   5.194   0.002   8.234 -0.6883 -0.2232  0.9073
   75SLPC  H13Y 6774   5.025   0.032   8.173  0.2923 -1.0764  0.2035
   75SLPC  C314 6775   5.106   0.197   8.287  1.1385  0.1036  0.1216
   75SLPC  H14X 6776   5.039   0.162   8.368 -0.8348  2.0024 -0.6220
   75SLPC  H14Y 6777   5.055   0.278   8.230 -0.5903 -2.5273 -2.1923
   75SLPC  C315 6778   5.241   0.254   8.336 -1.1861 -0.7299 -1.7812
   75SLPC  H15X 6779   5.306   0.300   8.257  0.3163  0.0698 -0.1072
   75SLPC  H15Y 6780   5.310   0.175   8.374 -1.0455  0.2950  0.1372
   75SLPC  C316 6781   5.215   0.357   8.447  0.0491  0.1750 -0.0923
   75SLPC  H16X 6782   5.307   0.384   8.503 -1.1799 -1.1906  2.6292
   75SLPC  H16Y 6783   5.149   0.314   8.524 -0.1679  1.0848  0.2433
   75SLPC  C317 6784   5.158   0.491   8.393 -0.6854 -0.3440  0.6477
   75SLPC  H17X 6785   5.053   0.480   8.357 -0.4124 -1.5770  0.1828
   75SLPC  H17Y 6786   5.215   0.524   8.303 -1.0872 -0.1154  0.4792
   75SLPC  C318 6787   5.163   0.597   8.499 -0.1603  0.4340  1.0155
   75SLPC  H18X 6788   5.105   0.574   8.591 -0.0133 -1.0463  0.7544
   75SLPC  H18Y 6789   5.128   0.692   8.453 -0.1616  0.3356  0.8148
   75SLPC  H18Z 6790   5.269   0.596   8.533  0.1622  0.9328  0.0403
   76SLPC     N 6791   1.622   5.181   6.139 -0.5626 -0.4602  0.3263
   76SLPC   C13 6792   1.610   5.156   5.992  0.5527  0.0101  0.5472
   76SLPC  H13A 6793   1.702   5.194   5.949 -0.8294  2.2201 -0.5331
   76SLPC  H13B 6794   1.593   5.051   5.971  0.4977 -0.0477  0.8803
   76SLPC  H13C 6795   1.529   5.215   5.953  0.9113 -0.8247 -1.5267
   76SLPC   C14 6796   1.650   5.326   6.166 -0.1396  0.5591  0.3024
   76SLPC  H14A 6797   1.562   5.387   6.182 -0.2819  0.2197  0.8656
   76SLPC  H14B 6798   1.707   5.335   6.258  1.9223 -0.5118 -0.8316
   76SLPC  H14C 6799   1.712   5.371   6.090 -1.1456 -2.7453 -2.5935
   76SLPC   C15 6800   1.743   5.115   6.196  0.3139  0.1242  0.3250
   76SLPC  H15A 6801   1.840   5.148   6.163  0.4898 -0.2218  0.5050
   76SLPC  H15B 6802   1.739   5.138   6.301  1.0868  0.7873  0.2141
   76SLPC  H15C 6803   1.729   5.008   6.199 -0.2118  0.0855 -2.2495
   76SLPC   C12 6804   1.497   5.142   6.204  0.1791 -0.0266  0.0899
   76SLPC  H12A 6805   1.519   5.159   6.309 -0.2155 -0.3986  0.2306
   76SLPC  H12B 6806   1.475   5.038   6.185 -1.5434  0.8960 -3.2384
   76SLPC   C11 6807   1.362   5.214   6.164 -0.7415  0.4582 -0.2421
   76SLPC  H11A 6808   1.281   5.158   6.216 -0.3978 -0.1773 -0.3946
   76SLPC  H11B 6809   1.347   5.198   6.055  2.9659 -0.4550 -0.6971
   76SLPC     P 6810   1.336   5.400   6.335  0.3429 -0.4637  0.0208
   76SLPC   O13 6811   1.424   5.517   6.361  0.1210 -0.0768  0.3277
   76SLPC   O14 6812   1.190   5.425   6.349 -0.5023 -0.4145 -0.1918
   76SLPC   O12 6813   1.367   5.349   6.190 -0.3461  0.2268  0.4109
   76SLPC   O11 6814   1.383   5.281   6.426 -0.5457  0.3069  0.0959
   76SLPC    C1 6815   1.288   5.206   6.504  0.7896 -0.2742 -0.3245
   76SLPC    HA 6816   1.198   5.168   6.451 -0.5077  2.4178 -0.1385
   76SLPC    HB 6817   1.340   5.111   6.529  1.1440 -0.0155 -0.0724
   76SLPC    C2 6818   1.260   5.241   6.656  0.0210 -0.3564 -0.3292
   76SLPC    HS 6819   1.190   5.327   6.647 -0.9151 -1.0839 -0.0798
   76SLPC   O21 6820   1.383   5.283   6.721 -0.6652 -0.0158 -0.6194
   76SLPC   C21 6821   1.380   5.405   6.772  0.3373  0.0293 -0.1174
   76SLPC   O22 6822   1.286   5.483   6.771 -0.8024 -0.3910 -0.4193
   76SLPC   C22 6823   1.518   5.431   6.830 -0.5752 -0.3764 -0.1389
   76SLPC   H2R 6824   1.553   5.330   6.862 -0.0564 -0.2696 -0.3694
   76SLPC   H2S 6825   1.576   5.458   6.740 -1.3658  1.3273 -0.1521
   76SLPC    C3 6826   1.200   5.121   6.726 -0.1547  0.2451 -1.1009
   76SLPC    HX 6827   1.269   5.035   6.722  0.3669  0.5716  0.6028
   76SLPC    HY 6828   1.096   5.108   6.689 -1.2446  1.9485  1.2192
   76SLPC   O31 6829   1.196   5.143   6.866  0.1357 -0.4021  0.7116
   76SLPC   C31 6830   1.131   5.048   6.923  0.5746 -0.4663 -0.2115
   76SLPC   O32 6831   1.074   4.954   6.875 -0.3921 -0.5508 -0.1390
   76SLPC   C32 6832   1.122   5.081   7.071  0.6591 -0.0959  0.1299
   76SLPC   H2X 6833   1.066   4.999   7.122 -0.9617  0.0690 -1.3664
   76SLPC   H2Y 6834   1.054   5.167   7.081  2.7133  1.2123  4.1140
   76SLPC   C23 6835   1.527   5.531   6.948 -0.3525 -0.2033 -0.0257
   76SLPC   H3R 6836   1.478   5.628   6.927  0.6641  0.8962  2.5731
   76SLPC   H3S 6837   1.631   5.540   6.985  0.5102 -1.1096 -2.1044
   76SLPC   C24 6838   1.463   5.476   7.072 -0.6916 -0.6303  0.5755
   76SLPC   H4R 6839   1.523   5.388   7.105  0.2285 -0.3895 -0.4260
   76SLPC   H4S 6840   1.357   5.450   7.048 -1.4491  2.7392  0.0651
   76SLPC   C25 6841   1.454   5.588   7.181  0.6214  0.4031 -0.6985
   76SLPC   H5R 6842   1.373   5.657   7.149 -1.0530 -1.0007  0.4091
   76SLPC   H5S 6843   1.553   5.638   7.187  1.1623 -0.6085 -1.1455
   76SLPC   C26 6844   1.410   5.541   7.323 -0.2100 -0.0956 -0.5946
   76SLPC   H6R 6845   1.486   5.470   7.362  0.6927  1.4724  0.5503
   76SLPC   H6S 6846   1.311   5.493   7.338  0.0026 -0.1028  0.8198
   76SLPC   C27 6847   1.417   5.656   7.418  0.3228  0.1000  1.0205
   76SLPC   H7R 6848   1.335   5.723   7.384 -0.3559 -0.8947  0.6448
   76SLPC   H7S 6849   1.511   5.712   7.403  1.0843 -0.6761  2.7379
   76SLPC   C28 6850   1.383   5.611   7.558 -0.3234 -0.0365  0.1378
   76SLPC   H8R 6851   1.293   5.545   7.559  0.1475 -0.6928  1.4955
   76SLPC   H8S 6852   1.474   5.560   7.598  0.1492  0.7028  0.0166
   76SLPC   C29 6853   1.355   5.731   7.643  0.1378  0.2135 -0.2667
   76SLPC   H9R 6854   1.305   5.811   7.586  0.5752  1.6468  1.3160
   76SLPC  C210 6855   1.374   5.736   7.777  0.3007 -0.3371 -0.0933
   76SLPC  H10R 6856   1.359   5.833   7.826  0.2403  0.2588 -1.2753
   76SLPC  C211 6857   1.431   5.623   7.854  0.5229 -0.1615 -0.8498
   76SLPC  H11R 6858   1.540   5.622   7.831  1.3431  0.2952  2.8261
   76SLPC  H11S 6859   1.404   5.523   7.814  0.9475 -0.0704 -1.3786
   76SLPC  C212 6860   1.406   5.637   8.008  0.0350 -0.6009  0.4787
   76SLPC  H12R 6861   1.307   5.603   8.043 -0.5117  2.2990  1.8530
   76SLPC  C213 6862   1.508   5.648   8.099 -0.5996 -0.2419  0.4046
   76SLPC  H13R 6863   1.485   5.664   8.205  0.8341  0.0123  0.6870
   76SLPC  C214 6864   1.652   5.670   8.066  0.4997 -0.5989 -0.0483
   76SLPC  H14R 6865   1.654   5.766   8.010 -0.4991 -0.5510 -0.0161
   76SLPC  H14S 6866   1.691   5.591   7.998 -0.1426 -1.4666  0.5860
   76SLPC  C215 6867   1.740   5.666   8.192  0.3713  0.6261  0.0567
   76SLPC  H15R 6868   1.718   5.738   8.273 -2.6584  1.2616 -1.2486
   76SLPC  H15S 6869   1.841   5.687   8.151  1.3045 -1.5616  1.1351
   76SLPC  C216 6870   1.739   5.524   8.255  0.7952  0.4352  0.2641
   76SLPC  H16R 6871   1.734   5.445   8.178  0.0498 -2.1188  2.8147
   76SLPC  H16S 6872   1.648   5.507   8.318 -1.3844 -0.4075 -2.9706
   76SLPC  C217 6873   1.855   5.496   8.353 -0.8404  0.4521 -0.2337
   76SLPC  H17R 6874   1.827   5.417   8.425  0.3867 -1.1477 -1.4809
   76SLPC  H17S 6875   1.883   5.585   8.413 -2.7795  1.0559 -0.1828
   76SLPC  C218 6876   1.973   5.436   8.271 -0.5091 -0.3375  0.8060
   76SLPC  H18R 6877   2.061   5.427   8.338 -0.4690 -2.5247  0.4947
   76SLPC  H18S 6878   1.983   5.493   8.177  0.4598 -0.1266  1.0375
   76SLPC  H18T 6879   1.943   5.330   8.252  0.5525 -0.2363 -1.5402
   76SLPC   C33 6880   1.247   5.126   7.137  0.3474 -0.6566  0.5604
   76SLPC   H3X 6881   1.311   5.188   7.071  1.3220 -0.8755  1.2973
   76SLPC   H3Y 6882   1.310   5.035   7.146 -0.4083 -1.2004  0.3719
   76SLPC   C34 6883   1.228   5.189   7.275 -0.3471 -0.9651  0.7703
   76SLPC   H4X 6884   1.191   5.292   7.260 -1.7473 -1.7599 -1.3594
   76SLPC   H4Y 6885   1.328   5.203   7.322  0.0916  0.0398 -0.4313
   76SLPC   C35 6886   1.146   5.103   7.368  0.0708  0.1089  0.2890
   76SLPC   H5X 6887   1.193   5.002   7.369 -1.7983 -0.8666 -3.1729
   76SLPC   H5Y 6888   1.043   5.098   7.327 -0.2363 -1.2615  1.2083
   76SLPC   C36 6889   1.158   5.171   7.505 -0.0159 -0.1516  0.9796
   76SLPC   H6X 6890   1.125   5.277   7.495  0.4137  0.0992  2.0413
   76SLPC   H6Y 6891   1.267   5.190   7.522 -0.0929  1.2864 -0.0408
   76SLPC   C37 6892   1.082   5.089   7.618  0.4395  0.1988 -0.4966
   76SLPC   H7X 6893   1.112   4.983   7.607 -1.6741 -0.5319  0.6289
   76SLPC   H7Y 6894   0.974   5.096   7.592 -0.2550  0.9273  2.4029
   76SLPC   C38 6895   1.119   5.160   7.750 -0.3316  0.3496  0.5671
   76SLPC   H8X 6896   1.230   5.155   7.755 -0.3787 -0.7906  0.6733
   76SLPC   H8Y 6897   1.081   5.094   7.831  1.2291  1.1630  1.9764
   76SLPC   C39 6898   1.063   5.299   7.767  0.1428 -0.9754 -0.0125
   76SLPC   H9X 6899   0.956   5.302   7.738 -0.2542  1.1010  1.6106
   76SLPC   H9Y 6900   1.127   5.356   7.697  1.6516 -0.0161  2.0953
   76SLPC  C310 6901   1.076   5.337   7.919 -0.0073  0.3310 -0.3735
   76SLPC  H10X 6902   1.185   5.336   7.941  0.1521  3.4786 -0.7924
   76SLPC  H10Y 6903   1.021   5.262   7.980  0.8576  1.0289  1.2864
   76SLPC  C311 6904   1.012   5.474   7.936 -0.3982 -0.4933 -0.8779
   76SLPC  H11X 6905   0.906   5.472   7.900 -0.8182  1.3903  0.1615
   76SLPC  H11Y 6906   1.076   5.545   7.879  0.3493 -0.3200  0.1666
   76SLPC  C312 6907   1.008   5.514   8.083 -0.2248  0.0673 -0.7109
   76SLPC  H12X 6908   1.108   5.515   8.130 -1.1436 -0.0357  1.2834
   76SLPC  H12Y 6909   0.939   5.462   8.153  0.2124  0.9329  0.3888
   76SLPC  C313 6910   0.975   5.667   8.100 -0.1780 -0.1985  0.6166
   76SLPC  H13X 6911   0.871   5.684   8.065 -0.4400 -2.6914  0.0968
   76SLPC  H13Y 6912   1.044   5.726   8.036  0.3430  0.6430  1.9296
   76SLPC  C314 6913   0.975   5.711   8.243 -0.0181  0.5784  0.1916
   76SLPC  H14X 6914   1.078   5.699   8.285  0.3855 -1.3347 -1.2882
   76SLPC  H14Y 6915   0.904   5.654   8.306  0.6312  0.0156  0.4266
   76SLPC  C315 6916   0.938   5.860   8.259 -0.4663 -0.7245  0.0111
   76SLPC  H15X 6917   0.828   5.873   8.251 -0.3927  0.6639  1.0381
   76SLPC  H15Y 6918   0.986   5.921   8.179  2.3890 -2.2198  0.5437
   76SLPC  C316 6919   0.988   5.909   8.391  0.5016 -0.7522 -0.7211
   76SLPC  H16X 6920   1.095   5.889   8.415  0.3088  0.1304  0.9780
   76SLPC  H16Y 6921   0.937   5.861   8.477 -1.7147 -1.2242 -2.2695
   76SLPC  C317 6922   0.969   6.065   8.414 -0.4408 -0.0478  0.0692
   76SLPC  H17X 6923   1.058   6.122   8.382 -1.5803  0.4923 -2.2168
   76SLPC  H17Y 6924   0.972   6.089   8.523  0.7325 -0.6851  0.1833
   76SLPC  C318 6925   0.838   6.121   8.370  0.4530 -0.2760  0.3802
   76SLPC  H18X 6926   0.815   6.218   8.419 -1.8691  0.0190 -1.2358
   76SLPC  H18Y 6927   0.753   6.055   8.396 -0.7134  0.7478 -0.7843
   76SLPC  H18Z 6928   0.850   6.131   8.260 -0.3384  0.6209  0.3714
   77SLPC     N 6929   4.422   5.048   6.336 -0.0751 -0.0665 -0.4281
   77SLPC   C13 6930   4.552   4.981   6.312 -0.8963 -0.5657 -0.0982
   77SLPC  H13A 6931   4.636   5.039   6.349 -0.9344 -0.3588 -0.3297
   77SLPC  H13B 6932   4.560   4.888   6.366  0.0840 -0.4045  0.0486
   77SLPC  H13C 6933   4.569   4.964   6.206 -1.4670  0.3145 -0.3382
   77SLPC   C14 6934   4.310   4.948   6.306  0.4882  0.2400  0.1761
   77SLPC  H14A 6935   4.313   4.922   6.201  1.2922 -0.5779  0.4022
   77SLPC  H14B 6936   4.318   4.854   6.358 -3.3378 -0.6891 -0.7131
   77SLPC  H14C 6937   4.215   4.992   6.335  1.0162  1.7038 -0.2657
   77SLPC   C15 6938   4.407   5.167   6.252 -0.1248  0.0763  0.4881
   77SLPC  H15A 6939   4.503   5.207   6.221  0.6776 -3.5088 -1.9749
   77SLPC  H15B 6940   4.358   5.128   6.164 -0.0088  0.3995  0.2821
   77SLPC  H15C 6941   4.345   5.242   6.299  0.1231 -0.4212  1.6194
   77SLPC   C12 6942   4.419   5.097   6.484 -0.0335 -0.4361 -0.3235
   77SLPC  H12A 6943   4.508   5.156   6.500 -0.7718  0.9343 -1.2117
   77SLPC  H12B 6944   4.436   5.010   6.547 -0.0871 -0.5416 -0.4548
   77SLPC   C11 6945   4.298   5.167   6.540 -0.9892  0.1770 -0.2506
   77SLPC  H11A 6946   4.297   5.155   6.651  0.0472 -0.2442 -0.2771
   77SLPC  H11B 6947   4.209   5.107   6.512 -1.2541 -0.2283  1.3977
   77SLPC     P 6948   4.386   5.419   6.550  0.4522  0.5434  0.5571
   77SLPC   O13 6949   4.524   5.395   6.511  0.0727 -0.1633  0.5097
   77SLPC   O14 6950   4.326   5.549   6.508 -0.0557 -0.3906  0.0115
   77SLPC   O12 6951   4.287   5.302   6.497  0.1725  0.6627 -0.4270
   77SLPC   O11 6952   4.368   5.382   6.706  0.1233 -0.2136  0.6516
   77SLPC    C1 6953   4.243   5.412   6.771 -1.0416  0.8846 -0.3619
   77SLPC    HA 6954   4.199   5.510   6.743 -3.9321 -0.6320 -1.3773
   77SLPC    HB 6955   4.168   5.338   6.738  1.4924 -0.5427 -3.2044
   77SLPC    C2 6956   4.248   5.394   6.923  0.3598 -0.3484  0.0220
   77SLPC    HS 6957   4.330   5.459   6.959  1.0738 -1.1155 -0.1998
   77SLPC   O21 6958   4.284   5.252   6.952 -0.9728  0.2535 -0.2931
   77SLPC   C21 6959   4.338   5.226   7.069  0.1448  0.3056 -0.4932
   77SLPC   O22 6960   4.386   5.311   7.136  0.0987  0.2096 -0.6719
   77SLPC   C22 6961   4.348   5.077   7.092  0.3775  1.0687 -0.1878
   77SLPC   H2R 6962   4.385   5.038   6.995 -1.8922  0.3834 -0.7895
   77SLPC   H2S 6963   4.434   5.055   7.159  2.1141  0.9793 -2.3771
   77SLPC    C3 6964   4.110   5.436   6.988 -0.2797 -0.2859  0.4724
   77SLPC    HX 6965   4.037   5.369   6.937  0.3517  1.0034 -2.1961
   77SLPC    HY 6966   4.079   5.534   6.947 -0.3532  0.2931  1.8918
   77SLPC   O31 6967   4.108   5.425   7.139 -0.3191  0.6558 -0.1472
   77SLPC   C31 6968   4.135   5.539   7.200 -0.4253  0.1603 -1.0227
   77SLPC   O32 6969   4.182   5.638   7.150 -0.1874 -0.0676  0.3436
   77SLPC   C32 6970   4.089   5.522   7.341 -0.0701  0.6816 -0.5465
   77SLPC   H2X 6971   4.056   5.419   7.365  0.3538  0.5487 -0.5273
   77SLPC   H2Y 6972   4.013   5.599   7.365  0.8066  1.4560 -0.2328
   77SLPC   C23 6973   4.216   5.002   7.113  0.2542  0.4816  0.0552
   77SLPC   H3R 6974   4.241   4.895   7.098  0.9185  0.2523  2.4839
   77SLPC   H3S 6975   4.145   5.031   7.033 -0.8364 -1.5290  0.2493
   77SLPC   C24 6976   4.139   5.033   7.250 -0.8203 -0.2358 -0.0284
   77SLPC   H4R 6977   4.062   4.956   7.270 -0.2258 -0.3943  1.7058
   77SLPC   H4S 6978   4.089   5.132   7.250 -0.0312  0.2248 -3.5458
   77SLPC   C25 6979   4.231   5.031   7.382  0.3857 -0.0020  0.2478
   77SLPC   H5R 6980   4.304   5.113   7.361  0.5018 -0.4583 -1.1260
   77SLPC   H5S 6981   4.298   4.943   7.372 -0.0186 -0.1614 -1.0129
   77SLPC   C26 6982   4.154   5.038   7.513  0.2049 -0.6138  0.6918
   77SLPC   H6R 6983   4.229   5.051   7.593 -0.4592 -0.2733  1.2620
   77SLPC   H6S 6984   4.108   4.939   7.537  0.9647 -1.2959 -0.5943
   77SLPC   C27 6985   4.064   5.161   7.522 -0.1016  0.3123 -0.1661
   77SLPC   H7R 6986   3.975   5.160   7.454  1.0282  0.0410 -1.6658
   77SLPC   H7S 6987   4.118   5.256   7.504  0.5414 -0.3222 -1.7253
   77SLPC   C28 6988   4.012   5.157   7.671  0.7595 -0.8108 -0.3315
   77SLPC   H8R 6989   4.102   5.150   7.735  0.3275 -0.0620  0.3777
   77SLPC   H8S 6990   3.954   5.062   7.675  0.3343 -0.6903 -2.6558
   77SLPC   C29 6991   3.920   5.275   7.709  0.8750 -0.1841 -0.2581
   77SLPC   H9R 6992   3.844   5.300   7.633  0.5972  0.9254  0.3709
   77SLPC  C210 6993   3.929   5.365   7.815  0.2835 -0.3401  0.3187
   77SLPC  H10R 6994   3.870   5.458   7.815  2.2487  0.9390  0.4276
   77SLPC  C211 6995   4.025   5.361   7.929  0.0314  0.7621  0.0579
   77SLPC  H11R 6996   4.021   5.461   7.977 -0.0333  0.5010  0.5963
   77SLPC  H11S 6997   4.129   5.349   7.891  0.3526  0.9949  0.8457
   77SLPC  C212 6998   4.002   5.256   8.029  0.8026  0.6597 -0.0548
   77SLPC  H12R 6999   3.895   5.233   8.035  0.7543 -0.5041 -3.7716
   77SLPC  C213 7000   4.097   5.197   8.103  0.2714  0.0758  1.1090
   77SLPC  H13R 7001   4.070   5.129   8.185  0.4056 -0.4400  0.7240
   77SLPC  C214 7002   4.243   5.236   8.097 -0.1499 -0.8096  0.7202
   77SLPC  H14R 7003   4.254   5.332   8.043 -0.6583  0.4451  2.8096
   77SLPC  H14S 7004   4.315   5.162   8.053  0.7289 -0.0765  0.9027
   77SLPC  C215 7005   4.311   5.268   8.233 -0.7733 -0.0275  0.1794
   77SLPC  H15R 7006   4.410   5.316   8.223 -0.5497  0.2670  3.4370
   77SLPC  H15S 7007   4.318   5.168   8.280 -0.4385  0.6828  1.6767
   77SLPC  C216 7008   4.216   5.367   8.312 -0.3761  0.3030  0.8566
   77SLPC  H16R 7009   4.120   5.315   8.328  0.3373 -1.0531  0.8118
   77SLPC  H16S 7010   4.209   5.460   8.251 -0.4649 -0.5240 -0.4239
   77SLPC  C217 7011   4.270   5.408   8.453 -0.4923  0.3217 -0.0178
   77SLPC  H17R 7012   4.270   5.316   8.515 -2.7805 -1.2808 -2.3170
   77SLPC  H17S 7013   4.189   5.476   8.489 -2.3809 -1.9861  0.2296
   77SLPC  C218 7014   4.414   5.457   8.459 -0.3164 -0.1291 -0.3274
   77SLPC  H18R 7015   4.478   5.390   8.397 -1.0996 -1.9094  0.7405
   77SLPC  H18S 7016   4.453   5.465   8.563  0.3646 -0.4078 -0.5570
   77SLPC  H18T 7017   4.435   5.557   8.416  2.4268 -0.1782  0.7692
   77SLPC   C33 7018   4.212   5.538   7.442  0.3110  0.5715  0.2211
   77SLPC   H3X 7019   4.301   5.483   7.406  0.0496  0.1735  0.1732
   77SLPC   H3Y 7020   4.186   5.483   7.536  0.5619  1.5399  0.8584
   77SLPC   C34 7021   4.249   5.684   7.482  0.8164  0.2547 -0.4730
   77SLPC   H4X 7022   4.216   5.747   7.397 -1.5919 -1.3958 -0.7843
   77SLPC   H4Y 7023   4.357   5.708   7.471  0.8816 -0.3305 -1.1366
   77SLPC   C35 7024   4.188   5.725   7.614  0.3631  0.2115  0.0231
   77SLPC   H5X 7025   4.084   5.687   7.616  0.3668  0.2550  1.5961
   77SLPC   H5Y 7026   4.180   5.835   7.632 -1.4978 -0.0184  0.6615
   77SLPC   C36 7027   4.272   5.673   7.729  0.4953 -0.1772 -0.0423
   77SLPC   H6X 7028   4.370   5.725   7.729  0.0783  0.6207 -1.0310
   77SLPC   H6Y 7029   4.278   5.564   7.709  0.1206 -0.1334 -0.3970
   77SLPC   C37 7030   4.193   5.688   7.860  0.5327 -0.3823  0.4931
   77SLPC   H7X 7031   4.100   5.628   7.847 -0.8633  1.4942  1.4812
   77SLPC   H7Y 7032   4.151   5.789   7.877  1.7968  0.3189 -0.4854
   77SLPC   C38 7033   4.280   5.656   7.983  0.5623  0.0436  0.7240
   77SLPC   H8X 7034   4.341   5.565   7.964 -0.4173 -0.6930  1.0730
   77SLPC   H8Y 7035   4.207   5.627   8.061 -1.7695 -0.5796 -1.6367
   77SLPC   C39 7036   4.361   5.776   8.025  0.0940 -0.0632  0.1098
   77SLPC   H9X 7037   4.304   5.871   8.020 -0.0026 -0.2333 -2.2336
   77SLPC   H9Y 7038   4.440   5.762   7.949 -0.3994 -4.4401  0.2456
   77SLPC  C310 7039   4.421   5.767   8.164  0.2299  0.4793  0.5760
   77SLPC  H10X 7040   4.469   5.667   8.162 -0.0397  0.3597  0.1230
   77SLPC  H10Y 7041   4.339   5.768   8.239  0.8606 -0.1057  1.2813
   77SLPC  C311 7042   4.527   5.873   8.197  0.2714 -0.4904 -0.1147
   77SLPC  H11X 7043   4.469   5.967   8.212  0.7083 -0.2473  0.0488
   77SLPC  H11Y 7044   4.596   5.878   8.110 -0.1268  0.7514 -0.3648
   77SLPC  C312 7045   4.613   5.852   8.320 -0.1403 -0.2645  0.2965
   77SLPC  H12X 7046   4.662   5.754   8.304  0.4607 -0.4863  3.1740
   77SLPC  H12Y 7047   4.540   5.839   8.404  0.9050  0.7027  1.3675
   77SLPC  C313 7048   4.711   5.963   8.348  0.4455  0.0062 -0.2508
   77SLPC  H13X 7049   4.681   6.063   8.311  1.5798  0.8670  1.0721
   77SLPC  H13Y 7050   4.804   5.944   8.290  0.1584  2.2123 -1.5226
   77SLPC  C314 7051   4.751   5.963   8.491  0.1407  0.9900 -0.5907
   77SLPC  H14X 7052   4.822   5.882   8.518 -0.2598  0.8040 -0.1025
   77SLPC  H14Y 7053   4.666   5.950   8.561  1.3282 -0.4145  0.6030
   77SLPC  C315 7054   4.841   6.090   8.520 -0.1630  0.2452  0.1056
   77SLPC  H15X 7055   4.778   6.174   8.555 -0.0850 -0.7365  2.7196
   77SLPC  H15Y 7056   4.898   6.114   8.428 -0.0843  0.7224  0.2755
   77SLPC  C316 7057   4.947   6.060   8.639 -0.2297 -0.2980  0.5553
   77SLPC  H16X 7058   4.897   5.992   8.711 -1.2804 -1.7540 -1.4857
   77SLPC  H16Y 7059   4.960   6.155   8.695 -1.9444  0.3823 -0.1857
   77SLPC  C317 7060   5.077   6.011   8.576  0.6785 -0.0146 -0.2407
   77SLPC  H17X 7061   5.124   6.096   8.523 -0.6708  0.4432 -0.7414
   77SLPC  H17Y 7062   5.044   5.923   8.517 -0.0924 -0.2747  0.5587
   77SLPC  C318 7063   5.182   5.955   8.674 -0.2199 -0.1100 -0.5151
   77SLPC  H18X 7064   5.131   5.878   8.736 -0.2432 -2.1525 -2.9812
   77SLPC  H18Y 7065   5.230   6.027   8.744 -1.2334  3.0484 -2.9635
   77SLPC  H18Z 7066   5.254   5.900   8.610 -1.8495 -0.6159 -1.9478
   78SLPC     N 7067   5.869   5.420   6.297  0.7200  0.2580 -0.1006
   78SLPC   C13 7068   5.871   5.281   6.354  0.5646  0.2934 -0.1388
   78SLPC  H13A 7069   5.971   5.255   6.386  0.4595  1.1063  0.8362
   78SLPC  H13B 7070   5.808   5.278   6.441 -0.0831 -0.6200 -0.6334
   78SLPC  H13C 7071   5.832   5.207   6.285 -1.9996  0.3405  1.2318
   78SLPC   C14 7072   5.896   5.519   6.412 -0.0930 -0.1806  0.1742
   78SLPC  H14A 7073   5.857   5.617   6.389 -1.4192 -0.4075  1.3684
   78SLPC  H14B 7074   5.838   5.484   6.496  1.6417 -0.2184  1.3863
   78SLPC  H14C 7075   6.001   5.530   6.432 -0.0588 -0.9005  0.3966
   78SLPC   C15 7076   5.725   5.438   6.242 -0.4062 -0.2456 -0.5251
   78SLPC  H15A 7077   5.652   5.416   6.319  1.6181  0.7506  1.7351
   78SLPC  H15B 7078   5.701   5.539   6.215 -0.1703  0.2362  1.0460
   78SLPC  H15C 7079   5.708   5.358   6.171  1.4492  1.5103 -3.0120
   78SLPC   C12 7080   5.966   5.440   6.184  0.5078  0.5613 -0.0561
   78SLPC  H12A 7081   5.954   5.540   6.146  1.1662 -0.1355 -2.1205
   78SLPC  H12B 7082   5.951   5.368   6.105 -0.5934 -0.2560  0.8800
   78SLPC   C11 7083   6.118   5.428   6.229 -0.0774 -0.0551 -0.5162
   78SLPC  H11A 7084   6.168   5.398   6.135 -1.6036 -0.5984 -1.1815
   78SLPC  H11B 7085   6.123   5.340   6.297  1.0062 -0.7717 -1.5130
   78SLPC     P 7086   6.320   5.562   6.309  0.0141  0.5491 -0.3999
   78SLPC   O13 7087   6.375   5.433   6.349  0.0322 -0.2675  0.9665
   78SLPC   O14 7088   6.375   5.620   6.187  0.1835 -0.6281 -0.2522
   78SLPC   O12 7089   6.164   5.553   6.292  0.0613 -0.6000  0.6329
   78SLPC   O11 7090   6.345   5.660   6.430 -0.5894  0.5874 -0.1997
   78SLPC    C1 7091   6.256   5.695   6.528 -0.1532  0.6548 -0.5871
   78SLPC    HA 7092   6.279   5.798   6.561  1.1698  0.3235 -0.4395
   78SLPC    HB 7093   6.154   5.684   6.484  0.1198  0.0621 -1.0884
   78SLPC    C2 7094   6.276   5.623   6.665 -0.3597  0.1513  0.7705
   78SLPC    HS 7095   6.251   5.702   6.740 -0.6689 -0.0233  0.8511
   78SLPC   O21 7096   6.411   5.576   6.687 -0.2399  0.0916 -0.4040
   78SLPC   C21 7097   6.505   5.670   6.697  0.3284  1.6124 -0.5387
   78SLPC   O22 7098   6.493   5.788   6.701  0.4775  0.8721  0.0766
   78SLPC   C22 7099   6.636   5.594   6.708 -0.0936 -0.3418  0.1616
   78SLPC   H2R 7100   6.615   5.485   6.712  0.9749 -0.7210 -3.2359
   78SLPC   H2S 7101   6.702   5.617   6.622 -0.9062  2.1730  0.1865
   78SLPC    C3 7102   6.175   5.511   6.684 -0.3829 -0.1929  0.0147
   78SLPC    HX 7103   6.208   5.427   6.620  2.7122  0.4024  0.7650
   78SLPC    HY 7104   6.079   5.547   6.640 -1.3989 -3.7061 -0.8268
   78SLPC   O31 7105   6.161   5.463   6.824 -0.1546 -0.2157  0.2796
   78SLPC   C31 7106   6.130   5.565   6.904 -0.0248  0.3701 -0.4531
   78SLPC   O32 7107   6.074   5.667   6.869  0.1113  0.3711  0.8298
   78SLPC   C32 7108   6.146   5.521   7.046  0.3622 -0.0492 -0.3476
   78SLPC   H2X 7109   6.242   5.467   7.059  0.8608  0.5295 -1.5381
   78SLPC   H2Y 7110   6.074   5.439   7.065  1.2012 -1.0685 -1.5111
   78SLPC   C23 7111   6.706   5.655   6.833  0.0350 -0.3359  0.4497
   78SLPC   H3R 7112   6.705   5.766   6.830  2.8311 -0.2985 -3.6521
   78SLPC   H3S 7113   6.810   5.618   6.820  0.3083  0.1656  1.1552
   78SLPC   C24 7114   6.641   5.617   6.964 -0.3282 -0.8767 -0.7550
   78SLPC   H4R 7115   6.629   5.508   6.981 -2.3414 -0.2108  2.5068
   78SLPC   H4S 7116   6.532   5.640   6.959 -0.3448  0.1188  2.7018
   78SLPC   C25 7117   6.719   5.669   7.086  0.6458  0.0533 -0.0012
   78SLPC   H5R 7118   6.737   5.777   7.070 -0.0042  0.2955  0.8716
   78SLPC   H5S 7119   6.820   5.622   7.082 -0.6816 -2.8662 -0.7679
   78SLPC   C26 7120   6.650   5.644   7.219  0.2653  0.7128  0.1227
   78SLPC   H6R 7121   6.641   5.534   7.234 -1.8347  0.8366 -0.0034
   78SLPC   H6S 7122   6.547   5.686   7.210 -0.3467 -0.6832  0.4897
   78SLPC   C27 7123   6.714   5.730   7.324  0.2937 -0.2754 -0.0155
   78SLPC   H7R 7124   6.676   5.834   7.316  1.9530  0.1565 -3.3716
   78SLPC   H7S 7125   6.823   5.727   7.300  0.2843 -1.8720  0.0904
   78SLPC   C28 7126   6.699   5.671   7.467  0.2429  0.1107  0.1643
   78SLPC   H8R 7127   6.750   5.742   7.535  0.8557 -1.3637  1.2921
   78SLPC   H8S 7128   6.757   5.575   7.469  0.0520 -0.0538 -1.6385
   78SLPC   C29 7129   6.559   5.647   7.499 -0.3983 -0.7155 -0.6563
   78SLPC   H9R 7130   6.488   5.706   7.440  0.7969  1.3652 -0.0779
   78SLPC  C210 7131   6.522   5.564   7.597  0.0441  0.3893  0.8492
   78SLPC  H10R 7132   6.415   5.549   7.614 -0.0347  1.9801  1.8189
   78SLPC  C211 7133   6.602   5.469   7.691 -0.2866  0.2058 -0.3463
   78SLPC  H11R 7134   6.710   5.487   7.674  0.0690 -1.5486 -0.0948
   78SLPC  H11S 7135   6.574   5.364   7.667  3.8395 -0.6882 -1.6245
   78SLPC  C212 7136   6.555   5.503   7.833 -0.7952 -0.0557  0.1780
   78SLPC  H12R 7137   6.481   5.584   7.845 -2.1709 -0.9832 -1.7778
   78SLPC  C213 7138   6.605   5.448   7.947 -0.3967  0.8636  0.1978
   78SLPC  H13R 7139   6.570   5.491   8.042  0.4996  1.3495  0.3045
   78SLPC  C214 7140   6.716   5.354   7.967  0.2504  0.6075 -0.2046
   78SLPC  H14R 7141   6.790   5.408   8.030  1.9151  1.5437 -2.8959
   78SLPC  H14S 7142   6.765   5.347   7.868  0.4377  0.0812 -0.0709
   78SLPC  C215 7143   6.669   5.227   8.030  0.2354 -0.4241  0.6833
   78SLPC  H15R 7144   6.630   5.241   8.133  1.1328 -1.2639  1.1402
   78SLPC  H15S 7145   6.759   5.167   8.054  0.9681  0.7386  0.9231
   78SLPC  C216 7146   6.577   5.133   7.948  0.1577  0.2816  0.6708
   78SLPC  H16R 7147   6.617   5.036   7.983 -0.9616  0.1599  1.6549
   78SLPC  H16S 7148   6.584   5.141   7.837 -3.8463 -2.3257  0.0915
   78SLPC  C217 7149   6.432   5.139   7.998 -1.1667  0.2836 -0.3433
   78SLPC  H17R 7150   6.372   5.208   7.936  0.5568  0.0815 -2.3069
   78SLPC  H17S 7151   6.434   5.175   8.103  0.9443 -1.4026  0.2306
   78SLPC  C218 7152   6.384   4.985   7.996  0.3655 -1.0713  0.1303
   78SLPC  H18R 7153   6.422   4.930   8.085 -0.9718  0.2926  1.5839
   78SLPC  H18S 7154   6.429   4.934   7.909  0.3373 -1.1970  0.1901
   78SLPC  H18T 7155   6.274   4.971   7.987  0.3916  0.5884 -3.5257
   78SLPC   C33 7156   6.152   5.634   7.149  0.0208  0.7156 -0.1112
   78SLPC   H3X 7157   6.069   5.703   7.123  0.0652  0.9539  0.3721
   78SLPC   H3Y 7158   6.251   5.683   7.138  0.6658 -0.5582 -0.1422
   78SLPC   C34 7159   6.126   5.598   7.301  0.4046  0.7691  0.8802
   78SLPC   H4X 7160   6.197   5.521   7.339 -1.4970 -1.9150 -0.8653
   78SLPC   H4Y 7161   6.030   5.542   7.298  1.4507 -1.0628  0.7649
   78SLPC   C35 7162   6.128   5.718   7.396  0.2181 -0.3129  0.3254
   78SLPC   H5X 7163   6.035   5.776   7.382  0.1169 -0.0757  1.9112
   78SLPC   H5Y 7164   6.222   5.776   7.381  0.7063 -0.6909  1.8110
   78SLPC   C36 7165   6.127   5.672   7.542 -0.3631 -0.5048 -0.7021
   78SLPC   H6X 7166   6.227   5.660   7.588 -0.4250 -1.7659 -0.8847
   78SLPC   H6Y 7167   6.090   5.568   7.551 -1.5399 -0.0420 -0.0559
   78SLPC   C37 7168   6.034   5.760   7.629 -0.1534 -0.2835 -0.1669
   78SLPC   H7X 7169   5.936   5.764   7.577  0.8724 -0.2580 -2.1606
   78SLPC   H7Y 7170   6.056   5.869   7.629  0.2415 -0.3147  2.9210
   78SLPC   C38 7171   6.026   5.718   7.777 -0.6566  0.2683 -0.6897
   78SLPC   H8X 7172   5.956   5.778   7.838  2.0513  0.3071  2.5436
   78SLPC   H8Y 7173   6.127   5.742   7.817 -0.0785 -0.3792 -1.7334
   78SLPC   C39 7174   6.025   5.566   7.792  0.0258 -0.2222  0.0230
   78SLPC   H9X 7175   6.123   5.535   7.750 -0.2204  1.9828 -2.2893
   78SLPC   H9Y 7176   5.957   5.506   7.730  2.7177 -2.0758 -1.2386
   78SLPC  C310 7177   6.019   5.535   7.942  0.2881 -0.1605 -1.0574
   78SLPC  H10X 7178   5.917   5.564   7.975  0.9817  0.0057  1.0116
   78SLPC  H10Y 7179   6.098   5.598   7.988  0.9458 -1.3869 -0.4974
   78SLPC  C311 7180   6.029   5.383   7.971 -0.2252  0.9154  0.6243
   78SLPC  H11X 7181   6.126   5.344   7.933  0.2659  0.6777  2.0931
   78SLPC  H11Y 7182   5.955   5.319   7.919  1.7036 -0.2211 -0.7643
   78SLPC  C312 7183   6.028   5.353   8.124 -0.2083 -0.1955 -0.7906
   78SLPC  H12X 7184   5.963   5.265   8.143  1.7361 -1.5554 -0.2792
   78SLPC  H12Y 7185   5.987   5.432   8.190  0.6361 -1.6263  1.5122
   78SLPC  C313 7186   6.167   5.335   8.193 -0.0914  0.1545 -0.0520
   78SLPC  H13X 7187   6.224   5.251   8.147  0.2816  0.2485  0.2372
   78SLPC  H13Y 7188   6.162   5.293   8.296 -2.9813  0.3161 -0.1029
   78SLPC  C314 7189   6.241   5.470   8.188 -0.4991 -0.4622  0.2878
   78SLPC  H14X 7190   6.176   5.549   8.230  1.0683  1.2669 -0.4561
   78SLPC  H14Y 7191   6.264   5.502   8.084 -3.9290  1.5576  0.1092
   78SLPC  C315 7192   6.373   5.466   8.268  0.5682 -0.8343  0.6013
   78SLPC  H15X 7193   6.444   5.398   8.215 -0.6874 -0.4832 -1.6157
   78SLPC  H15Y 7194   6.342   5.426   8.367 -1.8087  2.9141  1.4796
   78SLPC  C316 7195   6.444   5.601   8.288  0.0957  0.9436 -0.5154
   78SLPC  H16X 7196   6.375   5.687   8.296 -1.5424 -0.4769  1.2979
   78SLPC  H16Y 7197   6.487   5.635   8.191 -0.7507  3.0535 -0.1661
   78SLPC  C317 7198   6.563   5.605   8.392  0.7802  0.3306  0.1685
   78SLPC  H17X 7199   6.630   5.691   8.372  1.5085 -0.4873 -0.9676
   78SLPC  H17Y 7200   6.606   5.509   8.357 -0.7631 -0.3491  0.0930
   78SLPC  C318 7201   6.523   5.600   8.541  0.4964 -0.1793 -0.4135
   78SLPC  H18X 7202   6.460   5.511   8.564 -0.0276 -0.0037 -1.1637
   78SLPC  H18Y 7203   6.458   5.687   8.562  0.1666 -0.3185 -0.8377
   78SLPC  H18Z 7204   6.608   5.601   8.613  0.2041 -0.4917 -0.0599
   79SLPC     N 7205   3.127   1.989   6.178  0.2847 -0.2402 -0.2177
   79SLPC   C13 7206   3.215   1.892   6.120  0.4235  0.3451 -0.8831
   79SLPC  H13A 7207   3.318   1.912   6.144  1.5811 -0.5693 -4.8589
   79SLPC  H13B 7208   3.188   1.794   6.156  0.2360  1.0892  1.0738
   79SLPC  H13C 7209   3.211   1.882   6.013 -1.0335  2.2060 -1.0371
   79SLPC   C14 7210   2.993   1.928   6.173 -1.1703  0.1186 -0.0139
   79SLPC  H14A 7211   2.974   1.896   6.072  2.5671  0.1683 -0.7792
   79SLPC  H14B 7212   2.979   1.843   6.239 -1.5440 -1.2892 -1.8533
   79SLPC  H14C 7213   2.917   2.005   6.183 -0.4547  1.0444 -1.5726
   79SLPC   C15 7214   3.141   2.107   6.096  0.1454  0.1545  0.1458
   79SLPC  H15A 7215   3.081   2.101   6.006  0.5574  0.3569 -0.1428
   79SLPC  H15B 7216   3.107   2.198   6.146  1.1350  1.4632 -1.5217
   79SLPC  H15C 7217   3.243   2.116   6.063 -0.5037 -0.6914 -2.2100
   79SLPC   C12 7218   3.168   2.010   6.326  0.2261 -0.5270 -0.0119
   79SLPC  H12A 7219   3.158   1.915   6.375 -0.1599  0.6527  2.3057
   79SLPC  H12B 7220   3.100   2.085   6.364 -0.0654  0.1376 -1.7894
   79SLPC   C11 7221   3.317   2.055   6.348  0.7611 -0.8424 -0.3317
   79SLPC  H11A 7222   3.330   2.094   6.451 -1.0550 -1.5441  0.1902
   79SLPC  H11B 7223   3.335   2.148   6.291  1.4853  1.8943  4.0711
   79SLPC     P 7224   3.434   1.837   6.405  0.2527 -0.0947  0.1734
   79SLPC   O13 7225   3.462   1.718   6.328  0.2013  0.1022  0.2155
   79SLPC   O14 7226   3.535   1.880   6.500  0.0211 -0.2421 -0.3479
   79SLPC   O12 7227   3.405   1.954   6.306 -0.1174 -0.3624 -0.3487
   79SLPC   O11 7228   3.297   1.821   6.473  0.2432 -0.3533 -0.2369
   79SLPC    C1 7229   3.242   1.707   6.548 -0.1069 -1.2876  0.3083
   79SLPC    HA 7230   3.132   1.707   6.531  0.0031  0.7321 -0.5492
   79SLPC    HB 7231   3.286   1.609   6.520  2.8085  0.2439 -0.6414
   79SLPC    C2 7232   3.265   1.730   6.701  0.5817  0.0937 -0.2191
   79SLPC    HS 7233   3.210   1.822   6.730 -1.1493 -0.6417 -1.0582
   79SLPC   O21 7234   3.400   1.757   6.727 -0.1688  0.4267  0.0492
   79SLPC   C21 7235   3.433   1.856   6.802 -0.0490 -0.1225 -1.0251
   79SLPC   O22 7236   3.352   1.929   6.864 -0.4438 -0.1016  0.2093
   79SLPC   C22 7237   3.586   1.873   6.812  0.1569 -0.8852 -0.6810
   79SLPC   H2R 7238   3.632   1.825   6.723 -0.1410 -0.5937 -0.9884
   79SLPC   H2S 7239   3.606   1.982   6.803 -0.0266 -0.9369 -1.7868
   79SLPC    C3 7240   3.206   1.617   6.795  0.1790 -0.5897 -0.2036
   79SLPC    HX 7241   3.243   1.518   6.761  1.6999 -0.8052  1.9125
   79SLPC    HY 7242   3.096   1.612   6.782  0.0604  2.8499 -0.9580
   79SLPC   O31 7243   3.235   1.640   6.931  0.2045  0.1155 -0.6235
   79SLPC   C31 7244   3.203   1.537   7.010 -0.5863  0.6607 -0.5361
   79SLPC   O32 7245   3.141   1.439   6.982  0.5138  0.3856 -0.3798
   79SLPC   C32 7246   3.249   1.562   7.152 -0.0060  0.1083  0.1277
   79SLPC   H2X 7247   3.228   1.669   7.172  1.7112  0.7793 -1.5246
   79SLPC   H2Y 7248   3.358   1.541   7.152  0.1988  1.1028 -1.0353
   79SLPC   C23 7249   3.659   1.808   6.933 -0.1928 -0.3296 -0.2396
   79SLPC   H3R 7250   3.760   1.852   6.945  0.6208 -1.9172 -1.2318
   79SLPC   H3S 7251   3.685   1.703   6.909 -1.2848 -0.0764 -2.6491
   79SLPC   C24 7252   3.583   1.828   7.072  0.2524 -0.0208  0.0768
   79SLPC   H4R 7253   3.487   1.771   7.071  0.9112 -1.1850 -4.3805
   79SLPC   H4S 7254   3.554   1.935   7.080 -1.5346 -0.5199  0.4726
   79SLPC   C25 7255   3.666   1.786   7.194  0.0112 -0.3183  0.4056
   79SLPC   H5R 7256   3.736   1.867   7.221  0.3046 -0.1280 -0.8811
   79SLPC   H5S 7257   3.726   1.697   7.164  1.6378  1.7062 -2.5789
   79SLPC   C26 7258   3.591   1.755   7.322 -0.9674  0.3877 -0.3843
   79SLPC   H6R 7259   3.537   1.661   7.298  0.4821 -0.6946  0.4975
   79SLPC   H6S 7260   3.517   1.835   7.345 -1.4029  0.6230 -2.4756
   79SLPC   C27 7261   3.671   1.735   7.443  0.4529  0.0971 -0.3822
   79SLPC   H7R 7262   3.724   1.832   7.453 -2.6315  1.6254  1.9687
   79SLPC   H7S 7263   3.744   1.652   7.434  0.7677  0.3453 -0.1357
   79SLPC   C28 7264   3.590   1.702   7.563  0.7974  0.2892  0.3031
   79SLPC   H8R 7265   3.524   1.616   7.540 -0.4862  1.7687 -1.8031
   79SLPC   H8S 7266   3.524   1.788   7.589  1.3205  1.4459 -2.0935
   79SLPC   C29 7267   3.676   1.674   7.688  0.0969  0.2930 -0.1244
   79SLPC   H9R 7268   3.758   1.605   7.663 -0.0459  0.2114 -0.3762
   79SLPC  C210 7269   3.650   1.709   7.815  0.7380 -0.1247  0.5601
   79SLPC  H10R 7270   3.734   1.694   7.885  2.3498  3.2100 -0.5655
   79SLPC  C211 7271   3.532   1.784   7.873 -0.0535  1.0574  0.8882
   79SLPC  H11R 7272   3.483   1.845   7.795 -0.3177 -0.5364 -0.2147
   79SLPC  H11S 7273   3.567   1.860   7.946 -0.9317  0.4075  1.9908
   79SLPC  C212 7274   3.418   1.698   7.917 -0.3216 -0.0705 -0.5991
   79SLPC  H12R 7275   3.349   1.657   7.841  0.4848 -2.6420 -0.0225
   79SLPC  C213 7276   3.400   1.658   8.045  0.2385 -0.0712 -0.2090
   79SLPC  H13R 7277   3.316   1.594   8.075  0.7045  0.9036  3.4215
   79SLPC  C214 7278   3.493   1.686   8.165  0.5395  0.1502  0.4693
   79SLPC  H14R 7279   3.573   1.762   8.149 -1.8752  2.8493  0.7292
   79SLPC  H14S 7280   3.549   1.592   8.180  0.9084  0.5562  1.7303
   79SLPC  C215 7281   3.412   1.721   8.284  0.3129 -0.3581 -0.2818
   79SLPC  H15R 7282   3.487   1.716   8.366 -1.9445  2.6705  2.0991
   79SLPC  H15S 7283   3.343   1.635   8.302  0.5471 -0.6556 -0.8141
   79SLPC  C216 7284   3.349   1.860   8.291  0.2601 -0.3815  0.2842
   79SLPC  H16R 7285   3.315   1.879   8.395 -0.8449  0.0568 -0.1466
   79SLPC  H16S 7286   3.249   1.867   8.242 -0.2537 -1.8919  1.0679
   79SLPC  C217 7287   3.441   1.980   8.252  0.3387 -0.4125 -0.3564
   79SLPC  H17R 7288   3.449   1.981   8.141 -2.0999 -1.8401 -0.5862
   79SLPC  H17S 7289   3.547   1.983   8.283 -0.0903  0.8161  1.0367
   79SLPC  C218 7290   3.371   2.107   8.296  0.9347 -0.0952 -0.5226
   79SLPC  H18R 7291   3.262   2.104   8.275  0.6790  0.0630  0.7468
   79SLPC  H18S 7292   3.402   2.204   8.250 -0.2470  0.2420 -0.6262
   79SLPC  H18T 7293   3.381   2.123   8.405  0.6140 -2.4426 -0.1227
   79SLPC   C33 7294   3.177   1.472   7.251  0.0316  0.1927  0.0184
   79SLPC   H3X 7295   3.199   1.363   7.238 -3.9662 -0.6988  0.2791
   79SLPC   H3Y 7296   3.066   1.476   7.247 -0.0556 -1.9619 -0.6949
   79SLPC   C34 7297   3.216   1.511   7.397  0.1130 -0.0638  0.4555
   79SLPC   H4X 7298   3.186   1.618   7.405 -1.8026 -0.4172 -1.3506
   79SLPC   H4Y 7299   3.325   1.500   7.415  0.5504  1.7629 -0.9548
   79SLPC   C35 7300   3.136   1.433   7.504 -0.2477 -0.7072 -0.3013
   79SLPC   H5X 7301   3.166   1.326   7.505  0.5707 -0.4881 -0.7694
   79SLPC   H5Y 7302   3.029   1.461   7.498 -0.4963 -1.7050 -0.5385
   79SLPC   C36 7303   3.174   1.474   7.650 -0.1050 -0.4825 -0.2259
   79SLPC   H6X 7304   3.152   1.580   7.675  0.8988 -0.8281  2.1728
   79SLPC   H6Y 7305   3.283   1.461   7.664  0.0117 -0.6658 -1.2408
   79SLPC   C37 7306   3.063   1.400   7.736  0.0052  0.2839 -1.2140
   79SLPC   H7X 7307   3.050   1.296   7.701 -0.1348 -0.6868  1.5611
   79SLPC   H7Y 7308   2.966   1.454   7.731 -0.0429  0.2094 -1.0912
   79SLPC   C38 7309   3.097   1.381   7.888  0.1721  0.3477 -0.2203
   79SLPC   H8X 7310   3.134   1.473   7.939  0.1158  0.6458 -0.7240
   79SLPC   H8Y 7311   3.188   1.318   7.896 -0.4502 -0.5566 -0.2221
   79SLPC   C39 7312   2.981   1.321   7.972  0.1474 -0.3054 -0.8147
   79SLPC   H9X 7313   2.980   1.212   7.955  0.7499 -0.2732 -1.0750
   79SLPC   H9Y 7314   2.887   1.368   7.935 -0.0430  0.9410  1.1617
   79SLPC  C310 7315   2.994   1.346   8.126  0.2471 -0.0896 -0.6282
   79SLPC  H10X 7316   2.898   1.315   8.171  0.9027 -1.0620  0.1093
   79SLPC  H10Y 7317   3.012   1.453   8.151 -1.1304  0.7386 -3.0878
   79SLPC  C311 7318   3.096   1.260   8.199 -0.0250 -0.3439  0.3092
   79SLPC  H11X 7319   3.193   1.253   8.144 -0.7346  0.0937 -1.0258
   79SLPC  H11Y 7320   3.043   1.163   8.198 -0.0291 -0.3453 -2.3297
   79SLPC  C312 7321   3.121   1.301   8.350 -0.7255 -0.0250 -0.0284
   79SLPC  H12X 7322   3.130   1.205   8.406  1.7066  0.1834  0.0167
   79SLPC  H12Y 7323   3.031   1.357   8.384 -0.3278  1.0195 -0.6626
   79SLPC  C313 7324   3.252   1.369   8.363  0.7145  0.5824  0.0411
   79SLPC  H13X 7325   3.243   1.466   8.309  0.0326  0.5427  0.0814
   79SLPC  H13Y 7326   3.325   1.307   8.306 -0.8247 -0.0238 -1.3188
   79SLPC  C314 7327   3.308   1.395   8.506  0.6710  0.0614 -0.5261
   79SLPC  H14X 7328   3.288   1.301   8.563  1.3820 -0.7192 -1.5547
   79SLPC  H14Y 7329   3.252   1.481   8.549  2.0106  0.2504  0.8732
   79SLPC  C315 7330   3.455   1.430   8.524  0.1459 -0.0357  0.1931
   79SLPC  H15X 7331   3.477   1.528   8.478 -1.7374  0.6370  0.6814
   79SLPC  H15Y 7332   3.503   1.342   8.474 -3.3183 -1.0042 -1.6187
   79SLPC  C316 7333   3.503   1.434   8.671 -0.0594  0.1784  0.0761
   79SLPC  H16X 7334   3.611   1.460   8.672 -0.0240  0.0319 -0.0295
   79SLPC  H16Y 7335   3.492   1.332   8.714 -1.0117  1.0348  1.9096
   79SLPC  C317 7336   3.443   1.542   8.767 -0.2559 -0.3553  0.3261
   79SLPC  H17X 7337   3.339   1.523   8.800 -0.3596  0.9332  0.7648
   79SLPC  H17Y 7338   3.449   1.632   8.702 -0.0297  0.5583  1.5750
   79SLPC  C318 7339   3.528   1.573   8.899 -0.1671  0.2144  0.0049
   79SLPC  H18X 7340   3.569   1.484   8.951  0.8285  0.7969  0.2357
   79SLPC  H18Y 7341   3.466   1.637   8.964 -0.4403  0.9483 -0.9596
   79SLPC  H18Z 7342   3.620   1.627   8.868  0.7190 -2.1158 -1.6620
   80SLPC     N 7343   4.287   6.092   6.384  0.1537 -0.3873 -0.1724
   80SLPC   C13 7344   4.278   6.116   6.235  0.2526  0.4964 -0.2462
   80SLPC  H13A 7345   4.175   6.102   6.209 -0.6321 -0.5903  3.4657
   80SLPC  H13B 7346   4.329   6.204   6.199  1.1162 -1.3702 -3.7568
   80SLPC  H13C 7347   4.333   6.042   6.180  0.2978  0.8292 -0.6493
   80SLPC   C14 7348   4.248   5.961   6.431  1.0411  0.4995  1.0764
   80SLPC  H14A 7349   4.311   5.881   6.394 -0.4895  0.1781 -0.9284
   80SLPC  H14B 7350   4.253   5.965   6.539 -0.8188 -0.2561  1.2123
   80SLPC  H14C 7351   4.149   5.931   6.399  1.3289 -0.5126  1.1190
   80SLPC   C15 7352   4.187   6.180   6.448 -0.8034 -0.5419 -0.9763
   80SLPC  H15A 7353   4.090   6.163   6.403 -1.3373 -0.3470  0.0928
   80SLPC  H15B 7354   4.174   6.155   6.552 -1.6250  1.5555 -0.5599
   80SLPC  H15C 7355   4.212   6.285   6.441 -1.9707 -0.0661  1.4419
   80SLPC   C12 7356   4.427   6.115   6.432  0.1909  0.3090  0.8298
   80SLPC  H12A 7357   4.436   6.069   6.529  0.5550 -1.7089 -0.1506
   80SLPC  H12B 7358   4.435   6.218   6.464 -0.3883 -0.0071  2.0300
   80SLPC   C11 7359   4.547   6.074   6.342  0.1218 -0.2478  0.3181
   80SLPC  H11A 7360   4.641   6.080   6.402  0.7611  0.5037 -0.7234
   80SLPC  H11B 7361   4.554   6.141   6.254  1.7534  0.5298  1.0201
   80SLPC     P 7362   4.641   5.860   6.215  0.3224  0.0157 -0.0144
   80SLPC   O13 7363   4.587   5.717   6.187 -0.6464  0.0352  0.0679
   80SLPC   O14 7364   4.687   5.933   6.100  0.0615 -0.1492  0.5917
   80SLPC   O12 7365   4.534   5.941   6.296  0.9717  0.3164 -0.0230
   80SLPC   O11 7366   4.758   5.861   6.325  0.3301 -0.1898 -0.0992
   80SLPC    C1 7367   4.759   5.762   6.430 -0.0308 -0.0411  0.2951
   80SLPC    HA 7368   4.729   5.664   6.389 -1.6673  0.7267 -0.3907
   80SLPC    HB 7369   4.864   5.737   6.456  0.5685  1.3502 -0.7156
   80SLPC    C2 7370   4.672   5.794   6.556  0.0067  0.0135  0.3395
   80SLPC    HS 7371   4.566   5.779   6.526 -0.1661 -0.1868  1.0485
   80SLPC   O21 7372   4.715   5.925   6.594 -0.3164  0.1269  0.3507
   80SLPC   C21 7373   4.675   5.984   6.704  0.0192 -0.0757  0.6694
   80SLPC   O22 7374   4.586   5.941   6.775 -0.0664 -0.6162  0.0720
   80SLPC   C22 7375   4.767   6.106   6.728 -0.1039 -0.9163 -0.6459
   80SLPC   H2R 7376   4.872   6.069   6.726  0.8557  1.6987  0.2731
   80SLPC   H2S 7377   4.748   6.177   6.645 -0.7997 -0.0936  0.2231
   80SLPC    C3 7378   4.716   5.692   6.675 -0.5981  0.9364  0.2686
   80SLPC    HX 7379   4.676   5.596   6.635  0.7501  0.2950  0.4451
   80SLPC    HY 7380   4.661   5.710   6.770  0.6196 -0.4304  1.2459
   80SLPC   O31 7381   4.861   5.684   6.684 -0.5020  0.6050 -0.1604
   80SLPC   C31 7382   4.912   5.736   6.792 -0.8640 -0.0112 -0.5521
   80SLPC   O32 7383   4.852   5.762   6.892 -0.1182 -0.2434  0.3931
   80SLPC   C32 7384   5.052   5.756   6.778 -0.4481 -0.4686 -0.0517
   80SLPC   H2X 7385   5.080   5.817   6.689 -0.4834  2.6264  1.9988
   80SLPC   H2Y 7386   5.093   5.653   6.770  0.2960 -0.3832  2.3862
   80SLPC   C23 7387   4.754   6.173   6.868 -0.0093  0.0614 -0.9798
   80SLPC   H3R 7388   4.778   6.095   6.943  0.8755  0.4410 -0.8575
   80SLPC   H3S 7389   4.644   6.183   6.880  0.3794  1.0917  2.3415
   80SLPC   C24 7390   4.815   6.318   6.880  0.0238  0.1744 -0.2017
   80SLPC   H4R 7391   4.748   6.391   6.830  0.8503  1.6007  0.7225
   80SLPC   H4S 7392   4.910   6.314   6.823 -0.8882  0.4861 -1.7569
   80SLPC   C25 7393   4.822   6.366   7.022 -0.3439  0.8074  0.0947
   80SLPC   H5R 7394   4.863   6.469   7.028  0.5309  0.5917 -1.9395
   80SLPC   H5S 7395   4.892   6.306   7.084 -1.2566 -1.2710 -0.8233
   80SLPC   C26 7396   4.689   6.365   7.105  0.1115 -0.2502 -0.0249
   80SLPC   H6R 7397   4.642   6.265   7.112  1.1026 -0.8589 -1.6785
   80SLPC   H6S 7398   4.606   6.426   7.062 -1.0739 -1.2494  0.8327
   80SLPC   C27 7399   4.713   6.418   7.241 -0.1566  0.1544 -0.3295
   80SLPC   H7R 7400   4.720   6.529   7.237  0.1838  0.1724  0.6604
   80SLPC   H7S 7401   4.815   6.400   7.281  0.2614  1.9241 -0.5605
   80SLPC   C28 7402   4.610   6.370   7.340 -0.1392  0.4308  0.3817
   80SLPC   H8R 7403   4.646   6.387   7.444  0.6475 -0.7003  0.2975
   80SLPC   H8S 7404   4.612   6.259   7.331  3.3636  0.6141 -2.2600
   80SLPC   C29 7405   4.463   6.412   7.328  0.4127 -0.3830 -0.8142
   80SLPC   H9R 7406   4.416   6.399   7.229  0.5338  1.1732 -1.0865
   80SLPC  C210 7407   4.392   6.473   7.420  0.1892  0.3316 -0.6804
   80SLPC  H10R 7408   4.289   6.498   7.392 -0.7630 -2.0304  0.5120
   80SLPC  C211 7409   4.441   6.513   7.554 -0.5566 -0.0961 -0.1925
   80SLPC  H11R 7410   4.541   6.474   7.579 -1.6350 -1.7921  1.6023
   80SLPC  H11S 7411   4.380   6.459   7.630  0.8325 -1.3485  0.0425
   80SLPC  C212 7412   4.447   6.665   7.547 -0.4920 -0.2354 -0.2323
   80SLPC  H12R 7413   4.524   6.718   7.490  0.2954 -3.8425 -2.7171
   80SLPC  C213 7414   4.355   6.743   7.613  0.3379  0.1877 -0.4040
   80SLPC  H13R 7415   4.357   6.853   7.609  1.9047  0.2364  1.3485
   80SLPC  C214 7416   4.242   6.693   7.699 -0.0081 -0.6749 -0.2761
   80SLPC  H14R 7417   4.236   6.583   7.692 -0.5203 -0.7208  0.7710
   80SLPC  H14S 7418   4.153   6.751   7.667  1.2905 -0.0119 -2.8521
   80SLPC  C215 7419   4.258   6.736   7.841  0.0343  0.3155 -0.1190
   80SLPC  H15R 7420   4.158   6.716   7.886 -0.7072 -2.3477 -2.7935
   80SLPC  H15S 7421   4.280   6.844   7.851  1.1507  0.1292 -0.5460
   80SLPC  C216 7422   4.355   6.647   7.920 -0.2293  0.0651  0.6732
   80SLPC  H16R 7423   4.457   6.674   7.885 -1.2942  2.0488 -0.9436
   80SLPC  H16S 7424   4.345   6.538   7.902 -0.6368  0.0369  1.0468
   80SLPC  C217 7425   4.355   6.692   8.068  0.0636 -0.4054  0.2730
   80SLPC  H17R 7426   4.251   6.674   8.100  0.0306 -0.9541 -0.1406
   80SLPC  H17S 7427   4.370   6.802   8.070 -2.0603 -0.0481 -1.6312
   80SLPC  C218 7428   4.460   6.622   8.154 -0.2356  0.6459 -0.0642
   80SLPC  H18R 7429   4.464   6.514   8.129  1.6640  0.3875  1.3517
   80SLPC  H18S 7430   4.429   6.617   8.260  0.6545 -0.9740  0.1331
   80SLPC  H18T 7431   4.563   6.663   8.150  0.0104  0.2112  1.4945
   80SLPC   C33 7432   5.125   5.825   6.898 -0.0558  0.3732  0.1665
   80SLPC   H3X 7433   5.088   5.780   6.993 -0.9378  1.2784  0.2559
   80SLPC   H3Y 7434   5.091   5.931   6.902  1.8103  0.9404  1.5779
   80SLPC   C34 7435   5.277   5.820   6.880 -0.3465 -0.1533  0.1174
   80SLPC   H4X 7436   5.306   5.865   6.783 -0.3676  0.1497  0.2524
   80SLPC   H4Y 7437   5.298   5.712   6.863  0.0249  0.0676 -0.8370
   80SLPC   C35 7438   5.369   5.868   6.995 -0.8864 -0.9758  0.3493
   80SLPC   H5X 7439   5.354   5.978   7.004 -1.0540 -1.0996  1.7024
   80SLPC   H5Y 7440   5.476   5.843   6.975 -0.3131  0.1349  1.8554
   80SLPC   C36 7441   5.323   5.809   7.127 -0.0974  0.1358  0.5918
   80SLPC   H6X 7442   5.313   5.699   7.116 -1.3832  0.4872 -2.3269
   80SLPC   H6Y 7443   5.219   5.842   7.150  0.4486  0.4057  2.8571
   80SLPC   C37 7444   5.423   5.848   7.232  0.3008  0.6354 -0.2730
   80SLPC   H7X 7445   5.452   5.954   7.217  1.2989  0.5764  1.1361
   80SLPC   H7Y 7446   5.513   5.787   7.210  0.8561  1.4242 -0.2215
   80SLPC   C38 7447   5.382   5.818   7.382  0.3693  0.3368  0.4248
   80SLPC   H8X 7448   5.461   5.866   7.444  0.8431  0.9118 -0.6037
   80SLPC   H8Y 7449   5.380   5.708   7.397 -0.4192  0.1705 -0.8807
   80SLPC   C39 7450   5.251   5.882   7.433  0.4205 -0.1705  0.3167
   80SLPC   H9X 7451   5.165   5.823   7.395  2.2240 -1.0138 -2.5932
   80SLPC   H9Y 7452   5.244   5.983   7.388 -2.1952  0.4144  1.9464
   80SLPC  C310 7453   5.240   5.906   7.578 -0.6493 -0.7508 -0.3109
   80SLPC  H10X 7454   5.152   5.969   7.603  0.4630  0.1254  1.4940
   80SLPC  H10Y 7455   5.330   5.956   7.619 -2.1498  1.0353  0.8765
   80SLPC  C311 7456   5.217   5.772   7.653 -0.1974  0.6218  0.1339
   80SLPC  H11X 7457   5.311   5.714   7.661 -0.7938 -0.5318 -1.0293
   80SLPC  H11Y 7458   5.138   5.711   7.605  0.4337 -1.3094  1.5039
   80SLPC  C312 7459   5.194   5.796   7.805 -0.2487  0.3612  0.3982
   80SLPC  H12X 7460   5.105   5.859   7.826 -0.0932  0.0921  1.9245
   80SLPC  H12Y 7461   5.282   5.854   7.842 -0.6314  1.3359 -0.1905
   80SLPC  C313 7462   5.173   5.669   7.884 -0.4976  0.0847  0.6706
   80SLPC  H13X 7463   5.272   5.621   7.892  0.9895  2.5385 -2.0588
   80SLPC  H13Y 7464   5.104   5.593   7.841  0.7714 -1.9067  2.0484
   80SLPC  C314 7465   5.117   5.720   8.016 -0.1501  0.4352 -0.2184
   80SLPC  H14X 7466   5.033   5.789   7.996 -0.6810  0.1909  1.0769
   80SLPC  H14Y 7467   5.200   5.770   8.070  1.2259 -1.0542 -0.8923
   80SLPC  C315 7468   5.075   5.597   8.101 -0.0893  0.0928  0.6632
   80SLPC  H15X 7469   5.149   5.515   8.112 -0.5360 -0.4902 -0.6504
   80SLPC  H15Y 7470   4.983   5.553   8.056  0.5975 -0.1515 -0.5191
   80SLPC  C316 7471   5.039   5.642   8.242 -0.5273 -0.6721 -0.1171
   80SLPC  H16X 7472   4.976   5.733   8.236 -1.8599 -1.6285 -0.8847
   80SLPC  H16Y 7473   5.138   5.666   8.286 -0.9029  0.8261 -0.0441
   80SLPC  C317 7474   4.972   5.534   8.327 -0.4994 -0.3127 -0.1615
   80SLPC  H17X 7475   5.051   5.467   8.368 -1.0911 -0.2071  1.1917
   80SLPC  H17Y 7476   4.911   5.464   8.265 -0.2417 -1.4765  0.8742
   80SLPC  C318 7477   4.884   5.601   8.431 -0.7311  0.0624 -0.4552
   80SLPC  H18X 7478   4.798   5.636   8.370  1.3858  0.4200 -3.3230
   80SLPC  H18Y 7479   4.933   5.685   8.483  1.3395 -1.9682  0.9947
   80SLPC  H18Z 7480   4.842   5.523   8.498  0.8828 -0.7855 -0.3984
   81SAPS     N 7481   6.043   0.072  10.741  0.9515 -0.3554  0.3751
   81SAPS   HN1 7482   6.114   0.020  10.796  0.2552 -2.6149 -0.8212
   81SAPS   HN2 7483   5.990  -0.001  10.690 -0.6367  2.2021 -1.8060
   81SAPS   HN3 7484   6.074   0.144  10.672 -1.8344 -0.7619 -1.3928
   81SAPS   C12 7485   5.949   0.125  10.843  0.2820  0.2870  0.1758
   81SAPS  H12A 7486   5.868   0.183  10.800  0.8582  1.0716  0.1378
   81SAPS   C13 7487   5.870   0.018  10.930  0.2538  0.0493  0.7854
   81SAPS  O13A 7488   5.901  -0.103  10.911 -0.0073  0.0502  0.4322
   81SAPS  O13B 7489   5.803   0.055  11.029  0.3686 -0.1886  0.5215
   81SAPS   C11 7490   6.033   0.219  10.934 -0.5977 -0.5368  0.1222
   81SAPS  H11A 7491   6.116   0.157  10.974 -0.4869  0.8086  2.0797
   81SAPS  H11B 7492   5.969   0.262  11.015 -0.6134 -0.4404  0.0584
   81SAPS     P 7493   6.117   0.475  10.921  0.1485  0.2367  0.3573
   81SAPS   O13 7494   5.990   0.514  10.984  0.3535  0.2424 -0.1538
   81SAPS   O14 7495   6.237   0.470  11.009  0.3523 -0.0737  0.0181
   81SAPS   O12 7496   6.091   0.325  10.861  0.3092  0.0474 -0.1092
   81SAPS   O11 7497   6.152   0.558  10.787  0.0927  0.3470  0.4504
   81SAPS    C1 7498   6.067   0.562  10.674 -0.2791  0.0554  0.0797
   81SAPS    HA 7499   6.125   0.603  10.589  1.8863 -1.8527  0.5550
   81SAPS    HB 7500   6.042   0.457  10.647  0.7371 -0.3166  0.5487
   81SAPS    C2 7501   5.954   0.663  10.680 -0.0675 -0.3747 -0.1894
   81SAPS    HS 7502   5.880   0.627  10.755 -0.2492 -1.8656 -1.0495
   81SAPS   O21 7503   5.886   0.680  10.554  0.4246 -0.3106 -0.1905
   81SAPS   C21 7504   5.799   0.583  10.529 -1.1696  1.0338  0.0844
   81SAPS   O22 7505   5.775   0.487  10.599 -0.4671 -0.0062 -0.7511
   81SAPS   C22 7506   5.722   0.617  10.405  0.7524 -0.0052  0.1652
   81SAPS   H2R 7507   5.615   0.644  10.423 -0.0612 -2.4963 -0.6347
   81SAPS   H2S 7508   5.764   0.703  10.350 -1.3049 -0.3138 -2.0074
   81SAPS    C3 7509   6.002   0.799  10.722  0.0003 -0.0113  0.6618
   81SAPS    HX 7510   6.039   0.812  10.826  0.0638  1.8683  0.4257
   81SAPS    HY 7511   5.911   0.862  10.720 -1.9305 -2.7499  0.8224
   81SAPS   O31 7512   6.098   0.837  10.623  0.1180  0.3238 -0.7356
   81SAPS   C31 7513   6.086   0.964  10.580  0.2104  0.2886  0.1712
   81SAPS   O32 7514   6.005   1.042  10.617  0.4441 -0.4304 -0.1836
   81SAPS   C32 7515   6.180   0.998  10.462 -0.4445  0.0196  0.2375
   81SAPS   H2X 7516   6.145   0.945  10.370 -1.6890 -0.1461  0.7901
   81SAPS   H2Y 7517   6.284   0.968  10.485 -0.6610  0.5479  1.9643
   81SAPS   C23 7518   5.730   0.504  10.294  0.0437 -0.4928  0.1994
   81SAPS   H3R 7519   5.677   0.548  10.207  1.4993 -1.3460 -1.1426
   81SAPS   H3S 7520   5.671   0.417  10.330  2.0282 -1.8395  0.2769
   81SAPS   C24 7521   5.873   0.458  10.253  0.5325 -0.1269 -0.5156
   81SAPS   H4R 7522   5.868   0.403  10.156 -0.5896 -0.2997 -0.3718
   81SAPS   H4S 7523   5.917   0.382  10.320 -1.8433  0.3972  1.7233
   81SAPS   C25 7524   5.965   0.580  10.245  0.4944 -0.6120 -0.1427
   81SAPS   H5R 7525   6.005   0.600  10.346 -1.1149 -0.2934  0.4554
   81SAPS   C26 7526   5.988   0.666  10.138 -0.3757 -0.0191 -0.0669
   81SAPS   H6R 7527   6.063   0.745  10.152 -0.5763  0.3652 -1.0961
   81SAPS   C27 7528   5.929   0.659  10.001 -0.4575  0.5205  0.3407
   81SAPS   H7R 7529   5.872   0.755   9.996 -0.7400  0.4402  1.7898
   81SAPS   H7S 7530   5.862   0.572   9.987  0.0854  0.3198 -1.0059
   81SAPS   C28 7531   6.041   0.655   9.893 -0.2802  0.0412 -0.4861
   81SAPS   H8R 7532   6.127   0.607   9.941 -1.8099  0.2050  2.5434
   81SAPS   C29 7533   6.034   0.689   9.758  0.3635  0.0172 -0.8051
   81SAPS   H9R 7534   6.127   0.678   9.700 -0.1404 -3.0170 -1.1096
   81SAPS  C210 7535   5.919   0.740   9.676  0.8128  0.2341 -0.4594
   81SAPS  H10R 7536   5.949   0.840   9.637 -1.4118  0.1703 -2.4584
   81SAPS  H10S 7537   5.825   0.741   9.736  1.0107  0.2189 -0.1460
   81SAPS  C211 7538   5.890   0.643   9.566  0.7390  0.4550 -0.1280
   81SAPS  H11R 7539   5.921   0.538   9.582 -2.6845 -0.8993 -1.7728
   81SAPS  C212 7540   5.821   0.673   9.453 -0.0685 -0.0479 -0.1900
   81SAPS  H12R 7541   5.809   0.591   9.381 -0.8382 -2.0731  2.1547
   81SAPS  C213 7542   5.761   0.808   9.418  0.0750 -0.9286 -0.0535
   81SAPS  H13R 7543   5.806   0.851   9.326  2.2314  1.1684  1.9005
   81SAPS  H13S 7544   5.779   0.880   9.501 -0.4519 -1.3481  0.4350
   81SAPS  C214 7545   5.610   0.788   9.405  0.8283 -0.2695  0.5003
   81SAPS  H14R 7546   5.561   0.755   9.498  0.4469 -0.8325  0.0987
   81SAPS  C215 7547   5.542   0.789   9.288 -0.5063 -0.5867 -0.2558
   81SAPS  H15R 7548   5.433   0.795   9.303 -0.0587 -0.4015  3.2930
   81SAPS  C216 7549   5.605   0.814   9.155 -0.4282  0.9483 -0.1108
   81SAPS  H16R 7550   5.685   0.742   9.124 -1.1540  0.5647 -1.1120
   81SAPS  H16S 7551   5.646   0.917   9.144  2.0663 -0.0861 -0.9717
   81SAPS  C217 7552   5.501   0.805   9.040  0.1314 -0.0401 -0.3022
   81SAPS  H17R 7553   5.445   0.901   9.035  0.4098  0.1294 -0.1749
   81SAPS  H17S 7554   5.428   0.727   9.068 -0.6045  0.7718  0.0711
   81SAPS  C218 7555   5.565   0.783   8.900 -0.2685  0.1769 -0.5689
   81SAPS  H18R 7556   5.616   0.687   8.877  2.1454  1.0640  0.8548
   81SAPS  H18S 7557   5.654   0.848   8.887  1.1995 -1.7058 -0.1969
   81SAPS  C219 7558   5.466   0.819   8.794  0.1869  0.3989  0.3120
   81SAPS  H19R 7559   5.445   0.928   8.785 -0.8754  0.2578  1.0083
   81SAPS  H19S 7560   5.378   0.769   8.839 -1.3133  1.3078 -1.5471
   81SAPS  C220 7561   5.484   0.754   8.660  0.0177  0.2009 -0.6515
   81SAPS  H20R 7562   5.399   0.759   8.589  1.0913  3.4421 -1.8107
   81SAPS  H20S 7563   5.514   0.647   8.662 -3.4431 -0.8591 -1.9301
   81SAPS  H20T 7564   5.569   0.800   8.605 -0.9516  0.2468 -2.1381
   81SAPS   C33 7565   6.185   1.149  10.426  0.0303  0.1575  0.4443
   81SAPS   H3X 7566   6.223   1.216  10.506 -0.5231 -0.1264  0.9501
   81SAPS   H3Y 7567   6.082   1.184  10.403 -0.5192 -2.1509 -0.7646
   81SAPS   C34 7568   6.274   1.176  10.299  0.6264 -0.8282  0.1427
   81SAPS   H4X 7569   6.377   1.134  10.292  0.8778 -0.3353  0.7651
   81SAPS   H4Y 7570   6.281   1.287  10.298 -1.2320 -0.6680  1.7769
   81SAPS   C35 7571   6.192   1.125  10.177 -0.1209 -0.4470 -0.2417
   81SAPS   H5X 7572   6.103   1.191  10.179  2.3754  3.1477 -0.9562
   81SAPS   H5Y 7573   6.165   1.018  10.175  1.9535 -1.0179  0.8185
   81SAPS   C36 7574   6.267   1.160  10.044 -0.5661 -0.4114 -0.1431
   81SAPS   H6X 7575   6.348   1.083  10.037  2.8184  3.0340 -0.2475
   81SAPS   H6Y 7576   6.313   1.260  10.049  1.0568 -1.1026 -0.8556
   81SAPS   C37 7577   6.165   1.138   9.930 -0.0594 -0.6009 -0.0585
   81SAPS   H7X 7578   6.082   1.211   9.943  0.7830  0.4477 -0.4747
   81SAPS   H7Y 7579   6.119   1.040   9.956  0.3267  0.2390  4.2731
   81SAPS   C38 7580   6.224   1.154   9.791  0.2291 -0.6999 -0.2233
   81SAPS   H8X 7581   6.310   1.085   9.789  0.0387 -0.9852  0.8945
   81SAPS   H8Y 7582   6.247   1.263   9.790  1.4816 -0.9771 -1.2076
   81SAPS   C39 7583   6.139   1.128   9.666  0.1264 -0.3510  0.3955
   81SAPS   H9X 7584   6.062   1.207   9.654 -0.7372 -0.7369  2.9526
   81SAPS   H9Y 7585   6.088   1.033   9.693 -2.2591  0.7733  0.0318
   81SAPS  C310 7586   6.220   1.113   9.533  0.6886  1.0489  0.4095
   81SAPS  H10X 7587   6.310   1.049   9.549 -0.4247 -0.0039  2.7038
   81SAPS  H10Y 7588   6.246   1.215   9.499  0.5116  0.3986 -1.8284
   81SAPS  C311 7589   6.128   1.066   9.423  0.9930  0.7249  0.1856
   81SAPS  H11X 7590   6.036   1.128   9.430 -0.4312 -1.4885  1.7787
   81SAPS  H11Y 7591   6.092   0.965   9.450  0.9230  0.2709 -1.5222
   81SAPS  C312 7592   6.175   1.065   9.274 -0.1665  0.9475  0.6081
   81SAPS  H12X 7593   6.232   0.972   9.250 -0.8369  0.7523 -0.2764
   81SAPS  H12Y 7594   6.234   1.155   9.249 -0.9445  1.1412 -0.5943
   81SAPS  C313 7595   6.046   1.046   9.189 -0.3316  0.4461  0.6758
   81SAPS  H13X 7596   5.969   1.117   9.226 -0.0295 -0.0460  2.2821
   81SAPS  H13Y 7597   6.012   0.941   9.201 -0.3698  0.0747 -2.4395
   81SAPS  C314 7598   6.081   1.070   9.039 -0.6170  0.9379 -0.0561
   81SAPS  H14X 7599   6.150   0.992   9.002 -0.9221  1.2977 -1.3841
   81SAPS  H14Y 7600   6.129   1.170   9.026 -1.1845  1.1490 -0.5453
   81SAPS  C315 7601   5.966   1.071   8.947  0.2381  0.3634  0.9881
   81SAPS  H15X 7602   5.900   1.156   8.977 -0.3394  0.4973 -0.6110
   81SAPS  H15Y 7603   5.917   0.976   8.975  1.9515  0.1763  3.5310
   81SAPS  C316 7604   5.991   1.079   8.793 -0.3845 -0.2193 -0.2731
   81SAPS  H16X 7605   5.889   1.091   8.750  0.5506  2.0242 -1.9948
   81SAPS  H16Y 7606   6.028   0.979   8.763  1.2110  0.4251 -0.5125
   81SAPS  C317 7607   6.071   1.197   8.738 -0.2352 -0.6983  0.9707
   81SAPS  H17X 7608   6.042   1.285   8.799  1.3141  0.1458  0.5261
   81SAPS  H17Y 7609   6.052   1.218   8.630 -1.3568 -0.9510  1.1165
   81SAPS  C318 7610   6.223   1.186   8.744 -0.4089 -0.7907  0.4056
   81SAPS  H18X 7611   6.267   1.106   8.680  1.5049 -0.2408  0.9945
   81SAPS  H18Y 7612   6.264   1.180   8.847 -0.1908  2.8245  0.5885
   81SAPS  H18Z 7613   6.270   1.282   8.710  0.9992 -1.6685 -0.1909
   82SAPS     N 7614   4.613   6.655  11.074 -0.7513 -0.0452 -0.2048
   82SAPS   HN1 7615   4.629   6.638  11.176 -1.2241 -1.0447 -0.2930
   82SAPS   HN2 7616   4.510   6.669  11.078 -0.7029  0.3051 -0.0974
   82SAPS   HN3 7617   4.635   6.561  11.036 -0.4881  0.7309 -2.0058
   82SAPS   C12 7618   4.701   6.762  11.014 -0.4259  0.0866 -0.2383
   82SAPS  H12A 7619   4.675   6.853  11.066 -3.9661 -1.3930  0.7867
   82SAPS   C13 7620   4.850   6.742  11.038  0.3130 -0.4613  0.4760
   82SAPS  O13A 7621   4.890   6.630  11.077  0.2091  0.0439 -0.5164
   82SAPS  O13B 7622   4.926   6.842  11.043  0.8864  0.0220  0.7316
   82SAPS   C11 7623   4.674   6.768  10.859  0.0278 -0.6621  0.1618
   82SAPS  H11A 7624   4.717   6.686  10.798  0.7115 -0.3645  0.2370
   82SAPS  H11B 7625   4.731   6.852  10.813 -2.3985  0.5846 -0.6488
   82SAPS     P 7626   4.451   6.887  10.801 -0.2239  0.0305 -0.0751
   82SAPS   O13 7627   4.317   6.860  10.860  0.1565  0.5688  0.0178
   82SAPS   O14 7628   4.531   7.008  10.839 -0.3260  0.0621  0.2719
   82SAPS   O12 7629   4.534   6.756  10.829 -0.5497  0.1761  0.4720
   82SAPS   O11 7630   4.443   6.872  10.644 -0.2472  0.2900  0.1103
   82SAPS    C1 7631   4.562   6.853  10.566  0.3067 -0.6828 -0.0909
   82SAPS    HA 7632   4.653   6.904  10.605 -0.8312  0.3204  1.3151
   82SAPS    HB 7633   4.577   6.743  10.557  4.8472 -0.1074 -0.7133
   82SAPS    C2 7634   4.544   6.915  10.424 -0.0409 -0.0489  0.1891
   82SAPS    HS 7635   4.501   7.017  10.435 -0.6425 -0.0135 -2.3225
   82SAPS   O21 7636   4.459   6.828  10.351  0.1065  0.3518  0.0131
   82SAPS   C21 7637   4.385   6.884  10.258 -0.1513 -0.2523 -0.5423
   82SAPS   O22 7638   4.398   7.002  10.226 -0.5169  0.3993  0.9592
   82SAPS   C22 7639   4.282   6.779  10.215  0.0472  0.7846 -0.2813
   82SAPS   H2R 7640   4.335   6.683  10.232  0.2527  0.9827  0.2012
   82SAPS   H2S 7641   4.194   6.784  10.283  0.7397  0.8585  0.6173
   82SAPS    C3 7642   4.685   6.920  10.357  0.2273 -0.8490 -0.0165
   82SAPS    HX 7643   4.738   6.823  10.354  0.4048 -0.6829 -3.4289
   82SAPS    HY 7644   4.753   6.985  10.416 -0.7564 -1.1627  1.4995
   82SAPS   O31 7645   4.664   6.984  10.227 -0.8104 -0.0979  0.1350
   82SAPS   C31 7646   4.704   7.104  10.209  0.7710 -0.4812  0.2539
   82SAPS   O32 7647   4.753   7.182  10.291  0.0349 -0.5585 -0.0157
   82SAPS   C32 7648   4.673   7.133  10.071 -0.1141  0.0364 -0.0912
   82SAPS   H2X 7649   4.690   7.243  10.061  0.6356 -0.0397  0.2354
   82SAPS   H2Y 7650   4.564   7.138  10.053 -0.3905 -0.9896  1.2029
   82SAPS   C23 7651   4.224   6.792  10.073 -0.0513  0.7226  0.1568
   82SAPS   H3R 7652   4.205   6.899  10.053 -1.8172  0.2653 -0.6597
   82SAPS   H3S 7653   4.132   6.732  10.090 -0.1697  0.6774 -0.6328
   82SAPS   C24 7654   4.301   6.739   9.953 -0.1957  0.0903  0.0697
   82SAPS   H4R 7655   4.330   6.633   9.972  0.1161 -0.2983 -2.4159
   82SAPS   H4S 7656   4.397   6.791   9.936 -0.2195 -0.3975 -1.5798
   82SAPS   C25 7657   4.206   6.735   9.837  0.1008  0.6060 -0.2673
   82SAPS   H5R 7658   4.112   6.681   9.854 -0.3684  1.4328 -0.2322
   82SAPS   C26 7659   4.231   6.793   9.716 -0.1359 -0.4915 -0.4916
   82SAPS   H6R 7660   4.152   6.793   9.639 -0.0640  0.3352 -0.5713
   82SAPS   C27 7661   4.360   6.857   9.671  0.4696 -0.4856  0.0427
   82SAPS   H7R 7662   4.416   6.910   9.751 -0.6191  2.7856 -1.2930
   82SAPS   H7S 7663   4.336   6.942   9.604 -0.1262 -0.4373  0.3211
   82SAPS   C28 7664   4.450   6.762   9.601 -0.3046  0.1987  0.4665
   82SAPS   H8R 7665   4.451   6.659   9.640  1.5127 -0.1542 -0.4485
   82SAPS   C29 7666   4.528   6.784   9.496 -0.1480  0.2253  0.2286
   82SAPS   H9R 7667   4.592   6.717   9.438  0.1211  0.7650 -0.1003
   82SAPS  C210 7668   4.538   6.921   9.432  0.2499 -0.2235 -0.1126
   82SAPS  H10R 7669   4.634   6.935   9.377  1.4208  1.3453  2.2578
   82SAPS  H10S 7670   4.523   6.994   9.515 -3.0288 -0.9290 -0.0202
   82SAPS  C211 7671   4.423   6.927   9.326  0.1162 -0.1452 -0.9972
   82SAPS  H11R 7672   4.323   6.920   9.370  0.3672  1.8199 -0.0576
   82SAPS  C212 7673   4.433   6.929   9.190  0.4277  1.2097  0.4425
   82SAPS  H12R 7674   4.335   6.944   9.143  1.0884  1.9217 -0.7424
   82SAPS  C213 7675   4.547   6.923   9.089  0.3155  0.4765  0.1134
   82SAPS  H13R 7676   4.639   6.966   9.136  0.3734  1.0472 -0.5112
   82SAPS  H13S 7677   4.502   6.990   9.013  2.4563 -0.4041 -1.9984
   82SAPS  C214 7678   4.570   6.789   9.022  0.1226  0.0793  0.2438
   82SAPS  H14R 7679   4.484   6.720   9.022 -0.7946  1.1756  2.3867
   82SAPS  C215 7680   4.686   6.738   8.990 -0.5277 -0.4232  1.4282
   82SAPS  H15R 7681   4.685   6.632   8.960  1.0508 -0.0808  0.0688
   82SAPS  C216 7682   4.824   6.799   9.001  0.0510  0.0105 -0.1354
   82SAPS  H16R 7683   4.890   6.722   9.046 -1.4059 -0.4850  1.2212
   82SAPS  H16S 7684   4.827   6.883   9.073  0.6397  0.1276 -0.2987
   82SAPS  C217 7685   4.886   6.831   8.864  0.3120 -0.6800 -0.2288
   82SAPS  H17R 7686   4.861   6.747   8.796  0.2277 -1.2429  0.4969
   82SAPS  H17S 7687   4.994   6.853   8.881 -0.5570  1.4728  2.8512
   82SAPS  C218 7688   4.830   6.957   8.807 -0.1638 -0.7011 -0.2751
   82SAPS  H18R 7689   4.848   7.045   8.873 -2.0258 -1.4792  1.3218
   82SAPS  H18S 7690   4.719   6.951   8.801 -0.2492  0.5950 -0.2678
   82SAPS  C219 7691   4.896   6.986   8.669 -0.0463  0.2399 -0.7759
   82SAPS  H19R 7692   4.871   6.901   8.602 -1.5425 -0.7915  1.0308
   82SAPS  H19S 7693   5.005   7.004   8.671 -0.3253  2.1413 -2.1387
   82SAPS  C220 7694   4.839   7.102   8.591  0.7886  0.2465  0.0731
   82SAPS  H20R 7695   4.854   7.090   8.482 -1.1017 -0.7607 -0.0916
   82SAPS  H20S 7696   4.876   7.202   8.621  0.2260  0.8113 -1.0958
   82SAPS  H20T 7697   4.729   7.113   8.598  0.6864  1.6542 -2.8718
   82SAPS   C33 7698   4.753   7.053   9.965  0.3821 -0.1713  0.5188
   82SAPS   H3X 7699   4.857   7.039  10.001  0.1923 -2.2986  0.2960
   82SAPS   H3Y 7700   4.762   7.126   9.881  1.3271 -1.0837 -0.1752
   82SAPS   C34 7701   4.680   6.920   9.916 -0.2332  0.0367 -0.3174
   82SAPS   H4X 7702   4.577   6.952   9.889 -0.0330  1.6087  0.7567
   82SAPS   H4Y 7703   4.676   6.851  10.003  0.9708  1.1513  0.6372
   82SAPS   C35 7704   4.745   6.846   9.794 -0.2631 -0.1878  0.2992
   82SAPS   H5X 7705   4.767   6.912   9.707  1.0367 -0.6134  0.2937
   82SAPS   H5Y 7706   4.659   6.782   9.767 -1.0014  0.1816  1.7157
   82SAPS   C36 7707   4.884   6.777   9.818 -0.6400 -0.4558 -0.3658
   82SAPS   H6X 7708   4.863   6.673   9.848  0.6964 -1.2552 -2.1308
   82SAPS   H6Y 7709   4.920   6.828   9.911 -0.2090  0.1321 -0.8508
   82SAPS   C37 7710   4.979   6.788   9.696 -0.0074  0.6966  0.1038
   82SAPS   H7X 7711   4.912   6.766   9.610 -1.2145  0.3440  1.1250
   82SAPS   H7Y 7712   5.057   6.710   9.708 -0.4115  0.4429  1.1373
   82SAPS   C38 7713   5.039   6.929   9.670  1.0353  0.7798  0.1591
   82SAPS   H8X 7714   5.090   6.952   9.766  2.2147  2.2019 -0.8020
   82SAPS   H8Y 7715   4.952   6.997   9.656 -0.7458 -0.7800  3.0649
   82SAPS   C39 7716   5.129   6.937   9.545  0.1181  0.4368 -0.4631
   82SAPS   H9X 7717   5.168   7.041   9.538 -0.8244  0.8968  0.8858
   82SAPS   H9Y 7718   5.065   6.907   9.460 -0.1913 -0.5081  0.0943
   82SAPS  C310 7719   5.260   6.857   9.547  0.2581 -0.5330  0.2028
   82SAPS  H10X 7720   5.239   6.750   9.569 -0.2737  0.1690  3.3113
   82SAPS  H10Y 7721   5.327   6.896   9.626  1.5291 -1.3636 -0.4465
   82SAPS  C311 7722   5.340   6.875   9.414 -0.3457  0.1412  0.2391
   82SAPS  H11X 7723   5.290   6.819   9.332  0.4619 -1.5700  0.9058
   82SAPS  H11Y 7724   5.440   6.831   9.432 -1.0605 -2.6622 -2.2242
   82SAPS  C312 7725   5.379   7.015   9.362  0.2342  0.6824  0.2917
   82SAPS  H12X 7726   5.413   7.077   9.448  1.5673 -1.9203  1.6847
   82SAPS  H12Y 7727   5.284   7.065   9.332  0.1536 -0.5410 -1.5728
   82SAPS  C313 7728   5.484   7.016   9.247  0.4452 -0.8686 -0.4725
   82SAPS  H13X 7729   5.444   6.950   9.167 -2.0360  0.5643 -0.4316
   82SAPS  H13Y 7730   5.579   6.978   9.293  0.2077 -1.0014 -0.0875
   82SAPS  C314 7731   5.498   7.160   9.181 -0.9656  0.4486 -0.8329
   82SAPS  H14X 7732   5.535   7.231   9.257  0.4690  0.0526 -1.1535
   82SAPS  H14Y 7733   5.397   7.191   9.146 -1.0384  0.0372 -0.9923
   82SAPS  C315 7734   5.590   7.157   9.056  0.6094  0.0157 -0.1641
   82SAPS  H15X 7735   5.695   7.152   9.094  0.9648 -1.5655 -1.3323
   82SAPS  H15Y 7736   5.583   7.255   9.005  3.0488  0.3226  0.0038
   82SAPS  C316 7737   5.572   7.040   8.952  0.1143 -0.5323 -0.6432
   82SAPS  H16X 7738   5.463   7.044   8.932  0.3037 -0.4178 -1.6555
   82SAPS  H16Y 7739   5.598   6.945   9.004  0.7521 -0.4847 -0.8646
   82SAPS  C317 7740   5.651   7.050   8.821  0.0817  0.1756  0.2436
   82SAPS  H17X 7741   5.621   6.965   8.756 -0.2226  0.8813 -0.5377
   82SAPS  H17Y 7742   5.761   7.052   8.831  0.2601  0.3672 -1.5868
   82SAPS  C318 7743   5.623   7.175   8.735 -0.1085  0.1098 -0.2989
   82SAPS  H18X 7744   5.664   7.170   8.632  0.6878 -1.7610  0.0900
   82SAPS  H18Y 7745   5.639   7.268   8.793 -1.0315  0.2603 -0.2760
   82SAPS  H18Z 7746   5.512   7.178   8.727 -0.1953  0.9825  0.9722
   83SAPS     N 7747   6.071   1.935  11.372  0.2522  0.0425 -0.0282
   83SAPS   HN1 7748   6.065   2.030  11.415  1.7270  0.2065 -0.1652
   83SAPS   HN2 7749   6.075   1.935  11.268  1.0218  0.2551 -0.0037
   83SAPS   HN3 7750   5.983   1.887  11.398  0.3591 -0.0924  0.0880
   83SAPS   C12 7751   6.180   1.851  11.414 -0.3079  0.5653 -0.9375
   83SAPS  H12A 7752   6.256   1.925  11.396  0.9560 -0.4648 -0.0149
   83SAPS   C13 7753   6.181   1.817  11.567 -0.5606  0.0023 -0.6663
   83SAPS  O13A 7754   6.086   1.859  11.637 -0.1455  0.1830  0.1720
   83SAPS  O13B 7755   6.280   1.762  11.617  0.7065  0.4442 -0.3350
   83SAPS   C11 7756   6.186   1.725  11.321 -0.0521  0.5953 -0.6544
   83SAPS  H11A 7757   6.104   1.653  11.344 -0.3746  1.1096 -0.1792
   83SAPS  H11B 7758   6.282   1.672  11.341 -0.8445 -0.5030  0.3500
   83SAPS     P 7759   6.200   1.642  11.076  0.1318  0.0569 -0.3460
   83SAPS   O13 7760   6.334   1.588  11.095  0.2061  0.0356 -0.4909
   83SAPS   O14 7761   6.091   1.538  11.090  0.5983 -0.2620 -0.6431
   83SAPS   O12 7762   6.178   1.763  11.184 -0.1283  0.1589  0.8873
   83SAPS   O11 7763   6.191   1.716  10.929 -0.2396  0.4333 -0.3057
   83SAPS    C1 7764   6.059   1.767  10.890  0.1248  0.1136 -0.1979
   83SAPS    HA 7765   5.978   1.691  10.885 -2.3029  2.6975 -2.0784
   83SAPS    HB 7766   6.021   1.839  10.966  2.3139  0.0368  0.9967
   83SAPS    C2 7767   6.059   1.845  10.755 -0.6809 -0.3157  0.1068
   83SAPS    HS 7768   5.956   1.858  10.715 -0.6105 -2.3706 -0.8261
   83SAPS   O21 7769   6.141   1.787  10.650 -0.0963  0.0987  0.4815
   83SAPS   C21 7770   6.137   1.654  10.633  0.2576 -0.0171 -0.2667
   83SAPS   O22 7771   6.064   1.571  10.685 -0.0648  0.5429 -0.1826
   83SAPS   C22 7772   6.252   1.623  10.534 -0.1447  0.1537 -0.6549
   83SAPS   H2R 7773   6.292   1.718  10.492  0.9296 -0.5524 -1.2726
   83SAPS   H2S 7774   6.335   1.577  10.592 -0.2392 -0.3993 -0.9582
   83SAPS    C3 7775   6.107   1.989  10.781  0.2639  1.0146 -0.3532
   83SAPS    HX 7776   6.183   1.987  10.862 -0.1464  4.8600  0.2108
   83SAPS    HY 7777   6.027   2.044  10.835  0.9758 -0.1676  1.9684
   83SAPS   O31 7778   6.141   2.064  10.664 -0.2807  0.1868 -0.0393
   83SAPS   C31 7779   6.277   2.052  10.621  0.3424 -0.3674  0.0050
   83SAPS   O32 7780   6.365   1.996  10.680  0.3506  0.7122 -0.0628
   83SAPS   C32 7781   6.285   2.111  10.480  0.1949  0.0430  1.1810
   83SAPS   H2X 7782   6.243   2.213  10.485 -1.0926 -0.4133  0.0223
   83SAPS   H2Y 7783   6.216   2.049  10.419  0.8232  0.5346 -0.0358
   83SAPS   C23 7784   6.209   1.531  10.421  0.0135  0.0555 -0.0347
   83SAPS   H3R 7785   6.182   1.436  10.472  0.8179 -1.1271 -1.7738
   83SAPS   H3S 7786   6.291   1.504  10.351  0.9573  1.4722  0.5005
   83SAPS   C24 7787   6.096   1.585  10.334 -0.0148 -0.7361  0.2035
   83SAPS   H4R 7788   6.014   1.634  10.390  0.9319  1.8754 -0.5808
   83SAPS   H4S 7789   6.052   1.503  10.274 -1.8219 -0.8360  1.6340
   83SAPS   C25 7790   6.156   1.692  10.245 -0.2170  0.8555 -0.0913
   83SAPS   H5R 7791   6.146   1.792  10.288  5.2453  1.1130  0.8062
   83SAPS   C26 7792   6.197   1.677  10.116 -0.1853  0.0439 -0.3468
   83SAPS   H6R 7793   6.234   1.767  10.064  2.2966 -1.9680 -2.1839
   83SAPS   C27 7794   6.189   1.549  10.027 -0.3328 -0.8109 -0.6265
   83SAPS   H7R 7795   6.201   1.454  10.083  0.3685 -0.1618  0.3241
   83SAPS   H7S 7796   6.274   1.554   9.956  1.0418 -0.9716  0.9905
   83SAPS   C28 7797   6.053   1.529   9.961  0.3575  1.1461 -0.3319
   83SAPS   H8R 7798   5.980   1.479  10.026  1.9599 -1.1742 -0.2535
   83SAPS   C29 7799   6.021   1.541   9.831  0.3372  0.3485  0.3196
   83SAPS   H9R 7800   5.920   1.511   9.798  0.6618  0.2325 -0.6031
   83SAPS  C210 7801   6.115   1.579   9.722 -0.4634  0.1989  0.2535
   83SAPS  H10R 7802   6.134   1.495   9.652 -2.4046  1.8721 -2.3655
   83SAPS  H10S 7803   6.220   1.605   9.749  0.2345 -2.9697  0.8290
   83SAPS  C211 7804   6.052   1.685   9.637  0.4793 -0.2424  0.3008
   83SAPS  H11R 7805   6.024   1.776   9.693  0.9761  0.2800 -0.2851
   83SAPS  C212 7806   6.026   1.691   9.506 -0.9365 -0.3307 -0.4743
   83SAPS  H12R 7807   5.972   1.780   9.470 -0.8056 -0.8466 -1.9634
   83SAPS  C213 7808   6.058   1.584   9.397 -0.5854 -0.2947 -0.3611
   83SAPS  H13R 7809   6.074   1.480   9.433 -0.9842 -0.0058  0.6853
   83SAPS  H13S 7810   6.156   1.603   9.349 -1.2266 -0.7359 -1.8542
   83SAPS  C214 7811   5.942   1.587   9.295 -0.0072 -0.2102  0.1109
   83SAPS  H14R 7812   5.843   1.626   9.324 -0.8768 -1.8517 -0.5408
   83SAPS  C215 7813   5.952   1.542   9.162  0.2415  0.4335  0.0228
   83SAPS  H15R 7814   5.866   1.557   9.096  1.2365  2.4643 -0.8606
   83SAPS  C216 7815   6.072   1.476   9.098  0.1006 -0.3303 -0.4632
   83SAPS  H16R 7816   6.031   1.375   9.075 -0.9372  0.2693 -1.2907
   83SAPS  H16S 7817   6.160   1.450   9.161 -0.3937 -1.4907 -0.2360
   83SAPS  C217 7818   6.123   1.558   8.975  0.2623 -0.1219 -0.0419
   83SAPS  H17R 7819   6.034   1.561   8.909 -0.2249  0.5093  0.6377
   83SAPS  H17S 7820   6.202   1.495   8.929 -0.3031 -0.7229 -0.2072
   83SAPS  C218 7821   6.188   1.693   8.995 -0.3929 -0.2811  0.3479
   83SAPS  H18R 7822   6.260   1.683   9.079  0.6054  0.6152 -0.3831
   83SAPS  H18S 7823   6.112   1.767   9.028 -0.5593  0.7092 -2.0896
   83SAPS  C219 7824   6.271   1.739   8.880  0.0547 -0.0157 -0.3645
   83SAPS  H19R 7825   6.353   1.668   8.860 -2.0654 -2.7350  0.3079
   83SAPS  H19S 7826   6.317   1.836   8.910 -0.1127 -0.5369  1.6415
   83SAPS  C220 7827   6.185   1.758   8.754 -0.6983  0.0095 -0.0444
   83SAPS  H20R 7828   6.118   1.847   8.752 -0.2564  0.3298 -0.8635
   83SAPS  H20S 7829   6.119   1.671   8.739  0.4569 -0.9422  0.2572
   83SAPS  H20T 7830   6.258   1.757   8.670  1.0062 -1.9699  1.3914
   83SAPS   C33 7831   6.430   2.118  10.435 -0.7682 -0.2018 -0.1625
   83SAPS   H3X 7832   6.484   2.021  10.444 -0.3430 -0.0617 -1.1527
   83SAPS   H3Y 7833   6.492   2.193  10.488  1.3399 -2.8405  1.2208
   83SAPS   C34 7834   6.424   2.170  10.285 -0.3401  0.3262  0.1017
   83SAPS   H4X 7835   6.521   2.217  10.258 -0.7651  2.1099  1.6038
   83SAPS   H4Y 7836   6.339   2.242  10.274  0.6944  1.1844 -2.5512
   83SAPS   C35 7837   6.402   2.061  10.181 -0.1209  0.8003 -0.9009
   83SAPS   H5X 7838   6.299   2.022  10.188  0.6231 -1.2173 -0.7846
   83SAPS   H5Y 7839   6.477   1.984  10.208 -1.2910 -0.4268 -1.1493
   83SAPS   C36 7840   6.429   2.106  10.040  0.1706  0.0085  0.5132
   83SAPS   H6X 7841   6.530   2.152  10.032 -0.7064  2.0222  0.7774
   83SAPS   H6Y 7842   6.348   2.178  10.013 -1.1440 -0.6448  2.6458
   83SAPS   C37 7843   6.408   1.994   9.944 -0.0839  0.0588 -0.6487
   83SAPS   H7X 7844   6.320   1.937   9.982  0.3446 -0.5629 -0.5835
   83SAPS   H7Y 7845   6.493   1.924   9.955  1.1459  1.1052 -3.1960
   83SAPS   C38 7846   6.376   2.052   9.802 -0.8155 -0.7843 -0.1633
   83SAPS   H8X 7847   6.439   2.143   9.789 -1.0416 -0.5397  0.4409
   83SAPS   H8Y 7848   6.270   2.083   9.800 -1.4143 -2.7598 -0.6786
   83SAPS   C39 7849   6.401   1.940   9.703  0.4077  0.6182 -0.3594
   83SAPS   H9X 7850   6.317   1.873   9.732  0.3481  0.8844  0.0873
   83SAPS   H9Y 7851   6.497   1.891   9.730  1.6963  2.8420 -0.7929
   83SAPS  C310 7852   6.392   1.979   9.553  0.3075  0.2565 -0.0917
   83SAPS  H10X 7853   6.477   2.049   9.544  0.4613 -0.0899 -1.3654
   83SAPS  H10Y 7854   6.294   2.031   9.546  0.7001  0.7773 -2.0069
   83SAPS  C311 7855   6.389   1.866   9.461  0.3249 -0.0817 -0.3539
   83SAPS  H11X 7856   6.311   1.790   9.484  2.7670 -2.7724 -0.6549
   83SAPS  H11Y 7857   6.483   1.806   9.468  1.9336  2.2710 -1.3972
   83SAPS  C312 7858   6.373   1.906   9.314  0.3865 -0.6961 -0.9250
   83SAPS  H12X 7859   6.289   1.980   9.314 -0.5258 -1.7081  0.1047
   83SAPS  H12Y 7860   6.339   1.825   9.246 -2.1690 -0.1049 -0.4125
   83SAPS  C313 7861   6.500   1.968   9.262 -0.6428  0.0716  0.4974
   83SAPS  H13X 7862   6.572   1.884   9.270 -2.0459 -1.1186  0.8414
   83SAPS  H13Y 7863   6.543   2.055   9.315 -0.2069  1.0535 -1.4204
   83SAPS  C314 7864   6.481   1.997   9.114 -0.4290 -0.4603 -0.5589
   83SAPS  H14X 7865   6.396   2.069   9.113 -1.2616 -1.2567  3.6348
   83SAPS  H14Y 7866   6.444   1.907   9.060 -0.1383 -1.3643  0.7157
   83SAPS  C315 7867   6.608   2.042   9.043 -0.5906 -0.8920  0.3953
   83SAPS  H15X 7868   6.684   1.962   9.057 -0.2291 -0.7902 -0.9574
   83SAPS  H15Y 7869   6.644   2.136   9.090 -2.2040  0.7377 -1.5521
   83SAPS  C316 7870   6.590   2.058   8.887  0.3299  0.0282 -0.1434
   83SAPS  H16X 7871   6.582   1.954   8.847 -2.4481 -0.0612  0.5091
   83SAPS  H16Y 7872   6.681   2.101   8.840 -0.6620  0.9168 -1.2993
   83SAPS  C317 7873   6.488   2.160   8.839  0.5863  0.1385 -0.6549
   83SAPS  H17X 7874   6.491   2.248   8.907 -0.6937 -1.2412  1.2203
   83SAPS  H17Y 7875   6.385   2.126   8.858  0.4021  1.4103  0.7372
   83SAPS  C318 7876   6.498   2.184   8.685 -0.7144  0.6236 -0.7154
   83SAPS  H18X 7877   6.405   2.235   8.654 -0.9996  1.4404  1.3711
   83SAPS  H18Y 7878   6.494   2.087   8.631  1.1385 -0.3314  0.7911
   83SAPS  H18Z 7879   6.580   2.255   8.659 -1.3148  1.0375 -1.4988
   84SAPS     N 7880   0.987   1.773  10.820 -0.5685 -0.2900  0.0257
   84SAPS   HN1 7881   0.971   1.860  10.876 -0.5140 -0.8971  0.9935
   84SAPS   HN2 7882   1.069   1.787  10.757 -0.3376 -1.3303  0.0958
   84SAPS   HN3 7883   0.904   1.755  10.760 -0.5131 -0.4752  0.0049
   84SAPS   C12 7884   1.023   1.653  10.901 -0.3987 -0.4959  0.1630
   84SAPS  H12A 7885   1.101   1.687  10.968  0.9446  2.5865 -2.7676
   84SAPS   C13 7886   0.910   1.587  10.986  0.0639 -0.0889  0.1423
   84SAPS  O13A 7887   0.797   1.637  10.997  0.3650 -0.4752 -0.1586
   84SAPS  O13B 7888   0.940   1.486  11.058  0.3043  0.3403  0.3419
   84SAPS   C11 7889   1.074   1.540  10.818 -0.2414 -0.4908  0.9458
   84SAPS  H11A 7890   0.992   1.508  10.750 -0.6076  0.8104  0.7681
   84SAPS  H11B 7891   1.099   1.452  10.882  1.0145 -1.3706 -0.7057
   84SAPS     P 7892   1.333   1.519  10.752  0.0611 -0.1793 -0.0067
   84SAPS   O13 7893   1.421   1.608  10.673  0.1279  0.1460 -0.2796
   84SAPS   O14 7894   1.356   1.497  10.893  0.0607  0.1721  0.7044
   84SAPS   O12 7895   1.186   1.577  10.733 -0.4098 -0.1742 -0.1184
   84SAPS   O11 7896   1.326   1.378  10.686  0.2769  0.4069 -0.7716
   84SAPS    C1 7897   1.255   1.360  10.565  0.4971  0.7122  0.2555
   84SAPS    HA 7898   1.160   1.417  10.564  0.1686  0.2926  3.1906
   84SAPS    HB 7899   1.316   1.407  10.484  0.8765 -0.2789 -0.0453
   84SAPS    C2 7900   1.228   1.208  10.535  0.2397 -0.2737  0.2285
   84SAPS    HS 7901   1.170   1.164  10.619  0.5980 -0.3829  0.4256
   84SAPS   O21 7902   1.347   1.134  10.504  0.2383  0.0766  0.1013
   84SAPS   C21 7903   1.330   0.998  10.523  0.3735 -0.1215  0.1266
   84SAPS   O22 7904   1.222   0.948  10.559 -0.1053  0.4297  0.1192
   84SAPS   C22 7905   1.457   0.923  10.489  0.0680  0.6853  0.6812
   84SAPS   H2R 7906   1.466   0.927  10.378 -1.7865 -2.7667  0.3378
   84SAPS   H2S 7907   1.531   0.991  10.535 -0.0381  1.4029 -0.1707
   84SAPS    C3 7908   1.138   1.208  10.406  0.0024  0.2709  0.6148
   84SAPS    HX 7909   1.058   1.283  10.425  0.3895  0.7520  0.3593
   84SAPS    HY 7910   1.070   1.122  10.388 -0.2769  0.5498  0.3441
   84SAPS   O31 7911   1.220   1.252  10.294 -0.5074  0.7161  0.4365
   84SAPS   C31 7912   1.202   1.194  10.176 -0.6118  0.8134 -0.2571
   84SAPS   O32 7913   1.130   1.098  10.153 -0.3967  0.0329 -0.4430
   84SAPS   C32 7914   1.299   1.257  10.075 -0.6789  0.2047  1.0430
   84SAPS   H2X 7915   1.401   1.263  10.118  0.0566 -2.6449 -0.1861
   84SAPS   H2Y 7916   1.255   1.355  10.045 -3.2011 -0.7955  1.3033
   84SAPS   C23 7917   1.451   0.771  10.537  0.1795  0.5672  0.3782
   84SAPS   H3R 7918   1.408   0.757  10.639 -0.5568 -3.9778 -0.4822
   84SAPS   H3S 7919   1.556   0.735  10.544 -0.0602 -0.3458 -0.7567
   84SAPS   C24 7920   1.360   0.697  10.436  0.2291  0.3059 -0.7976
   84SAPS   H4R 7921   1.365   0.746  10.337 -3.4934  0.9995 -0.7121
   84SAPS   H4S 7922   1.255   0.723  10.459  0.2899 -0.2780  0.1564
   84SAPS   C25 7923   1.377   0.542  10.443  0.2113  0.0882  0.2890
   84SAPS   H5R 7924   1.371   0.490  10.540  3.4133 -0.1979  0.4016
   84SAPS   C26 7925   1.392   0.453  10.336  0.2169  0.5947 -0.2958
   84SAPS   H6R 7926   1.407   0.348  10.365 -0.1708  0.0133 -2.1320
   84SAPS   C27 7927   1.412   0.465  10.185  0.0563  0.4475 -0.0552
   84SAPS   H7R 7928   1.316   0.474  10.129  0.9705 -0.3132 -1.8045
   84SAPS   H7S 7929   1.455   0.365  10.164  0.6522  0.8632 -0.8468
   84SAPS   C28 7930   1.497   0.572  10.120 -0.7535 -0.6000  0.6160
   84SAPS   H8R 7931   1.500   0.671  10.168  1.6906 -0.3166 -0.0243
   84SAPS   C29 7932   1.556   0.561  10.002 -0.3236  0.0029  0.2612
   84SAPS   H9R 7933   1.606   0.654   9.970  0.2346  0.0941  1.3528
   84SAPS  C210 7934   1.548   0.453   9.898  0.6361 -0.1970 -0.4991
   84SAPS  H10R 7935   1.446   0.410   9.898  0.9926 -1.1295  2.0168
   84SAPS  H10S 7936   1.611   0.367   9.928 -0.4449 -1.1517 -0.9673
   84SAPS  C211 7937   1.595   0.501   9.766 -0.1058 -0.2456 -0.1798
   84SAPS  H11R 7938   1.703   0.498   9.744  0.1350 -1.6118  1.0959
   84SAPS  C212 7939   1.512   0.538   9.666  0.0336 -0.0703 -0.0130
   84SAPS  H12R 7940   1.556   0.565   9.569  1.1946 -1.0273  0.2384
   84SAPS  C213 7941   1.363   0.559   9.670 -0.1772 -0.3895  0.0759
   84SAPS  H13R 7942   1.315   0.532   9.766 -0.5838 -0.4889 -0.1555
   84SAPS  H13S 7943   1.329   0.499   9.583  1.1133 -0.2053 -0.5704
   84SAPS  C214 7944   1.319   0.703   9.652 -0.6926 -0.2946 -0.0809
   84SAPS  H14R 7945   1.335   0.747   9.552  0.3626 -2.3080 -0.8335
   84SAPS  C215 7946   1.264   0.791   9.741 -0.7654 -0.3918  0.2561
   84SAPS  H15R 7947   1.254   0.897   9.711 -2.6060 -0.9320 -1.1713
   84SAPS  C216 7948   1.238   0.763   9.885  0.4661  0.3008 -0.3520
   84SAPS  H16R 7949   1.294   0.846   9.933  1.1322  0.4003 -1.2799
   84SAPS  H16S 7950   1.283   0.666   9.915 -1.0091 -0.4678 -0.6314
   84SAPS  C217 7951   1.103   0.773   9.957 -0.2457 -0.3840 -0.0502
   84SAPS  H17R 7952   1.037   0.690   9.924 -0.2123  0.4594 -2.4004
   84SAPS  H17S 7953   1.050   0.860   9.911 -1.1901 -1.0305 -0.2093
   84SAPS  C218 7954   1.115   0.778  10.112  0.1903  0.2390 -0.3626
   84SAPS  H18R 7955   1.188   0.859  10.136  0.5368 -0.3131  0.4353
   84SAPS  H18S 7956   1.158   0.680  10.140  1.1049 -0.0553 -2.6744
   84SAPS  C219 7957   0.978   0.806  10.186  0.4263 -0.2209 -0.1693
   84SAPS  H19R 7958   0.918   0.722  10.144  0.8047 -0.8359  0.5238
   84SAPS  H19S 7959   0.941   0.905  10.152  0.2747  0.1334  1.0261
   84SAPS  C220 7960   0.982   0.797  10.332  0.4996  0.0437 -0.1613
   84SAPS  H20R 7961   0.875   0.794  10.361  0.8167  0.7740  1.1260
   84SAPS  H20S 7962   1.033   0.882  10.381 -1.0522  0.1703  1.2997
   84SAPS  H20T 7963   1.032   0.702  10.361  0.9803  0.3606  0.0508
   84SAPS   C33 7964   1.308   1.180   9.942  0.1762  0.6108 -0.5748
   84SAPS   H3X 7965   1.207   1.158   9.902  0.7123 -1.1179 -1.0174
   84SAPS   H3Y 7966   1.355   1.081   9.962 -0.4755  0.4113 -0.0483
   84SAPS   C34 7967   1.398   1.257   9.839  0.0804  0.1223 -0.4631
   84SAPS   H4X 7968   1.505   1.262   9.869 -0.0498  0.1440  0.0031
   84SAPS   H4Y 7969   1.361   1.361   9.841  1.8545  0.7725 -0.4723
   84SAPS   C35 7970   1.389   1.182   9.703  0.1689 -0.1632  0.4482
   84SAPS   H5X 7971   1.406   1.075   9.727 -1.9052 -0.3636  1.1884
   84SAPS   H5Y 7972   1.467   1.224   9.636 -2.7789  3.9287 -0.6331
   84SAPS   C36 7973   1.256   1.185   9.628  0.4377  0.0674  0.1021
   84SAPS   H6X 7974   1.229   1.291   9.614  1.6187  0.2501 -0.8667
   84SAPS   H6Y 7975   1.176   1.136   9.688  1.7723 -1.2766  0.8342
   84SAPS   C37 7976   1.262   1.135   9.484 -0.8161  0.1783  0.2703
   84SAPS   H7X 7977   1.160   1.125   9.441 -0.4368 -1.7629 -0.2343
   84SAPS   H7Y 7978   1.291   1.027   9.484 -1.1785  0.0744 -0.7741
   84SAPS   C38 7979   1.356   1.202   9.385 -0.0042 -0.3185 -0.0216
   84SAPS   H8X 7980   1.456   1.224   9.428  0.3876 -0.8221 -0.6692
   84SAPS   H8Y 7981   1.314   1.302   9.359  0.6551  0.4525  1.7826
   84SAPS   C39 7982   1.380   1.128   9.251 -0.0123 -0.6244 -0.0836
   84SAPS   H9X 7983   1.284   1.078   9.231  1.3774 -2.5626 -2.1412
   84SAPS   H9Y 7984   1.454   1.046   9.260  0.6374 -0.0958 -0.4968
   84SAPS  C310 7985   1.415   1.203   9.119  0.2401 -0.1494 -0.0235
   84SAPS  H10X 7986   1.342   1.286   9.112 -2.0840 -2.1594 -0.2065
   84SAPS  H10Y 7987   1.389   1.134   9.036 -1.4651 -0.9162  1.1209
   84SAPS  C311 7988   1.553   1.270   9.115  0.0113 -0.9091  0.0971
   84SAPS  H11X 7989   1.643   1.205   9.126  0.8691  0.1301 -0.7035
   84SAPS  H11Y 7990   1.553   1.350   9.192  2.1495  0.5156 -1.3377
   84SAPS  C312 7991   1.580   1.359   8.994  0.2416 -0.5172  0.2517
   84SAPS  H12X 7992   1.676   1.413   9.015  0.1567  0.0332 -0.7242
   84SAPS  H12Y 7993   1.497   1.430   8.974 -1.4891 -3.1181 -2.2791
   84SAPS  C313 7994   1.619   1.273   8.872  0.2123 -0.0225 -0.3673
   84SAPS  H13X 7995   1.542   1.194   8.854 -0.1374  0.3815 -0.6473
   84SAPS  H13Y 7996   1.716   1.221   8.890 -0.3189 -0.7589  0.4058
   84SAPS  C314 7997   1.635   1.368   8.751  0.3610  0.3767 -0.6405
   84SAPS  H14X 7998   1.685   1.460   8.788 -0.4444 -0.5027  2.8435
   84SAPS  H14Y 7999   1.535   1.402   8.715  0.0327  0.1828  0.0584
   84SAPS  C315 8000   1.721   1.315   8.637  0.7766  0.1009 -0.1766
   84SAPS  H15X 8001   1.818   1.287   8.684 -0.7624 -0.8290  2.5711
   84SAPS  H15Y 8002   1.731   1.403   8.570 -1.8060  1.4338  1.1314
   84SAPS  C316 8003   1.656   1.212   8.549  0.5214  0.6233  0.1107
   84SAPS  H16X 8004   1.719   1.198   8.458 -0.7650 -1.9149 -0.4287
   84SAPS  H16Y 8005   1.560   1.262   8.526 -0.0211  1.0337  3.0982
   84SAPS  C317 8006   1.637   1.073   8.612  0.6591 -0.3211 -0.0398
   84SAPS  H17X 8007   1.567   1.083   8.697  0.7473  0.8990 -0.1106
   84SAPS  H17Y 8008   1.740   1.044   8.645  1.5436  1.4009 -1.2393
   84SAPS  C318 8009   1.576   0.968   8.523  0.0662 -0.4358  0.5866
   84SAPS  H18X 8010   1.488   1.008   8.468  1.1337 -1.1035 -1.6464
   84SAPS  H18Y 8011   1.538   0.882   8.583  1.2424 -2.0356 -0.9087
   84SAPS  H18Z 8012   1.644   0.929   8.445 -0.4608  2.2139 -1.2451
   85SAPS     N 8013   4.810   2.924  11.037 -0.2209 -0.3657  0.1506
   85SAPS   HN1 8014   4.766   3.008  11.077  0.6484  0.3876 -0.4422
   85SAPS   HN2 8015   4.789   2.843  11.099 -0.6263 -0.6547 -0.3626
   85SAPS   HN3 8016   4.913   2.936  11.038 -0.2363 -0.3171  0.7516
   85SAPS   C12 8017   4.762   2.893  10.902 -0.2988 -0.4345  0.6420
   85SAPS  H12A 8018   4.657   2.871  10.907 -0.3146 -0.4437  0.2712
   85SAPS   C13 8019   4.779   3.001  10.786  0.4037  0.1095  0.7752
   85SAPS  O13A 8020   4.808   3.120  10.817 -0.6774 -0.1684 -0.0185
   85SAPS  O13B 8021   4.718   2.983  10.674  0.0200 -0.5645 -0.0141
   85SAPS   C11 8022   4.840   2.764  10.866  0.5931  1.2756  0.0542
   85SAPS  H11A 8023   4.944   2.802  10.861  1.3686 -0.9088 -1.1000
   85SAPS  H11B 8024   4.811   2.742  10.761 -3.0784  3.7270  0.4525
   85SAPS     P 8025   4.906   2.524  10.932 -0.0794 -0.0873 -0.4743
   85SAPS   O13 8026   5.044   2.556  10.968  0.1312  0.1166  0.1610
   85SAPS   O14 8027   4.841   2.412  10.996 -0.6887  0.3590 -0.2536
   85SAPS   O12 8028   4.813   2.651  10.960 -0.3343  0.0397 -0.4708
   85SAPS   O11 8029   4.890   2.507  10.774  0.4281 -0.2330  0.3508
   85SAPS    C1 8030   4.766   2.461  10.718 -0.3823  0.4339  1.0758
   85SAPS    HA 8031   4.723   2.377  10.777 -1.1574  0.4461  0.5363
   85SAPS    HB 8032   4.696   2.547  10.714 -0.2096  0.4862 -2.0056
   85SAPS    C2 8033   4.791   2.415  10.565  1.0442 -0.5047  0.2011
   85SAPS    HS 8034   4.878   2.349  10.585  1.7792  1.2272  2.9531
   85SAPS   O21 8035   4.829   2.519  10.479  0.6734 -0.2692  0.0433
   85SAPS   C21 8036   4.742   2.598  10.439  0.2348 -0.6234 -0.0779
   85SAPS   O22 8037   4.629   2.618  10.494 -0.2680  0.0287  0.5811
   85SAPS   C22 8038   4.796   2.659  10.309 -0.4280 -0.0344 -0.4165
   85SAPS   H2R 8039   4.885   2.602  10.273  0.3866 -0.3838  2.0427
   85SAPS   H2S 8040   4.713   2.644  10.237  0.2962 -0.7721 -1.1189
   85SAPS    C3 8041   4.677   2.323  10.508 -0.0348  0.1373  0.3719
   85SAPS    HX 8042   4.580   2.377  10.511  0.2536  0.7905 -1.4407
   85SAPS    HY 8043   4.667   2.239  10.579 -0.5824  1.0446  1.3884
   85SAPS   O31 8044   4.702   2.277  10.371 -0.0736 -1.0610 -0.0578
   85SAPS   C31 8045   4.787   2.177  10.369  0.5076  0.4997 -0.5056
   85SAPS   O32 8046   4.836   2.123  10.468 -0.3584 -0.1092  0.5569
   85SAPS   C32 8047   4.820   2.125  10.230 -0.0802 -0.5124  0.3595
   85SAPS   H2X 8048   4.739   2.061  10.190 -0.0502 -0.6969  0.5943
   85SAPS   H2Y 8049   4.916   2.069  10.234  2.9813  4.1359 -2.7257
   85SAPS   C23 8050   4.811   2.814  10.299  0.5413  0.5668  0.0839
   85SAPS   H3R 8051   4.850   2.852  10.396 -3.8371  0.4086  2.0027
   85SAPS   H3S 8052   4.717   2.872  10.290 -0.8545 -1.4145  1.7019
   85SAPS   C24 8053   4.899   2.854  10.176 -0.3606 -0.3564  0.9732
   85SAPS   H4R 8054   4.995   2.802  10.193  0.5483  0.4149 -1.6111
   85SAPS   H4S 8055   4.916   2.964  10.176 -1.2873 -0.2109  0.4781
   85SAPS   C25 8056   4.849   2.821  10.032 -0.2759  0.6694  0.9101
   85SAPS   H5R 8057   4.745   2.852  10.012  0.0148  1.5837  0.8261
   85SAPS   C26 8058   4.915   2.753   9.934 -1.0435 -0.7685  0.8932
   85SAPS   H6R 8059   4.861   2.749   9.839 -1.2903  2.0732  0.8490
   85SAPS   C27 8060   5.057   2.695   9.929 -0.0711 -0.4482 -0.4298
   85SAPS   H7R 8061   5.116   2.741  10.012  1.5069 -2.3726 -0.4562
   85SAPS   H7S 8062   5.120   2.713   9.840  0.0834  2.3592  0.2025
   85SAPS   C28 8063   5.040   2.552   9.968  0.1686  0.2934  0.5180
   85SAPS   H8R 8064   5.019   2.526  10.072  0.4022 -1.1167  0.2275
   85SAPS   C29 8065   5.063   2.453   9.875  0.8766  0.0832 -0.0954
   85SAPS   H9R 8066   5.049   2.351   9.915  1.1029 -0.0645 -0.3913
   85SAPS  C210 8067   5.098   2.466   9.728 -0.1434  0.3703 -0.4862
   85SAPS  H10R 8068   5.207   2.484   9.718  0.5079 -1.6043  2.3840
   85SAPS  H10S 8069   5.051   2.559   9.690 -2.2267 -0.5668 -0.2681
   85SAPS  C211 8070   5.065   2.346   9.649  0.5847  0.6982  0.1340
   85SAPS  H11R 8071   5.121   2.254   9.672  2.1036  1.6284  0.2401
   85SAPS  C212 8072   4.970   2.340   9.559 -0.2708 -0.6965 -0.3664
   85SAPS  H12R 8073   4.953   2.252   9.495  3.0191  0.2495 -2.6562
   85SAPS  C213 8074   4.878   2.450   9.514 -0.0710 -0.0838  0.1802
   85SAPS  H13R 8075   4.944   2.497   9.438 -0.5446 -0.5282 -0.5182
   85SAPS  H13S 8076   4.854   2.528   9.589 -2.6106  0.0626 -0.7499
   85SAPS  C214 8077   4.747   2.402   9.445  0.0628 -1.1711  0.1828
   85SAPS  H14R 8078   4.676   2.351   9.512 -0.5821 -2.2888 -1.3201
   85SAPS  C215 8079   4.716   2.393   9.318 -0.2701  0.1817  1.2177
   85SAPS  H15R 8080   4.622   2.341   9.293 -1.4224  1.7625  2.1622
   85SAPS  C216 8081   4.797   2.432   9.190  0.0322 -0.6733  0.2486
   85SAPS  H16R 8082   4.905   2.444   9.212 -0.0407  0.5095  0.0393
   85SAPS  H16S 8083   4.756   2.531   9.159  0.8214 -0.0004  1.3078
   85SAPS  C217 8084   4.792   2.330   9.072  0.2251  0.4822 -0.6885
   85SAPS  H17R 8085   4.690   2.316   9.032  0.1825 -0.2335 -0.3291
   85SAPS  H17S 8086   4.828   2.232   9.111  0.7843  1.3707  1.0625
   85SAPS  C218 8087   4.884   2.371   8.960  0.3057  0.2251 -0.4216
   85SAPS  H18R 8088   4.888   2.303   8.872  0.8100  0.4352 -0.5633
   85SAPS  H18S 8089   4.990   2.384   8.992 -0.0738  3.8228 -0.4127
   85SAPS  C219 8090   4.853   2.512   8.907 -0.0503  0.0979  0.3398
   85SAPS  H19R 8091   4.836   2.590   8.984  2.5882 -0.1539  1.2336
   85SAPS  H19S 8092   4.755   2.511   8.855  1.4992  2.8066 -2.8210
   85SAPS  C220 8093   4.948   2.571   8.809  0.5961 -0.2553  0.4587
   85SAPS  H20R 8094   5.040   2.601   8.864  1.4486 -0.5205 -0.8172
   85SAPS  H20S 8095   4.904   2.666   8.772  0.5388  0.0559  1.2963
   85SAPS  H20T 8096   4.977   2.509   8.722 -2.1503 -0.1863 -0.5531
   85SAPS   C33 8097   4.838   2.241  10.127 -0.0431  0.2442  0.2033
   85SAPS   H3X 8098   4.916   2.206  10.056  0.8363 -0.3941  1.4594
   85SAPS   H3Y 8099   4.877   2.332  10.177  0.6897  0.0994 -0.0907
   85SAPS   C34 8100   4.704   2.284  10.054 -0.4887 -0.1209 -0.3456
   85SAPS   H4X 8101   4.633   2.297  10.139 -0.2204 -0.6589 -0.0360
   85SAPS   H4Y 8102   4.666   2.198   9.996 -0.1036 -0.5055 -0.0322
   85SAPS   C35 8103   4.725   2.410   9.963 -0.4087 -0.3965  0.4515
   85SAPS   H5X 8104   4.788   2.388   9.873 -1.7317  1.4371 -0.9707
   85SAPS   H5Y 8105   4.776   2.493  10.018 -0.7959 -0.3397  0.7209
   85SAPS   C36 8106   4.595   2.452   9.890  0.0100 -0.3306 -0.1058
   85SAPS   H6X 8107   4.531   2.494   9.972 -0.0060 -0.8729  0.1588
   85SAPS   H6Y 8108   4.550   2.364   9.840 -1.2342  1.2454 -1.8330
   85SAPS   C37 8109   4.613   2.545   9.773 -0.1061 -0.7488  0.4795
   85SAPS   H7X 8110   4.681   2.507   9.694  0.2291  1.4187 -0.3166
   85SAPS   H7Y 8111   4.645   2.645   9.809  1.1344 -0.2630 -1.8397
   85SAPS   C38 8112   4.482   2.572   9.705  0.4924  0.3489 -0.0472
   85SAPS   H8X 8113   4.407   2.617   9.774  0.1258 -0.0694 -0.1705
   85SAPS   H8Y 8114   4.452   2.472   9.668 -0.1145  1.8917 -3.8928
   85SAPS   C39 8115   4.495   2.652   9.577 -0.4559  0.0664 -0.5232
   85SAPS   H9X 8116   4.560   2.592   9.509 -0.4383 -2.0406  1.3174
   85SAPS   H9Y 8117   4.519   2.759   9.594  0.4861 -0.0587 -0.9929
   85SAPS  C310 8118   4.360   2.650   9.507 -0.2976  0.1541  0.2987
   85SAPS  H10X 8119   4.276   2.676   9.575 -1.7582  1.1779 -1.8560
   85SAPS  H10Y 8120   4.338   2.542   9.489 -0.6929  0.3619 -0.4922
   85SAPS  C311 8121   4.355   2.734   9.377 -0.7647 -0.1110  0.0061
   85SAPS  H11X 8122   4.376   2.838   9.410  0.4591 -0.1420 -0.6316
   85SAPS  H11Y 8123   4.254   2.731   9.331 -0.1109 -0.7803 -1.4191
   85SAPS  C312 8124   4.461   2.682   9.271  1.4533  0.0939  0.4845
   85SAPS  H12X 8125   4.447   2.572   9.267  1.3104  0.0828  1.1657
   85SAPS  H12Y 8126   4.565   2.700   9.305  0.6100  2.7616  1.8201
   85SAPS  C313 8127   4.449   2.748   9.128  0.3941 -0.5145  0.1648
   85SAPS  H13X 8128   4.429   2.856   9.144  3.1374  0.3247 -1.5438
   85SAPS  H13Y 8129   4.358   2.706   9.081  0.8673 -1.4204  0.0364
   85SAPS  C314 8130   4.567   2.729   9.035  1.1305 -0.7628 -0.1660
   85SAPS  H14X 8131   4.579   2.624   9.000 -0.1143 -1.4463  1.3838
   85SAPS  H14Y 8132   4.656   2.751   9.097  1.2506 -0.2246 -0.5210
   85SAPS  C315 8133   4.572   2.837   8.922  0.9215 -0.4407  0.1318
   85SAPS  H15X 8134   4.468   2.867   8.894 -0.1828 -4.0100  0.1533
   85SAPS  H15Y 8135   4.613   2.792   8.829  1.3970 -1.1974  0.7145
   85SAPS  C316 8136   4.647   2.973   8.949 -0.0891  0.0731  0.7585
   85SAPS  H16X 8137   4.597   3.028   9.032  0.2321 -1.7592  2.2009
   85SAPS  H16Y 8138   4.626   3.028   8.855  1.7176  0.0379  0.3204
   85SAPS  C317 8139   4.801   2.959   8.958 -0.8912  0.5669  0.3550
   85SAPS  H17X 8140   4.847   2.893   8.881 -3.9287 -2.9647  1.4535
   85SAPS  H17Y 8141   4.804   2.904   9.054  1.8767  0.0730  0.0305
   85SAPS  C318 8142   4.882   3.094   8.962 -0.3227 -0.5411  0.7624
   85SAPS  H18X 8143   4.890   3.147   8.864 -0.7683 -1.8016  0.0366
   85SAPS  H18Y 8144   4.986   3.061   8.982  0.3999  1.4915  0.5640
   85SAPS  H18Z 8145   4.844   3.174   9.030 -1.2657  0.1953 -0.6092
   86SAPS     N 8146   6.746   3.586  10.965  0.1941  0.3554 -0.8578
   86SAPS   HN1 8147   6.761   3.581  10.863 -0.1042  0.2001 -0.8931
   86SAPS   HN2 8148   6.664   3.649  10.979 -0.9980 -1.1350 -1.0708
   86SAPS   HN3 8149   6.831   3.629  11.009 -1.0403 -0.6080  2.6539
   86SAPS   C12 8150   6.729   3.450  11.021  0.8541  0.3660 -0.8236
   86SAPS  H12A 8151   6.824   3.400  11.008 -0.1219 -1.2026 -2.1969
   86SAPS   C13 8152   6.686   3.449  11.175  0.7921 -0.4173  0.3851
   86SAPS  O13A 8153   6.691   3.553  11.246 -0.3331  0.1598  0.2146
   86SAPS  O13B 8154   6.675   3.339  11.235  0.0503  0.0591  0.2388
   86SAPS   C11 8155   6.615   3.377  10.946 -0.2616  0.1082 -0.3153
   86SAPS  H11A 8156   6.511   3.416  10.956  0.2577  0.9959  2.0830
   86SAPS  H11B 8157   6.618   3.280  11.001  0.5528  0.2727 -0.0617
   86SAPS     P 8158   6.566   3.246  10.728 -0.0197 -0.1679 -0.1377
   86SAPS   O13 8159   6.642   3.119  10.744  0.2870 -0.0140 -0.0794
   86SAPS   O14 8160   6.427   3.254  10.765 -0.1278 -0.1406  0.5087
   86SAPS   O12 8161   6.643   3.359  10.806  0.7553  0.4635  0.5066
   86SAPS   O11 8162   6.585   3.294  10.580 -0.1332 -0.0196 -0.3313
   86SAPS    C1 8163   6.710   3.308  10.516  1.4023 -0.0086 -0.3269
   86SAPS    HA 8164   6.742   3.413  10.503  2.1023 -0.4222 -2.0458
   86SAPS    HB 8165   6.792   3.267  10.580  0.3505  0.6219  1.4507
   86SAPS    C2 8166   6.716   3.244  10.376 -0.1129  0.4044 -0.0989
   86SAPS    HS 8167   6.821   3.267  10.348  0.1087  0.3266  0.6532
   86SAPS   O21 8168   6.619   3.312  10.285  0.3524  0.0499  0.0653
   86SAPS   C21 8169   6.659   3.326  10.159  0.1859  0.6922  0.3772
   86SAPS   O22 8170   6.771   3.305  10.119 -0.0739  0.3083  0.1565
   86SAPS   C22 8171   6.536   3.341  10.062  0.3691  0.3915 -0.3141
   86SAPS   H2R 8172   6.469   3.256  10.089 -0.8915  1.3190 -0.4805
   86SAPS   H2S 8173   6.489   3.439  10.084 -0.5033 -0.4858  2.0032
   86SAPS    C3 8174   6.694   3.085  10.392 -0.0462 -0.5313  0.1904
   86SAPS    HX 8175   6.600   3.058  10.445 -0.8731  0.9628 -0.4659
   86SAPS    HY 8176   6.765   3.040  10.463 -3.7554 -0.7334  3.9858
   86SAPS   O31 8177   6.703   3.017  10.264 -0.1647 -1.1571  0.2897
   86SAPS   C31 8178   6.834   3.004  10.226 -0.8077  0.0979  0.1283
   86SAPS   O32 8179   6.924   3.034  10.301 -0.1495 -0.5315  0.1512
   86SAPS   C32 8180   6.846   2.927  10.093  0.4386  0.0608  0.7799
   86SAPS   H2X 8181   6.756   2.862  10.091 -0.5362  1.4281 -0.4659
   86SAPS   H2Y 8182   6.936   2.862  10.106  0.0792 -0.4236  0.8292
   86SAPS   C23 8183   6.578   3.316   9.915  0.8144 -0.2375  0.6472
   86SAPS   H3R 8184   6.594   3.207   9.903 -3.1151 -0.8529  0.1605
   86SAPS   H3S 8185   6.678   3.355   9.889  0.2971  0.1113 -0.8672
   86SAPS   C24 8186   6.477   3.383   9.807 -0.1506  0.2262 -0.7391
   86SAPS   H4R 8187   6.517   3.368   9.705  1.4254 -1.9978  0.1602
   86SAPS   H4S 8188   6.479   3.494   9.812  1.1911  0.1129  2.5227
   86SAPS   C25 8189   6.337   3.329   9.812 -0.5207  1.1033  0.2767
   86SAPS   H5R 8190   6.274   3.378   9.888  1.7091  1.4314  1.9756
   86SAPS   C26 8191   6.285   3.224   9.743 -0.3307 -0.1661  0.4054
   86SAPS   H6R 8192   6.179   3.199   9.755 -0.5132  0.0063 -0.8485
   86SAPS   C27 8193   6.364   3.140   9.646  0.3029  0.1308 -0.2742
   86SAPS   H7R 8194   6.358   3.033   9.674 -1.7610 -0.0639 -1.4116
   86SAPS   H7S 8195   6.471   3.170   9.638  0.0178  1.0361 -0.7846
   86SAPS   C28 8196   6.309   3.143   9.502 -0.7775 -0.1086 -0.0185
   86SAPS   H8R 8197   6.200   3.160   9.505 -0.8992 -0.4538 -1.9370
   86SAPS   C29 8198   6.382   3.158   9.386  0.6139 -0.7779  0.2393
   86SAPS   H9R 8199   6.330   3.144   9.290  0.6108  0.5006  0.0501
   86SAPS  C210 8200   6.528   3.168   9.377  0.0456  0.4225 -0.2769
   86SAPS  H10R 8201   6.552   3.145   9.271  1.0769 -0.9710  0.2449
   86SAPS  H10S 8202   6.580   3.095   9.443 -0.0491  0.4189 -0.2073
   86SAPS  C211 8203   6.578   3.308   9.411 -0.3468  0.4008  0.2767
   86SAPS  H11R 8204   6.577   3.340   9.516  2.5088 -0.0122  0.4722
   86SAPS  C212 8205   6.649   3.394   9.336 -0.6255  0.3731 -0.3476
   86SAPS  H12R 8206   6.677   3.492   9.376  1.2516 -0.6622  0.9280
   86SAPS  C213 8207   6.703   3.364   9.194 -0.2803  0.1781 -0.2301
   86SAPS  H13R 8208   6.730   3.257   9.181  0.0924  0.3231 -0.6891
   86SAPS  H13S 8209   6.805   3.405   9.180  0.0437 -0.0860  1.2689
   86SAPS  C214 8210   6.610   3.403   9.082  0.0555  0.0277 -0.0155
   86SAPS  H14R 8211   6.504   3.379   9.098 -0.4207  2.9632  1.5913
   86SAPS  C215 8212   6.642   3.453   8.959  0.7372  0.6381  0.4230
   86SAPS  H15R 8213   6.560   3.494   8.897 -0.2931 -2.3359 -0.2739
   86SAPS  C216 8214   6.778   3.469   8.897  0.4767 -0.1091  0.0521
   86SAPS  H16R 8215   6.834   3.392   8.953  1.0435 -0.4691 -0.9891
   86SAPS  H16S 8216   6.814   3.572   8.917  1.6753 -0.5019 -0.0531
   86SAPS  C217 8217   6.777   3.429   8.749  0.1526 -0.3554  0.3496
   86SAPS  H17R 8218   6.721   3.506   8.692  0.1259 -1.8097 -1.6527
   86SAPS  H17S 8219   6.733   3.329   8.730 -1.3393 -0.3098  3.3347
   86SAPS  C218 8220   6.924   3.447   8.696  0.4365 -0.4429  0.2019
   86SAPS  H18R 8221   6.999   3.379   8.743  1.9736  0.3227 -1.1017
   86SAPS  H18S 8222   6.955   3.550   8.721  0.7171 -0.5051  0.1208
   86SAPS  C219 8223   6.924   3.428   8.542 -0.1923 -0.0619  0.1875
   86SAPS  H19R 8224   6.876   3.516   8.494  1.4149 -0.5983 -2.4911
   86SAPS  H19S 8225   6.852   3.346   8.522 -0.8034 -0.3159  3.2000
   86SAPS  C220 8226   7.065   3.410   8.491  0.4132 -0.0702 -0.1210
   86SAPS  H20R 8227   7.070   3.358   8.393  1.3036  0.7253 -0.4962
   86SAPS  H20S 8228   7.132   3.359   8.564 -0.3253  0.5820  1.0428
   86SAPS  H20T 8229   7.119   3.507   8.480  1.5079 -0.7237 -0.5969
   86SAPS   C33 8230   6.869   3.010   9.967 -0.6274  0.0697  0.4140
   86SAPS   H3X 8231   6.944   3.089   9.991 -1.0460  1.3993 -2.4134
   86SAPS   H3Y 8232   6.778   3.072   9.948 -0.6317 -0.0280  0.1224
   86SAPS   C34 8233   6.925   2.944   9.840  0.1844 -0.2289  0.1132
   86SAPS   H4X 8234   6.853   2.865   9.809 -0.3692  0.8208 -1.3612
   86SAPS   H4Y 8235   7.007   2.880   9.876  0.2711 -0.8934 -1.2204
   86SAPS   C35 8236   6.954   3.047   9.723  0.0065 -0.0256 -0.1653
   86SAPS   H5X 8237   7.026   3.128   9.747 -1.4289  1.4919 -0.8914
   86SAPS   H5Y 8238   6.859   3.103   9.709 -1.6843 -2.7178  0.1017
   86SAPS   C36 8239   6.987   2.976   9.590  0.3008  0.3616  0.3276
   86SAPS   H6X 8240   6.920   2.888   9.578 -1.7396  1.7728  1.1823
   86SAPS   H6Y 8241   7.089   2.933   9.579  0.7724  1.4604  0.3726
   86SAPS   C37 8242   6.960   3.059   9.463 -0.4010 -1.2744  0.2420
   86SAPS   H7X 8243   7.039   3.136   9.472  0.0865 -1.5939 -1.1119
   86SAPS   H7Y 8244   6.859   3.099   9.487 -0.4711 -0.3041 -1.5520
   86SAPS   C38 8245   6.976   2.988   9.327 -0.2267 -0.5144 -1.1147
   86SAPS   H8X 8246   6.906   2.902   9.322 -0.2470 -0.4814 -1.3559
   86SAPS   H8Y 8247   7.072   2.931   9.324 -0.6420 -1.5542  2.2548
   86SAPS   C39 8248   6.976   3.082   9.207 -0.2544  0.0528 -0.0917
   86SAPS   H9X 8249   7.075   3.131   9.221  0.3915 -0.1438 -3.3818
   86SAPS   H9Y 8250   6.893   3.155   9.215  0.8722  1.2603  1.0027
   86SAPS  C310 8251   6.983   3.002   9.077  0.4797  0.2292 -0.2805
   86SAPS  H10X 8252   6.912   2.918   9.089  1.3822 -0.3066  1.4820
   86SAPS  H10Y 8253   7.077   2.944   9.069  0.2562  0.0451 -1.7017
   86SAPS  C311 8254   6.968   3.099   8.959  0.2636  0.2395  0.3515
   86SAPS  H11X 8255   7.057   3.165   8.955 -0.1473  0.7201 -1.1899
   86SAPS  H11Y 8256   6.876   3.159   8.971  0.0612 -0.4389  2.4550
   86SAPS  C312 8257   6.971   3.011   8.833  0.4320 -0.2586  0.2968
   86SAPS  H12X 8258   6.892   2.934   8.841  1.6419 -1.6873 -0.9714
   86SAPS  H12Y 8259   7.073   2.967   8.837  2.2494  3.8345  1.8796
   86SAPS  C313 8260   6.951   3.083   8.703  0.0090  0.0754  0.0881
   86SAPS  H13X 8261   7.017   3.173   8.699  0.3883 -0.2919 -1.9690
   86SAPS  H13Y 8262   6.846   3.119   8.701 -0.1174 -0.2418  0.6629
   86SAPS  C314 8263   6.968   2.981   8.587 -0.0015  0.6325 -0.2055
   86SAPS  H14X 8264   7.071   2.941   8.597 -0.6842 -1.4011 -0.9819
   86SAPS  H14Y 8265   6.968   3.026   8.486  1.3428 -1.1325 -1.0146
   86SAPS  C315 8266   6.871   2.862   8.588  0.0648 -0.2275  0.0064
   86SAPS  H15X 8267   6.853   2.809   8.684 -1.5735 -1.2567 -0.8493
   86SAPS  H15Y 8268   6.914   2.786   8.520  2.2908 -1.3478  2.5838
   86SAPS  C316 8269   6.735   2.903   8.539  0.4491  0.5800  0.2369
   86SAPS  H16X 8270   6.744   2.970   8.451  1.3649 -2.4559 -2.0717
   86SAPS  H16Y 8271   6.685   2.949   8.627  0.7996 -0.6922  1.1225
   86SAPS  C317 8272   6.655   2.779   8.483 -0.5067  0.2414 -0.0891
   86SAPS  H17X 8273   6.553   2.819   8.466 -1.5412 -2.4500 -0.5096
   86SAPS  H17Y 8274   6.652   2.703   8.564 -0.1057  0.5676  0.2364
   86SAPS  C318 8275   6.710   2.708   8.351  0.7478 -0.1217 -0.4378
   86SAPS  H18X 8276   6.720   2.786   8.273  0.6629  0.4250  0.0972
   86SAPS  H18Y 8277   6.636   2.637   8.308 -1.4018  1.5955  0.3079
   86SAPS  H18Z 8278   6.806   2.657   8.373  0.3843  0.2192  2.1789
   87SAPS     N 8279   0.715   3.836  10.966 -0.1794 -0.0353  0.0162
   87SAPS   HN1 8280   0.771   3.923  10.978  0.2066 -0.2600 -0.1548
   87SAPS   HN2 8281   0.776   3.752  10.964  2.1515  1.6376 -1.0887
   87SAPS   HN3 8282   0.678   3.849  10.870  2.1581 -1.0231 -1.0418
   87SAPS   C12 8283   0.613   3.812  11.077  0.6880  0.3793  0.0199
   87SAPS  H12A 8284   0.665   3.761  11.156 -0.2963 -1.0460 -0.2329
   87SAPS   C13 8285   0.552   3.948  11.129  0.0807 -0.8645 -0.0298
   87SAPS  O13A 8286   0.592   4.056  11.083  0.3984 -0.0475 -0.5837
   87SAPS  O13B 8287   0.482   3.945  11.235 -0.1605 -0.6469  0.1508
   87SAPS   C11 8288   0.487   3.734  11.032 -0.3951  0.0572  0.1098
   87SAPS  H11A 8289   0.413   3.728  11.115  2.0500  1.5456  2.5018
   87SAPS  H11B 8290   0.517   3.628  11.018  0.3874  0.5584 -2.2711
   87SAPS     P 8291   0.282   3.796  10.870 -0.3103 -0.8012  0.1981
   87SAPS   O13 8292   0.205   3.694  10.939  0.8085 -0.3893 -0.2337
   87SAPS   O14 8293   0.254   3.937  10.898  0.2151  0.2860 -0.0524
   87SAPS   O12 8294   0.436   3.769  10.905 -0.0093  0.3397 -0.2363
   87SAPS   O11 8295   0.272   3.771  10.717 -0.0356  0.3869  0.8882
   87SAPS    C1 8296   0.337   3.859  10.624 -0.3075 -0.2218  0.5352
   87SAPS    HA 8297   0.325   3.964  10.657 -0.2343  0.1215 -0.5417
   87SAPS    HB 8298   0.446   3.841  10.621 -0.5636 -2.4344  2.5567
   87SAPS    C2 8299   0.283   3.843  10.485 -0.8282  0.5769 -0.0729
   87SAPS    HS 8300   0.172   3.844  10.488 -0.8270 -0.3945  0.6563
   87SAPS   O21 8301   0.337   3.724  10.427 -0.0505 -0.1153 -0.8527
   87SAPS   C21 8302   0.245   3.629  10.406 -0.8733 -0.0636 -0.6713
   87SAPS   O22 8303   0.139   3.615  10.462 -0.2756 -0.6550 -0.4334
   87SAPS   C22 8304   0.284   3.549  10.277 -0.3018 -0.1392 -0.0018
   87SAPS   H2R 8305   0.394   3.534  10.277  0.0545  2.1787  2.1983
   87SAPS   H2S 8306   0.238   3.448  10.281 -0.4353 -0.0817 -0.1217
   87SAPS    C3 8307   0.331   3.961  10.398 -0.0228 -0.6634 -0.2112
   87SAPS    HX 8308   0.441   3.949  10.385  0.2322 -0.0664  1.2721
   87SAPS    HY 8309   0.317   4.057  10.452 -2.0782 -1.8850  1.5116
   87SAPS   O31 8310   0.270   3.978  10.267 -0.1406  0.0584 -0.4064
   87SAPS   C31 8311   0.150   4.032  10.280 -0.2389 -0.6309 -0.8018
   87SAPS   O32 8312   0.086   4.046  10.386  0.7418  0.3966 -0.4041
   87SAPS   C32 8313   0.083   4.071  10.146  0.0533  0.1540 -0.3235
   87SAPS   H2X 8314   0.058   3.967  10.116  1.1521 -0.6760  1.5452
   87SAPS   H2Y 8315   0.162   4.103  10.076 -0.3777 -1.2129 -1.4438
   87SAPS   C23 8316   0.225   3.624  10.145 -0.0136 -0.4029 -0.3018
   87SAPS   H3R 8317   0.260   3.728  10.160 -2.4897  0.2367  1.2172
   87SAPS   H3S 8318   0.115   3.625  10.155 -0.0828 -0.5731 -1.0682
   87SAPS   C24 8319   0.286   3.577  10.009 -0.1464  0.0163  0.0375
   87SAPS   H4R 8320   0.396   3.567  10.025 -0.0841 -0.7936 -0.8271
   87SAPS   H4S 8321   0.265   3.648   9.926 -0.0328  1.8550  1.5719
   87SAPS   C25 8322   0.236   3.443   9.985 -0.1668  0.4486  0.7629
   87SAPS   H5R 8323   0.266   3.369  10.061 -0.6490  1.0363  1.5390
   87SAPS   C26 8324   0.175   3.394   9.875 -0.2283 -0.4578  0.1465
   87SAPS   H6R 8325   0.136   3.291   9.873  2.2121 -1.3820 -1.0096
   87SAPS   C27 8326   0.131   3.480   9.757  0.7123 -0.3040  0.0806
   87SAPS   H7R 8327   0.219   3.547   9.743 -0.4451  0.5288 -3.5859
   87SAPS   H7S 8328   0.039   3.538   9.782 -0.4218 -0.8981 -2.6358
   87SAPS   C28 8329   0.096   3.386   9.645  0.0069  0.1701 -1.0807
   87SAPS   H8R 8330   0.021   3.308   9.667  3.0707 -1.8083  2.9390
   87SAPS   C29 8331   0.148   3.391   9.521 -0.1694 -0.7058 -0.4658
   87SAPS   H9R 8332   0.114   3.316   9.448 -2.3481 -0.0283 -0.1869
   87SAPS  C210 8333   0.240   3.492   9.474  1.0252 -0.3165 -0.6528
   87SAPS  H10R 8334   0.291   3.448   9.386  0.9712 -0.2430 -0.7187
   87SAPS  H10S 8335   0.323   3.494   9.548  1.9524  0.8505 -1.7104
   87SAPS  C211 8336   0.184   3.629   9.444 -0.5809 -0.0657 -0.2014
   87SAPS  H11R 8337   0.099   3.676   9.495 -0.2999  0.7326 -0.4552
   87SAPS  C212 8338   0.233   3.695   9.336  0.0312  0.3137 -0.9260
   87SAPS  H12R 8339   0.192   3.796   9.322 -1.7496 -0.1471  0.7463
   87SAPS  C213 8340   0.333   3.662   9.238  0.4983  0.3246  0.7155
   87SAPS  H13R 8341   0.415   3.623   9.303  1.2387 -0.6540 -0.7691
   87SAPS  H13S 8342   0.370   3.755   9.190  1.2765  0.2904  1.2512
   87SAPS  C214 8343   0.284   3.559   9.136 -0.5493  0.0118  0.3995
   87SAPS  H14R 8344   0.226   3.475   9.176 -1.9980  2.0189  2.6221
   87SAPS  C215 8345   0.312   3.573   9.007 -0.4096  0.3858 -0.3953
   87SAPS  H15R 8346   0.285   3.495   8.935 -2.8962  0.8938 -0.0748
   87SAPS  C216 8347   0.397   3.678   8.941 -0.1729 -0.3765  0.4829
   87SAPS  H16R 8348   0.475   3.713   9.012 -1.1241  0.0687  1.3177
   87SAPS  H16S 8349   0.324   3.759   8.917 -1.4089 -1.4978  0.4039
   87SAPS  C217 8350   0.482   3.646   8.814 -0.6958  0.1113 -0.0293
   87SAPS  H17R 8351   0.418   3.602   8.734  0.5077 -1.6986 -0.0303
   87SAPS  H17S 8352   0.552   3.561   8.830  0.3004  0.9424  0.0367
   87SAPS  C218 8353   0.565   3.767   8.767  0.3823 -0.6540  0.9334
   87SAPS  H18R 8354   0.643   3.785   8.844 -1.6249 -2.4653  3.5100
   87SAPS  H18S 8355   0.498   3.854   8.758  3.5288  1.6097 -1.6523
   87SAPS  C219 8356   0.621   3.732   8.630 -0.2227 -1.1059 -0.4412
   87SAPS  H19R 8357   0.568   3.643   8.589 -0.9759 -1.3628  1.0598
   87SAPS  H19S 8358   0.728   3.702   8.640  0.1951 -0.7412 -3.4985
   87SAPS  C220 8359   0.616   3.849   8.538 -0.5733 -0.4765  0.6231
   87SAPS  H20R 8360   0.514   3.874   8.501  0.2302  2.0910  0.0018
   87SAPS  H20S 8361   0.667   3.817   8.444 -3.1627 -0.1382 -0.9678
   87SAPS  H20T 8362   0.658   3.947   8.569 -0.1576 -0.2465 -0.6286
   87SAPS   C33 8363  -0.036   4.173  10.156  0.5289 -0.1946  0.7616
   87SAPS   H3X 8364   0.002   4.262  10.210 -2.4705  3.4070 -2.6915
   87SAPS   H3Y 8365  -0.117   4.116  10.206 -1.3904 -0.9905 -3.0074
   87SAPS   C34 8366  -0.086   4.241  10.031  0.6488  0.0047 -0.4101
   87SAPS   H4X 8367  -0.171   4.309  10.054 -0.6666 -1.4065 -0.9844
   87SAPS   H4Y 8368  -0.119   4.157   9.966  0.2627  0.8342 -1.2903
   87SAPS   C35 8369   0.021   4.323   9.953 -0.3210 -0.6367 -0.4866
   87SAPS   H5X 8370   0.103   4.256   9.918  0.2659 -1.2370  1.9401
   87SAPS   H5Y 8371   0.072   4.390  10.026  0.3620  0.1162 -1.6248
   87SAPS   C36 8372  -0.043   4.402   9.837 -0.1119  0.4496  0.0848
   87SAPS   H6X 8373  -0.125   4.461   9.881 -0.9654  1.5679 -2.9092
   87SAPS   H6Y 8374  -0.080   4.329   9.762 -1.1027 -0.5795  1.5411
   87SAPS   C37 8375   0.051   4.500   9.770 -0.3525 -0.3945  0.5299
   87SAPS   H7X 8376   0.149   4.449   9.756  1.0394  2.3709 -0.2877
   87SAPS   H7Y 8377   0.070   4.585   9.840  1.2170 -1.1989  1.1097
   87SAPS   C38 8378   0.006   4.563   9.638  0.7449  0.2495  0.3735
   87SAPS   H8X 8379  -0.099   4.598   9.631  0.9686  0.9679  0.5203
   87SAPS   H8Y 8380   0.013   4.483   9.561 -1.5407  0.4855 -0.1372
   87SAPS   C39 8381   0.101   4.681   9.584  0.4425  0.2649 -1.1785
   87SAPS   H9X 8382   0.203   4.639   9.571 -0.0976 -0.7092 -2.3514
   87SAPS   H9Y 8383   0.104   4.767   9.654 -1.3352 -0.9894  0.5019
   87SAPS  C310 8384   0.053   4.756   9.463 -0.2404  0.2387 -0.2885
   87SAPS  H10X 8385   0.133   4.827   9.434 -0.3129  1.3387  2.0764
   87SAPS  H10Y 8386  -0.043   4.812   9.474 -0.5573 -0.8483  2.8442
   87SAPS  C311 8387   0.029   4.657   9.341  0.6561  0.0591 -0.1650
   87SAPS  H11X 8388  -0.080   4.634   9.337  0.3286  1.1894  1.5309
   87SAPS  H11Y 8389   0.094   4.568   9.351 -0.0423 -0.5539 -0.9407
   87SAPS  C312 8390   0.051   4.721   9.200  0.1223  0.6789  0.2812
   87SAPS  H12X 8391   0.001   4.820   9.191  2.4797  1.7243 -1.6263
   87SAPS  H12Y 8392   0.010   4.664   9.115  2.7100 -0.4638 -0.2419
   87SAPS  C313 8393   0.198   4.753   9.172  0.3482 -0.8737  0.3355
   87SAPS  H13X 8394   0.243   4.656   9.141 -2.2982 -1.4267 -1.9871
   87SAPS  H13Y 8395   0.257   4.791   9.259  1.1102 -0.3052 -0.4290
   87SAPS  C314 8396   0.213   4.867   9.068  0.0282  1.4110  0.3940
   87SAPS  H14X 8397   0.323   4.880   9.057  0.5221 -2.4094 -0.0277
   87SAPS  H14Y 8398   0.165   4.960   9.105  0.1485  0.9284  1.8073
   87SAPS  C315 8399   0.150   4.826   8.938 -0.1211 -0.3424 -0.4535
   87SAPS  H15X 8400   0.046   4.789   8.950  0.0215 -0.5472  0.1922
   87SAPS  H15Y 8401   0.207   4.737   8.904  3.7652  1.1890  1.7783
   87SAPS  C316 8402   0.145   4.935   8.830 -0.0074 -0.5550 -0.0991
   87SAPS  H16X 8403   0.252   4.964   8.818  0.5168 -1.2938  2.4146
   87SAPS  H16Y 8404   0.093   5.018   8.883 -2.2976 -2.4516  0.7199
   87SAPS  C317 8405   0.088   4.878   8.695 -0.0644  0.0490 -0.4110
   87SAPS  H17X 8406   0.011   4.800   8.710 -1.2668  1.4993  1.1679
   87SAPS  H17Y 8407   0.181   4.826   8.662  0.1331  0.8084 -1.0848
   87SAPS  C318 8408   0.043   4.988   8.601  0.2971  0.3344 -0.2197
   87SAPS  H18X 8409  -0.016   5.069   8.649 -1.5807 -0.0557 -1.7925
   87SAPS  H18Y 8410  -0.020   4.960   8.514  1.8448 -0.6256 -1.0515
   87SAPS  H18Z 8411   0.137   5.026   8.555  0.8191 -1.0977 -0.3786
   88SAPS     N 8412   2.508   1.826  11.041  0.1831 -0.8685 -0.5299
   88SAPS   HN1 8413   2.443   1.766  10.986 -0.9465  1.0685 -1.3689
   88SAPS   HN2 8414   2.581   1.770  11.089 -0.4450 -2.1400 -1.0300
   88SAPS   HN3 8415   2.458   1.867  11.123 -1.1138 -0.1202 -1.6590
   88SAPS   C12 8416   2.574   1.916  10.949  0.2341 -0.1907  1.0723
   88SAPS  H12A 8417   2.507   1.989  10.906  1.1607 -0.8127 -1.5123
   88SAPS   C13 8418   2.679   2.009  11.004 -0.0292 -0.3121 -0.2265
   88SAPS  O13A 8419   2.702   1.996  11.131 -0.4332  0.2906  0.3315
   88SAPS  O13B 8420   2.723   2.104  10.937  0.3770  0.0837  0.3406
   88SAPS   C11 8421   2.633   1.835  10.826 -0.3107  0.7940  0.2088
   88SAPS  H11A 8422   2.707   1.897  10.771  1.8146 -0.6291  1.3900
   88SAPS  H11B 8423   2.554   1.803  10.755 -0.9974  2.7014  0.1011
   88SAPS     P 8424   2.842   1.664  10.860 -0.0927  0.0379 -0.3634
   88SAPS   O13 8425   2.943   1.770  10.909  0.4003 -0.5163 -0.1414
   88SAPS   O14 8426   2.857   1.529  10.908  0.3510  0.3241  0.0701
   88SAPS   O12 8427   2.696   1.713  10.890  0.3321  0.3224  0.3237
   88SAPS   O11 8428   2.845   1.666  10.701  0.1100  0.9030 -0.2971
   88SAPS    C1 8429   2.969   1.678  10.635 -0.1250  0.4454 -0.3043
   88SAPS    HA 8430   2.976   1.783  10.600  2.9618  0.2429 -0.4947
   88SAPS    HB 8431   3.055   1.664  10.705  0.3029  0.9754 -0.7202
   88SAPS    C2 8432   2.983   1.598  10.506 -0.0979  0.2726  0.1950
   88SAPS    HS 8433   3.081   1.626  10.461 -0.5183 -0.0268 -0.9350
   88SAPS   O21 8434   2.870   1.625  10.421  0.0490  0.1206 -0.2414
   88SAPS   C21 8435   2.832   1.744  10.382 -0.0344  0.1225 -0.1544
   88SAPS   O22 8436   2.892   1.851  10.398 -0.0404 -0.0663  0.0545
   88SAPS   C22 8437   2.705   1.734  10.283 -0.1292  0.5070  0.1098
   88SAPS   H2R 8438   2.731   1.643  10.225  2.3658  1.9806 -1.1759
   88SAPS   H2S 8439   2.632   1.706  10.362 -0.5938 -0.0029 -0.4944
   88SAPS    C3 8440   2.995   1.444  10.527 -0.0408 -0.1759 -0.0436
   88SAPS    HX 8441   2.894   1.415  10.561  0.8678 -1.8701  1.3222
   88SAPS    HY 8442   3.072   1.429  10.605 -0.5809 -1.5809  0.2289
   88SAPS   O31 8443   3.029   1.379  10.405 -0.1150 -0.3709 -0.0756
   88SAPS   C31 8444   3.076   1.256  10.429  0.5592  0.4704 -0.4460
   88SAPS   O32 8445   3.095   1.206  10.536  0.9894  0.5192 -0.1085
   88SAPS   C32 8446   3.099   1.197  10.288  0.0655  0.3536 -0.2242
   88SAPS   H2X 8447   3.004   1.161  10.241 -0.4796 -0.4415  1.4412
   88SAPS   H2Y 8448   3.160   1.106  10.308 -0.7555 -0.2723 -0.5051
   88SAPS   C23 8449   2.659   1.862  10.210 -0.5120  0.0006 -0.7065
   88SAPS   H3R 8450   2.721   1.888  10.121 -0.1201  0.8116 -0.2053
   88SAPS   H3S 8451   2.677   1.940  10.287 -3.7699  1.0523 -0.9143
   88SAPS   C24 8452   2.505   1.872  10.180 -0.2982  0.3138  0.3587
   88SAPS   H4R 8453   2.451   1.850  10.275  2.4449  2.2930  2.4668
   88SAPS   H4S 8454   2.477   1.793  10.107  0.9133  0.1474  0.0606
   88SAPS   C25 8455   2.466   2.008  10.133  0.4023 -0.7397  0.5741
   88SAPS   H5R 8456   2.457   2.085  10.212 -2.0244  1.0329 -1.3314
   88SAPS   C26 8457   2.429   2.046  10.003  0.2262  0.2201  0.4394
   88SAPS   H6R 8458   2.395   2.150   9.989  0.5268  0.1952 -0.4895
   88SAPS   C27 8459   2.426   1.943   9.886  0.4714  0.1072 -0.2586
   88SAPS   H7R 8460   2.320   1.913   9.870  0.1871  0.6826  0.4470
   88SAPS   H7S 8461   2.481   1.849   9.909  0.4141  0.1307 -0.0161
   88SAPS   C28 8462   2.482   2.028   9.775 -0.3654  0.1999  1.0844
   88SAPS   H8R 8463   2.482   2.138   9.784  1.2793  0.3546 -0.5616
   88SAPS   C29 8464   2.535   1.984   9.661 -0.0300  0.2436  0.3352
   88SAPS   H9R 8465   2.576   2.050   9.583  2.3423  0.1845  1.4927
   88SAPS  C210 8466   2.560   1.840   9.630 -0.3750  0.0921 -0.0769
   88SAPS  H10R 8467   2.476   1.790   9.578 -1.1197 -1.5029  2.5118
   88SAPS  H10S 8468   2.555   1.784   9.726  2.7868 -0.3914 -0.1376
   88SAPS  C211 8469   2.701   1.810   9.575 -0.2547 -0.2169  0.1200
   88SAPS  H11R 8470   2.781   1.821   9.650  1.5233  0.5284 -1.8462
   88SAPS  C212 8471   2.724   1.781   9.446  0.4801  0.7265  0.5623
   88SAPS  H12R 8472   2.831   1.776   9.421  0.4771 -0.4058  0.7558
   88SAPS  C213 8473   2.631   1.772   9.326  0.4165  0.4569 -0.1898
   88SAPS  H13R 8474   2.694   1.763   9.235  1.0845 -2.1390  0.4738
   88SAPS  H13S 8475   2.577   1.869   9.321  0.2427  0.3035 -1.4256
   88SAPS  C214 8476   2.545   1.652   9.333  0.2564  0.4752 -0.6569
   88SAPS  H14R 8477   2.581   1.572   9.400  1.9386  2.1461  0.4890
   88SAPS  C215 8478   2.438   1.631   9.255 -0.7010 -0.1814  0.2687
   88SAPS  H15R 8479   2.383   1.538   9.274  1.0545 -1.5848 -1.2806
   88SAPS  C216 8480   2.388   1.725   9.153 -0.0656 -0.5550 -0.3124
   88SAPS  H16R 8481   2.365   1.669   9.059 -0.0740 -0.1245 -0.5671
   88SAPS  H16S 8482   2.460   1.807   9.133 -0.8338  0.5010  1.1545
   88SAPS  C217 8483   2.258   1.781   9.217  0.0463  0.5129  0.7859
   88SAPS  H17R 8484   2.194   1.699   9.257  0.6366  1.8253  4.6697
   88SAPS  H17S 8485   2.204   1.845   9.145 -0.0744 -0.8783 -0.3817
   88SAPS  C218 8486   2.283   1.873   9.337  0.3564 -0.1076  0.5066
   88SAPS  H18R 8487   2.359   1.952   9.318 -1.8812  2.2731  1.2669
   88SAPS  H18S 8488   2.329   1.814   9.419  1.1151  0.1372  0.2630
   88SAPS  C219 8489   2.157   1.940   9.388  0.2119 -0.0896 -0.5601
   88SAPS  H19R 8490   2.075   1.867   9.404 -2.7178  3.1957 -0.0028
   88SAPS  H19S 8491   2.109   2.008   9.315 -1.5791 -1.3561 -0.5844
   88SAPS  C220 8492   2.182   2.017   9.517 -0.5769  0.7057 -0.2275
   88SAPS  H20R 8493   2.261   2.095   9.516  0.0007  0.1163 -2.2656
   88SAPS  H20S 8494   2.201   1.945   9.599 -1.0822  1.6500  0.7403
   88SAPS  H20T 8495   2.089   2.067   9.552 -1.7482 -1.6624  0.1275
   88SAPS   C33 8496   3.166   1.286  10.189 -0.6989  0.1520 -0.0118
   88SAPS   H3X 8497   3.259   1.333  10.229  0.6119 -1.3389 -1.2532
   88SAPS   H3Y 8498   3.108   1.374  10.153 -1.3991  0.8103  2.5990
   88SAPS   C34 8499   3.202   1.209  10.056  0.4123  0.0351  0.4570
   88SAPS   H4X 8500   3.105   1.162  10.028  0.5620 -0.2721  0.4461
   88SAPS   H4Y 8501   3.272   1.129  10.089 -0.3556 -0.4935  0.8223
   88SAPS   C35 8502   3.272   1.293   9.950 -0.1984  0.1832 -0.4624
   88SAPS   H5X 8503   3.368   1.338   9.985  1.6187 -2.3806 -2.0499
   88SAPS   H5Y 8504   3.208   1.383   9.935  0.0910  0.5824  0.6306
   88SAPS   C36 8505   3.300   1.223   9.816 -1.0801 -0.0025  0.4450
   88SAPS   H6X 8506   3.204   1.200   9.766 -0.2551  1.6064 -1.9907
   88SAPS   H6Y 8507   3.362   1.131   9.825 -0.7879  0.2559  1.1193
   88SAPS   C37 8508   3.375   1.298   9.706  0.6990 -0.0607 -0.8241
   88SAPS   H7X 8509   3.476   1.330   9.740  1.6816 -2.2707 -1.5852
   88SAPS   H7Y 8510   3.312   1.388   9.687 -0.5058 -1.3431 -3.2186
   88SAPS   C38 8511   3.373   1.221   9.577  0.0394  0.1257  0.0947
   88SAPS   H8X 8512   3.267   1.231   9.543 -0.4876  1.9380  2.1679
   88SAPS   H8Y 8513   3.384   1.114   9.604  0.9334 -0.1741 -1.4146
   88SAPS   C39 8514   3.462   1.265   9.462  0.3209 -0.4978  0.6034
   88SAPS   H9X 8515   3.571   1.262   9.483  0.7281  0.4613 -1.2553
   88SAPS   H9Y 8516   3.430   1.368   9.435 -2.5048 -1.7819 -1.1207
   88SAPS  C310 8517   3.439   1.168   9.342 -0.0431 -0.2296 -1.2731
   88SAPS  H10X 8518   3.331   1.144   9.337 -0.3652  1.0851 -0.7294
   88SAPS  H10Y 8519   3.495   1.074   9.361 -0.4721 -0.0525  0.9346
   88SAPS  C311 8520   3.491   1.217   9.199  0.3308  0.2241  0.0379
   88SAPS  H11X 8521   3.602   1.210   9.192  0.8849  6.7212 -1.5193
   88SAPS  H11Y 8522   3.467   1.323   9.174  0.4026  0.9572  2.8538
   88SAPS  C312 8523   3.416   1.139   9.088 -0.1783  0.2726  0.0258
   88SAPS  H12X 8524   3.313   1.177   9.100  0.3542  1.9496 -0.4778
   88SAPS  H12Y 8525   3.436   1.030   9.092  2.3562  0.6204 -1.9078
   88SAPS  C313 8526   3.476   1.177   8.950  0.3716  0.5131  0.1119
   88SAPS  H13X 8527   3.567   1.238   8.966 -0.4630  2.2638 -1.5727
   88SAPS  H13Y 8528   3.411   1.245   8.890 -1.6694 -1.9423 -0.5226
   88SAPS  C314 8529   3.518   1.063   8.861  0.0194  0.2129  0.2608
   88SAPS  H14X 8530   3.577   0.979   8.904  1.5593  1.4646  0.6329
   88SAPS  H14Y 8531   3.584   1.091   8.777 -2.8825  2.9908 -1.1927
   88SAPS  C315 8532   3.397   0.997   8.796  0.3699  0.7196 -0.1320
   88SAPS  H15X 8533   3.324   1.069   8.753  0.2804 -0.7702 -2.5457
   88SAPS  H15Y 8534   3.349   0.941   8.878  2.3590 -0.2877  0.3962
   88SAPS  C316 8535   3.433   0.892   8.689 -0.1650 -0.7586  0.0473
   88SAPS  H16X 8536   3.336   0.852   8.651  0.0725 -1.4391  0.1493
   88SAPS  H16Y 8537   3.482   0.804   8.735 -0.0890 -0.6758  0.1227
   88SAPS  C317 8538   3.517   0.933   8.565 -0.1765  0.8180 -0.5862
   88SAPS  H17X 8539   3.533   0.832   8.520 -0.2611 -0.6343  2.4600
   88SAPS  H17Y 8540   3.620   0.964   8.594 -0.3729  2.1706 -1.3312
   88SAPS  C318 8541   3.440   1.025   8.470 -0.7261 -0.3732 -0.1422
   88SAPS  H18X 8542   3.435   1.132   8.500 -0.1362 -0.5541  0.6086
   88SAPS  H18Y 8543   3.344   0.990   8.426  0.3993 -0.2041 -2.8290
   88SAPS  H18Z 8544   3.509   1.022   8.383  1.4556 -0.6544  1.5547
   89SAPS     N 8545   1.733   4.150  10.883  0.0961 -0.4879 -0.0412
   89SAPS   HN1 8546   1.771   4.245  10.863  2.1642 -1.5381 -1.2650
   89SAPS   HN2 8547   1.781   4.087  10.815  1.7189 -1.4245  1.9169
   89SAPS   HN3 8548   1.629   4.150  10.875  0.0356  1.2006  0.4527
   89SAPS   C12 8549   1.790   4.132  11.016 -0.6236  0.4037 -1.5244
   89SAPS  H12A 8550   1.729   4.186  11.086 -1.5168 -1.8734 -0.4837
   89SAPS   C13 8551   1.789   3.985  11.057  0.3297  0.5365 -0.1095
   89SAPS  O13A 8552   1.736   3.900  10.981 -0.3582  0.3717 -0.2367
   89SAPS  O13B 8553   1.823   3.958  11.175 -0.0710  0.6944 -0.3578
   89SAPS   C11 8554   1.940   4.189  11.024  0.7378 -0.2164  0.0416
   89SAPS  H11A 8555   2.010   4.128  10.964 -0.5716 -1.7961  0.0952
   89SAPS  H11B 8556   1.974   4.180  11.130  2.6430  2.6644 -0.2700
   89SAPS     P 8557   2.015   4.441  11.036 -0.0760  0.4436 -0.0959
   89SAPS   O13 8558   1.927   4.559  11.020  0.4004 -0.0962  0.2891
   89SAPS   O14 8559   2.063   4.413  11.170 -0.1536 -0.0429 -0.4822
   89SAPS   O12 8560   1.935   4.323  10.977 -0.6515  0.2343 -0.8817
   89SAPS   O11 8561   2.137   4.450  10.938 -0.4854  0.3507 -0.4212
   89SAPS    C1 8562   2.222   4.559  10.933 -0.6471 -0.1511 -0.3131
   89SAPS    HA 8563   2.174   4.654  10.964  1.5118  0.4464  1.3283
   89SAPS    HB 8564   2.307   4.548  11.004 -3.3494 -1.4938  2.8119
   89SAPS    C2 8565   2.275   4.572  10.787  0.8499 -0.1328  0.0329
   89SAPS    HS 8566   2.341   4.661  10.782 -1.7903  1.8602 -0.3273
   89SAPS   O21 8567   2.167   4.589  10.695  0.4901 -0.5517  0.4922
   89SAPS   C21 8568   2.195   4.672  10.601  0.2939 -0.3755 -0.1526
   89SAPS   O22 8569   2.294   4.731  10.585 -0.3527  0.0598  0.7586
   89SAPS   C22 8570   2.079   4.702  10.517  0.3211 -0.4953 -1.6998
   89SAPS   H2R 8571   2.000   4.624  10.514 -0.8342  0.4315  2.0340
   89SAPS   H2S 8572   2.022   4.784  10.566  1.7619 -0.3309 -0.2420
   89SAPS    C3 8573   2.351   4.446  10.752 -0.4054  0.3734  0.4730
   89SAPS    HX 8574   2.279   4.361  10.746 -0.7949  0.7799 -0.8852
   89SAPS    HY 8575   2.428   4.409  10.823 -1.0775 -0.5398  0.7435
   89SAPS   O31 8576   2.405   4.448  10.616  0.0689  0.0862 -0.8924
   89SAPS   C31 8577   2.519   4.516  10.601  0.4129  0.4272  0.4839
   89SAPS   O32 8578   2.589   4.549  10.695  1.2813 -0.1008  0.1769
   89SAPS   C32 8579   2.551   4.554  10.452 -0.0940  0.2728 -0.0042
   89SAPS   H2X 8580   2.601   4.653  10.458 -0.8506  0.6693 -0.1670
   89SAPS   H2Y 8581   2.451   4.572  10.407 -0.3609  0.9287  0.8245
   89SAPS   C23 8582   2.117   4.737  10.370  0.7289  0.2834 -0.4711
   89SAPS   H3R 8583   2.196   4.815  10.362  0.2595  0.7140 -0.9301
   89SAPS   H3S 8584   2.034   4.784  10.313  0.2908 -1.6834 -1.4959
   89SAPS   C24 8585   2.156   4.618  10.282 -0.1310 -0.4216  0.0443
   89SAPS   H4R 8586   2.245   4.561  10.317 -0.2582 -0.7667 -0.1870
   89SAPS   H4S 8587   2.193   4.656  10.184  2.7435  2.1178  2.0136
   89SAPS   C25 8588   2.035   4.524  10.267  0.5580 -1.4059  0.4420
   89SAPS   H5R 8589   1.941   4.575  10.294  0.7339 -0.5565 -0.5032
   89SAPS   C26 8590   2.041   4.395  10.245  0.4771  0.1346  0.5745
   89SAPS   H6R 8591   1.943   4.345  10.244  1.0439 -1.0008 -0.9606
   89SAPS   C27 8592   2.166   4.309  10.218  0.2227 -0.1511  0.8080
   89SAPS   H7R 8593   2.261   4.366  10.222 -0.6065  1.2117  1.7091
   89SAPS   H7S 8594   2.153   4.287  10.110  0.7106  1.5998  0.3686
   89SAPS   C28 8595   2.159   4.188  10.306 -0.4028  0.2174  0.1629
   89SAPS   H8R 8596   2.130   4.203  10.411  1.3059 -0.3467  0.7332
   89SAPS   C29 8597   2.181   4.066  10.270 -0.1348  0.5601 -0.2688
   89SAPS   H9R 8598   2.193   3.986  10.345  0.8700  0.1364 -0.8783
   89SAPS  C210 8599   2.218   4.032  10.124  0.0923  0.2660  0.4675
   89SAPS  H10R 8600   2.282   3.942  10.134  0.1800  0.2729 -0.0314
   89SAPS  H10S 8601   2.285   4.100  10.067  1.1644 -0.6464  0.6177
   89SAPS  C211 8602   2.097   3.985  10.046  0.5761 -0.8323  0.1309
   89SAPS  H11R 8603   2.027   3.924  10.105 -2.4532  0.8773 -1.5586
   89SAPS  C212 8604   2.067   4.028   9.924 -0.0647 -0.5365  0.1726
   89SAPS  H12R 8605   1.975   3.985   9.881 -1.8382 -0.0474  3.3271
   89SAPS  C213 8606   2.152   4.122   9.835  0.5285  0.1648 -0.0207
   89SAPS  H13R 8607   2.256   4.083   9.837  0.2513 -0.5481  0.8333
   89SAPS  H13S 8608   2.153   4.219   9.888  0.6954 -0.5798  1.3650
   89SAPS  C214 8609   2.110   4.132   9.689  0.1703 -0.4718  0.1227
   89SAPS  H14R 8610   2.070   4.230   9.658  1.4757  0.8172  2.3996
   89SAPS  C215 8611   2.109   4.040   9.594  0.0348  0.6426  0.0869
   89SAPS  H15R 8612   2.091   4.065   9.489  3.0235  1.4945 -0.2605
   89SAPS  C216 8613   2.150   3.893   9.605 -0.1779  0.0309  0.9161
   89SAPS  H16R 8614   2.172   3.863   9.710  0.4581 -1.1833  0.4510
   89SAPS  H16S 8615   2.250   3.886   9.556 -0.1175 -0.1226  1.0589
   89SAPS  C217 8616   2.043   3.804   9.533 -0.1379 -0.8526  0.0780
   89SAPS  H17R 8617   1.942   3.839   9.563  0.2359  0.3652 -0.0694
   89SAPS  H17S 8618   2.071   3.707   9.578 -1.9998 -0.8543  1.2989
   89SAPS  C218 8619   2.047   3.808   9.387  0.4458  0.4924  0.0770
   89SAPS  H18R 8620   2.140   3.762   9.346 -0.0767 -1.9387  1.5388
   89SAPS  H18S 8621   2.041   3.909   9.341  1.6561  0.8325  0.6325
   89SAPS  C219 8622   1.935   3.737   9.318  0.6051  0.8189 -0.4720
   89SAPS  H19R 8623   1.836   3.788   9.328  1.6923  2.7592  0.6627
   89SAPS  H19S 8624   1.924   3.642   9.375  0.8771  1.0170 -0.0821
   89SAPS  C220 8625   1.964   3.714   9.170 -0.0826 -0.0670 -0.1023
   89SAPS  H20R 8626   2.008   3.810   9.136  3.8994 -1.2593  1.4337
   89SAPS  H20S 8627   1.870   3.713   9.111  0.4345 -0.6916 -0.9248
   89SAPS  H20T 8628   2.039   3.637   9.144  0.9426  0.3841  1.4292
   89SAPS   C33 8629   2.640   4.466  10.362 -0.2616  0.0657 -0.5198
   89SAPS   H3X 8630   2.577   4.385  10.319  1.1386 -0.9513 -0.7324
   89SAPS   H3Y 8631   2.718   4.415  10.423 -0.7085 -0.7428 -0.6206
   89SAPS   C34 8632   2.711   4.531  10.247 -0.2343 -0.5621  0.2382
   89SAPS   H4X 8633   2.786   4.462  10.203  1.3464  2.1979 -1.5349
   89SAPS   H4Y 8634   2.773   4.611  10.293 -1.5930  0.9225 -0.4342
   89SAPS   C35 8635   2.619   4.583  10.129  0.4418 -0.1628 -0.3745
   89SAPS   H5X 8636   2.686   4.637  10.058 -0.2647 -1.3609 -1.9790
   89SAPS   H5Y 8637   2.553   4.663  10.168 -0.3478 -0.8755 -0.2462
   89SAPS   C36 8638   2.561   4.465  10.041  0.3578  0.3802  0.5913
   89SAPS   H6X 8639   2.473   4.519  10.001 -0.0447  0.7694  1.9717
   89SAPS   H6Y 8640   2.520   4.387  10.107 -1.1927  0.5457 -0.1554
   89SAPS   C37 8641   2.631   4.404   9.926 -0.5622 -0.6497 -0.1380
   89SAPS   H7X 8642   2.719   4.348   9.964  0.7314 -0.2861 -2.5025
   89SAPS   H7Y 8643   2.674   4.473   9.850 -2.7374 -0.3429 -1.1215
   89SAPS   C38 8644   2.542   4.297   9.846 -0.3618  0.1235 -0.4530
   89SAPS   H8X 8645   2.480   4.362   9.780 -1.7067 -0.7540 -0.0536
   89SAPS   H8Y 8646   2.479   4.243   9.919  0.1727 -0.8268 -0.6986
   89SAPS   C39 8647   2.629   4.196   9.773 -0.4649  0.5100  0.4866
   89SAPS   H9X 8648   2.688   4.149   9.855 -1.7984  0.6832  1.5611
   89SAPS   H9Y 8649   2.707   4.238   9.706 -0.2288 -0.2188  0.2920
   89SAPS  C310 8650   2.550   4.101   9.691 -0.0635 -0.3556  0.1355
   89SAPS  H10X 8651   2.478   4.047   9.757  0.6478 -0.7708  0.5720
   89SAPS  H10Y 8652   2.609   4.010   9.667 -0.8626 -0.9964  0.5454
   89SAPS  C311 8653   2.493   4.151   9.548 -0.1048 -0.1852 -0.3518
   89SAPS  H11X 8654   2.430   4.239   9.570  1.6272  0.8962  0.4139
   89SAPS  H11Y 8655   2.435   4.067   9.504  0.6717  0.6289 -3.0324
   89SAPS  C312 8656   2.610   4.195   9.451 -0.4881 -0.1499  0.1474
   89SAPS  H12X 8657   2.681   4.117   9.418  0.2914  0.6656 -0.1284
   89SAPS  H12Y 8658   2.667   4.275   9.503 -1.6024  0.3763  0.5785
   89SAPS  C313 8659   2.547   4.264   9.329  0.4671  0.1761  0.2890
   89SAPS  H13X 8660   2.628   4.301   9.262  0.0925 -1.3476 -1.0358
   89SAPS  H13Y 8661   2.483   4.343   9.373  2.1285  1.0324  1.2146
   89SAPS  C314 8662   2.465   4.169   9.234 -0.1499  0.3216 -0.1104
   89SAPS  H14X 8663   2.390   4.225   9.175  0.5630  0.0160 -1.3089
   89SAPS  H14Y 8664   2.397   4.113   9.302 -0.0220 -0.6229 -0.7523
   89SAPS  C315 8665   2.550   4.084   9.138 -0.5577  0.0803 -0.4374
   89SAPS  H15X 8666   2.509   3.981   9.131  0.9390 -0.6246  0.7755
   89SAPS  H15Y 8667   2.647   4.071   9.190 -1.5496  1.3960  1.7945
   89SAPS  C316 8668   2.573   4.148   9.001  0.0105 -0.4667  0.1153
   89SAPS  H16X 8669   2.649   4.097   8.939  2.3201  1.8797  0.9184
   89SAPS  H16Y 8670   2.601   4.254   9.023  2.4657 -1.0755  0.0398
   89SAPS  C317 8671   2.446   4.148   8.913 -0.6063 -0.7834  0.3232
   89SAPS  H17X 8672   2.464   4.217   8.828 -0.4002  0.6595  1.5292
   89SAPS  H17Y 8673   2.359   4.180   8.975 -0.8908 -0.9042 -0.0097
   89SAPS  C318 8674   2.401   4.015   8.857  0.0089 -0.1354  1.2709
   89SAPS  H18X 8675   2.399   3.937   8.936 -2.4000 -0.2222  1.1545
   89SAPS  H18Y 8676   2.476   3.984   8.781 -1.8578  1.6430 -1.3457
   89SAPS  H18Z 8677   2.300   4.013   8.811 -0.0201  0.7763  1.2878
   90SAPS     N 8678   4.426   4.694  10.580  0.4164 -0.3804  0.0683
   90SAPS   HN1 8679   4.325   4.679  10.596  0.5482 -1.5009 -0.1069
   90SAPS   HN2 8680   4.443   4.792  10.549 -0.0754 -0.2350  0.2651
   90SAPS   HN3 8681   4.456   4.632  10.502 -1.0765  0.4551 -1.2075
   90SAPS   C12 8682   4.507   4.666  10.706  0.1302  0.5632 -0.4341
   90SAPS  H12A 8683   4.610   4.693  10.689  0.3650 -1.7385 -3.0647
   90SAPS   C13 8684   4.457   4.727  10.839  0.6147 -0.2278 -0.8640
   90SAPS  O13A 8685   4.339   4.767  10.836  0.3686  0.0665  0.1544
   90SAPS  O13B 8686   4.530   4.716  10.937  0.5534  0.2576 -0.1438
   90SAPS   C11 8687   4.501   4.511  10.719 -0.5728  0.1679  0.1537
   90SAPS  H11A 8688   4.393   4.486  10.713 -0.6061  0.0359  1.2824
   90SAPS  H11B 8689   4.538   4.490  10.822 -1.5263 -0.8691  0.2880
   90SAPS     P 8690   4.570   4.286  10.617  0.2749 -0.5842  0.3151
   90SAPS   O13 8691   4.698   4.241  10.673  0.4574  0.1545 -0.6100
   90SAPS   O14 8692   4.441   4.243  10.674  0.3085 -0.1408 -0.0140
   90SAPS   O12 8693   4.567   4.446  10.614 -0.1008 -0.1159  0.7015
   90SAPS   O11 8694   4.577   4.273  10.452  0.1978 -0.6340 -0.3643
   90SAPS    C1 8695   4.503   4.165  10.395  0.3568  0.0692 -0.2275
   90SAPS    HA 8696   4.396   4.167  10.424  0.7419  3.3393  1.1466
   90SAPS    HB 8697   4.503   4.181  10.285 -0.3834  1.4322 -0.0404
   90SAPS    C2 8698   4.550   4.022  10.424  0.6237 -0.2736  0.2208
   90SAPS    HS 8699   4.593   4.023  10.527 -0.7905 -0.0854  0.8357
   90SAPS   O21 8700   4.655   4.002  10.331 -0.3434 -0.1324  0.2439
   90SAPS   C21 8701   4.717   3.880  10.326 -0.1510 -0.6915  0.5235
   90SAPS   O22 8702   4.712   3.792  10.408  0.1751 -0.6975  0.2800
   90SAPS   C22 8703   4.807   3.871  10.200 -1.3049  0.1358  0.0150
   90SAPS   H2R 8704   4.897   3.925  10.235  0.2054 -1.3888 -1.4227
   90SAPS   H2S 8705   4.820   3.764  10.176 -1.3078  0.6495 -2.3744
   90SAPS    C3 8706   4.442   3.905  10.420 -0.0570 -0.8469 -0.2533
   90SAPS    HX 8707   4.362   3.926  10.494 -2.2141 -0.0907 -2.7221
   90SAPS    HY 8708   4.494   3.812  10.452  2.9208  1.6265  2.4022
   90SAPS   O31 8709   4.389   3.880  10.287  0.1676 -0.2438  0.0529
   90SAPS   C31 8710   4.275   3.940  10.250 -0.1125 -0.2200  0.0462
   90SAPS   O32 8711   4.207   4.013  10.316  0.2227  0.1957  0.3004
   90SAPS   C32 8712   4.228   3.881  10.115  0.7383 -0.2629 -0.3114
   90SAPS   H2X 8713   4.145   3.814  10.146  0.3368 -0.1089 -1.0473
   90SAPS   H2Y 8714   4.311   3.813  10.083  2.1928  1.6912 -0.8194
   90SAPS   C23 8715   4.773   3.949  10.069  0.6426 -0.2370  0.0318
   90SAPS   H3R 8716   4.859   3.964  10.001 -0.8017 -1.6193 -2.1461
   90SAPS   H3S 8717   4.732   4.050  10.090 -1.9925 -1.1173 -0.7505
   90SAPS   C24 8718   4.664   3.875   9.997 -0.0475  0.2319 -0.6028
   90SAPS   H4R 8719   4.623   3.949   9.926  1.7090  1.6046 -0.2416
   90SAPS   H4S 8720   4.576   3.861  10.063 -0.2227 -0.5846 -1.0159
   90SAPS   C25 8721   4.709   3.743   9.941  0.2836 -0.8844  0.4735
   90SAPS   H5R 8722   4.715   3.662  10.016  0.4917  1.3614  2.9539
   90SAPS   C26 8723   4.746   3.729   9.814  0.0452 -0.4539  1.2659
   90SAPS   H6R 8724   4.764   3.627   9.779 -2.1449 -0.1543 -0.9221
   90SAPS   C27 8725   4.754   3.847   9.721  0.8786 -0.0990 -0.8558
   90SAPS   H7R 8726   4.788   3.934   9.781  2.1850 -0.8129 -0.5540
   90SAPS   H7S 8727   4.660   3.877   9.670 -0.6875 -2.0584  0.8141
   90SAPS   C28 8728   4.864   3.805   9.631 -0.4305 -0.3287  0.4932
   90SAPS   H8R 8729   4.961   3.840   9.671 -0.4739  0.1664  0.1617
   90SAPS   C29 8730   4.869   3.735   9.510  0.4579  0.6008  0.6088
   90SAPS   H9R 8731   4.970   3.695   9.489 -0.4729 -1.6271  0.2146
   90SAPS  C210 8732   4.750   3.666   9.441 -0.5363 -0.5457  0.1817
   90SAPS  H10R 8733   4.735   3.721   9.346 -1.2904 -0.1831  0.5058
   90SAPS  H10S 8734   4.658   3.686   9.499 -1.1386  2.3355 -1.6929
   90SAPS  C211 8735   4.764   3.518   9.431  0.1315 -0.0952 -0.6416
   90SAPS  H11R 8736   4.812   3.470   9.518 -1.8245 -2.4864 -0.7855
   90SAPS  C212 8737   4.744   3.438   9.323 -0.2661  0.1524  0.5132
   90SAPS  H12R 8738   4.762   3.330   9.336 -0.5495 -0.1939 -1.7169
   90SAPS  C213 8739   4.696   3.483   9.187 -0.0615  0.0676  0.3005
   90SAPS  H13R 8740   4.675   3.592   9.194  0.2894  0.1770 -0.2712
   90SAPS  H13S 8741   4.600   3.428   9.180  0.6136 -0.8451 -2.4239
   90SAPS  C214 8742   4.792   3.450   9.081 -0.9593  0.1679  0.4423
   90SAPS  H14R 8743   4.898   3.435   9.106 -0.3069 -0.6476 -2.6554
   90SAPS  C215 8744   4.757   3.452   8.950 -1.2149  0.1422  0.7362
   90SAPS  H15R 8745   4.837   3.424   8.880  0.3491  1.8655  1.7812
   90SAPS  C216 8746   4.614   3.477   8.903 -0.2708  0.2247 -0.8908
   90SAPS  H16R 8747   4.550   3.514   8.986  1.1878  0.6731  0.0651
   90SAPS  H16S 8748   4.575   3.373   8.904 -1.4676  0.6236  2.6960
   90SAPS  C217 8749   4.579   3.545   8.768  0.0403 -0.1939  0.4824
   90SAPS  H17R 8750   4.642   3.498   8.690  0.8884 -1.1895  1.7596
   90SAPS  H17S 8751   4.605   3.653   8.773  0.8675 -0.4051  0.7012
   90SAPS  C218 8752   4.435   3.525   8.725 -0.6525 -0.2052 -0.4296
   90SAPS  H18R 8753   4.408   3.417   8.722 -1.6101  0.0336 -0.8800
   90SAPS  H18S 8754   4.432   3.560   8.619 -0.4779 -0.6459 -0.5808
   90SAPS  C219 8755   4.330   3.601   8.811 -0.0459 -0.0427 -0.3196
   90SAPS  H19R 8756   4.360   3.708   8.809  1.7950 -0.5502 -0.4891
   90SAPS  H19S 8757   4.340   3.562   8.915  1.2202 -1.4528 -0.9525
   90SAPS  C220 8758   4.187   3.590   8.753  0.7492  0.2151  0.1897
   90SAPS  H20R 8759   4.182   3.597   8.642  2.9195 -3.2687 -0.2047
   90SAPS  H20S 8760   4.117   3.666   8.794 -0.8344  0.8396 -3.3985
   90SAPS  H20T 8761   4.143   3.492   8.779 -3.1726  2.2084  1.4084
   90SAPS   C33 8762   4.174   3.977  10.006  0.1206 -0.0740  0.4988
   90SAPS   H3X 8763   4.118   4.057  10.059 -0.0929 -0.1743  0.4221
   90SAPS   H3Y 8764   4.118   3.925   9.927  0.9443 -1.6304  0.9187
   90SAPS   C34 8765   4.292   4.042   9.926 -0.0518  0.1619  1.0978
   90SAPS   H4X 8766   4.355   3.962   9.882 -0.9505 -0.5122  1.0304
   90SAPS   H4Y 8767   4.367   4.103   9.980 -0.1842 -0.2557  1.7500
   90SAPS   C35 8768   4.239   4.126   9.810 -0.2155  0.1933 -0.2659
   90SAPS   H5X 8769   4.188   4.216   9.852  0.3852 -1.4395  4.3005
   90SAPS   H5Y 8770   4.163   4.070   9.752  0.2954 -1.0928  0.2968
   90SAPS   C36 8771   4.352   4.179   9.724 -1.0905 -0.0367  0.6336
   90SAPS   H6X 8772   4.437   4.226   9.777 -1.3749 -0.6497  1.6340
   90SAPS   H6Y 8773   4.305   4.258   9.662 -0.5893  0.4698  0.9022
   90SAPS   C37 8774   4.416   4.066   9.645  0.5976  0.0290  0.3212
   90SAPS   H7X 8775   4.346   3.980   9.648  0.3397  0.1141 -2.0536
   90SAPS   H7Y 8776   4.498   4.039   9.713  0.5586 -1.0116 -0.0404
   90SAPS   C38 8777   4.476   4.110   9.512 -1.0834 -0.8020 -0.8818
   90SAPS   H8X 8778   4.406   4.180   9.461 -1.1933 -0.0472  0.2865
   90SAPS   H8Y 8779   4.498   4.016   9.457 -0.7039 -1.9587  1.1954
   90SAPS   C39 8780   4.610   4.188   9.533  0.6480  0.1815 -0.0211
   90SAPS   H9X 8781   4.686   4.119   9.575 -0.1638  0.2555  1.5604
   90SAPS   H9Y 8782   4.593   4.271   9.605 -2.4775  0.8181 -1.4085
   90SAPS  C310 8783   4.666   4.255   9.400  0.3990  0.5126  0.1474
   90SAPS  H10X 8784   4.768   4.296   9.419  1.0757 -1.9191  2.0193
   90SAPS  H10Y 8785   4.600   4.343   9.383  0.3817  0.9101  2.1031
   90SAPS  C311 8786   4.672   4.171   9.273 -0.1537  0.9388 -0.1714
   90SAPS  H11X 8787   4.571   4.137   9.241  0.4339 -2.4145  1.3318
   90SAPS  H11Y 8788   4.737   4.083   9.291 -2.1975 -1.0632 -2.1825
   90SAPS  C312 8789   4.728   4.234   9.147  0.1448 -0.3789  0.3857
   90SAPS  H12X 8790   4.721   4.163   9.061 -0.4333 -1.2304  1.1178
   90SAPS  H12Y 8791   4.838   4.248   9.152  0.1367 -0.3322  0.4287
   90SAPS  C313 8792   4.650   4.359   9.107 -0.6587  0.4556 -0.3931
   90SAPS  H13X 8793   4.699   4.406   9.019 -1.7240  1.6363 -0.3705
   90SAPS  H13Y 8794   4.652   4.435   9.187  2.0304  1.0394 -0.9716
   90SAPS  C314 8795   4.499   4.324   9.080 -0.4468 -0.2457 -0.2337
   90SAPS  H14X 8796   4.438   4.367   9.162 -2.0254 -1.6620 -0.6419
   90SAPS  H14Y 8797   4.490   4.213   9.074 -2.0936 -0.1446  0.2478
   90SAPS  C315 8798   4.458   4.390   8.956 -0.2280 -0.4515 -0.1380
   90SAPS  H15X 8799   4.360   4.358   8.916 -1.3988 -2.0029  3.7146
   90SAPS  H15Y 8800   4.519   4.340   8.878 -0.4593  0.5474 -0.9697
   90SAPS  C316 8801   4.455   4.547   8.957 -0.0843  0.6054  0.3063
   90SAPS  H16X 8802   4.556   4.584   8.985  0.7847  1.0935 -3.2717
   90SAPS  H16Y 8803   4.395   4.571   9.047  0.2830  1.6390  0.2767
   90SAPS  C317 8804   4.388   4.612   8.833  0.7564 -0.2298  0.6810
   90SAPS  H17X 8805   4.394   4.723   8.842 -0.7147 -0.1573  0.8318
   90SAPS  H17Y 8806   4.283   4.583   8.855  0.9806 -0.0948  1.9302
   90SAPS  C318 8807   4.429   4.558   8.696  0.4345 -0.9304  0.0180
   90SAPS  H18X 8808   4.343   4.577   8.628 -0.6040 -0.7842  1.3350
   90SAPS  H18Y 8809   4.450   4.449   8.701  0.2787 -0.9001  1.6058
   90SAPS  H18Z 8810   4.519   4.609   8.657  1.3922 -3.3791 -1.0620
   91SAPS     N 8811   1.676   2.572   5.851  0.4771  0.6898 -0.7355
   91SAPS   HN1 8812   1.695   2.658   5.906  1.1823 -0.4284  0.7719
   91SAPS   HN2 8813   1.609   2.592   5.773 -0.0767  0.1863 -0.3909
   91SAPS   HN3 8814   1.645   2.499   5.918  0.5983  0.1721 -1.2424
   91SAPS   C12 8815   1.804   2.523   5.799  0.0662 -0.0819 -0.4587
   91SAPS  H12A 8816   1.786   2.429   5.749  2.4250 -1.8811  1.9289
   91SAPS   C13 8817   1.869   2.613   5.680 -0.4084 -0.0536  0.4786
   91SAPS  O13A 8818   1.809   2.704   5.617 -0.4672 -0.5686  0.2198
   91SAPS  O13B 8819   1.978   2.575   5.639 -0.2406  0.8089  0.4250
   91SAPS   C11 8820   1.895   2.513   5.919 -0.6468 -0.0401  0.1364
   91SAPS  H11A 8821   1.917   2.612   5.964 -0.7488 -0.7399  1.7482
   91SAPS  H11B 8822   1.996   2.473   5.893 -0.1571  0.9205  0.5260
   91SAPS     P 8823   1.900   2.322   6.101  0.1840 -0.0388 -0.6885
   91SAPS   O13 8824   1.807   2.279   6.205  0.0891  0.4072  0.2708
   91SAPS   O14 8825   1.961   2.229   6.009 -0.5771 -0.4420 -0.4068
   91SAPS   O12 8826   1.834   2.430   6.017 -0.0649  0.0120  0.2815
   91SAPS   O11 8827   2.021   2.401   6.173 -0.5209  0.1220  0.1485
   91SAPS    C1 8828   2.011   2.536   6.205  0.0636 -0.5826 -0.1533
   91SAPS    HA 8829   2.072   2.587   6.127 -2.3581  0.3370 -1.4941
   91SAPS    HB 8830   1.909   2.575   6.183 -0.1029 -1.2064 -0.4792
   91SAPS    C2 8831   2.055   2.563   6.353  0.2061 -0.4753  0.1107
   91SAPS    HS 8832   2.153   2.515   6.372 -0.1647  0.0475  3.8042
   91SAPS   O21 8833   1.962   2.502   6.454 -0.6321 -0.1869  0.1433
   91SAPS   C21 8834   2.026   2.475   6.570  0.5352 -0.2267  0.3222
   91SAPS   O22 8835   2.142   2.466   6.589 -0.1661  0.5483 -0.7736
   91SAPS   C22 8836   1.924   2.436   6.670  0.1529  0.8183 -0.3332
   91SAPS   H2R 8837   1.838   2.507   6.676 -1.4299 -0.9512 -1.4709
   91SAPS   H2S 8838   1.881   2.344   6.626 -1.7651  1.8717 -0.7635
   91SAPS    C3 8839   2.072   2.712   6.377 -0.0223  0.1618  0.0150
   91SAPS    HX 8840   1.969   2.752   6.389 -0.3415 -0.6830  0.1903
   91SAPS    HY 8841   2.105   2.763   6.284  0.3615 -1.3331 -0.6857
   91SAPS   O31 8842   2.145   2.759   6.488 -0.7933 -0.1279  0.2808
   91SAPS   C31 8843   2.275   2.731   6.491  0.2001 -0.4500 -0.5221
   91SAPS   O32 8844   2.340   2.678   6.402 -0.8968 -0.0116 -0.2202
   91SAPS   C32 8845   2.331   2.782   6.620  0.5818  0.0167  0.5954
   91SAPS   H2X 8846   2.254   2.828   6.686 -0.9145 -4.4850  2.1625
   91SAPS   H2Y 8847   2.403   2.864   6.601  2.1439 -1.3194  0.6435
   91SAPS   C23 8848   1.982   2.403   6.807  0.4965  0.1230  0.9121
   91SAPS   H3R 8849   2.076   2.345   6.795  0.6248  0.2732  1.1896
   91SAPS   H3S 8850   1.909   2.338   6.860 -0.7854  0.0597 -0.8804
   91SAPS   C24 8851   2.005   2.525   6.895 -1.0354  0.2524  0.1949
   91SAPS   H4R 8852   2.073   2.597   6.845 -0.4842  0.8353  1.7454
   91SAPS   H4S 8853   2.065   2.492   6.983  1.7096  2.6187 -0.7304
   91SAPS   C25 8854   1.870   2.594   6.932  0.2381  0.6262 -0.0542
   91SAPS   H5R 8855   1.813   2.623   6.843  0.0521 -0.7222 -0.3922
   91SAPS   C26 8856   1.810   2.594   7.054  0.3465  0.3512  0.1016
   91SAPS   H6R 8857   1.705   2.624   7.066  0.5485  0.7627  0.9092
   91SAPS   C27 8858   1.870   2.533   7.178 -0.2330  0.1220  0.1235
   91SAPS   H7R 8859   1.842   2.592   7.267 -0.4536  0.5189 -0.2066
   91SAPS   H7S 8860   1.980   2.542   7.164 -0.5818  0.3547 -3.0124
   91SAPS   C28 8861   1.836   2.390   7.201 -0.1693 -0.4214 -0.1381
   91SAPS   H8R 8862   1.790   2.340   7.115 -2.4762  2.9820 -0.9761
   91SAPS   C29 8863   1.856   2.319   7.316 -0.5438  0.1354  0.3292
   91SAPS   H9R 8864   1.829   2.213   7.315  1.2818 -0.3600  1.2964
   91SAPS  C210 8865   1.918   2.382   7.439  0.3835 -0.8299 -0.1609
   91SAPS  H10R 8866   1.872   2.481   7.456  0.9590 -0.2778 -1.8066
   91SAPS  H10S 8867   2.028   2.383   7.429  0.3103 -2.3497 -1.2076
   91SAPS  C211 8868   1.877   2.295   7.556 -0.4736 -0.1326 -0.6942
   91SAPS  H11R 8869   1.817   2.205   7.537 -1.7206  0.4213  0.5440
   91SAPS  C212 8870   1.900   2.326   7.682  0.3333 -0.3577 -0.4055
   91SAPS  H12R 8871   1.881   2.254   7.762 -0.1912 -0.5141 -0.6661
   91SAPS  C213 8872   1.973   2.450   7.731 -0.3120  0.4532 -0.3070
   91SAPS  H13R 8873   1.915   2.541   7.702 -0.9660  0.4151  0.8415
   91SAPS  H13S 8874   2.068   2.459   7.674  0.9072  1.9952  1.8764
   91SAPS  C214 8875   2.020   2.443   7.876  0.5410  0.5388 -0.0804
   91SAPS  H14R 8876   2.053   2.346   7.918  0.4065  0.4669 -0.1413
   91SAPS  C215 8877   2.023   2.545   7.961 -0.9392 -0.3742  0.0877
   91SAPS  H15R 8878   2.042   2.521   8.067 -2.9477  0.7970  0.7351
   91SAPS  C216 8879   1.983   2.690   7.938 -0.1083 -0.7638  0.5467
   91SAPS  H16R 8880   1.919   2.731   8.020 -0.2408 -1.0864  0.6069
   91SAPS  H16S 8881   1.928   2.697   7.842 -0.9007 -1.9533  0.9002
   91SAPS  C217 8882   2.100   2.789   7.922  0.2700  0.1779  0.1270
   91SAPS  H17R 8883   2.062   2.891   7.901 -1.1591 -0.5060 -0.6820
   91SAPS  H17S 8884   2.167   2.762   7.837 -0.1245 -0.4336  0.0037
   91SAPS  C218 8885   2.193   2.793   8.047 -0.2366 -0.2685  0.3274
   91SAPS  H18R 8886   2.251   2.698   8.052  1.5907  0.7302 -1.0349
   91SAPS  H18S 8887   2.133   2.792   8.140  0.4490 -2.1282  0.7821
   91SAPS  C219 8888   2.293   2.921   8.042  1.1732  0.1659  0.2514
   91SAPS  H19R 8889   2.238   3.016   8.024  1.2314  0.6086  2.2518
   91SAPS  H19S 8890   2.362   2.894   7.959  0.3506  0.2832 -0.4682
   91SAPS  C220 8891   2.369   2.970   8.172 -0.1747  0.4040  0.4753
   91SAPS  H20R 8892   2.430   3.060   8.148 -0.7415  0.2881 -1.5133
   91SAPS  H20S 8893   2.437   2.887   8.201 -2.3232 -2.1896 -1.6657
   91SAPS  H20T 8894   2.297   2.999   8.251  0.2690  0.9591  0.6847
   91SAPS   C33 8895   2.399   2.670   6.701  0.0674 -0.2545 -0.3016
   91SAPS   H3X 8896   2.489   2.641   6.643  0.9636  0.5612  0.6363
   91SAPS   H3Y 8897   2.332   2.582   6.707  1.0648 -1.1478 -1.9851
   91SAPS   C34 8898   2.441   2.718   6.841  0.9374 -0.2641 -0.0716
   91SAPS   H4X 8899   2.466   2.826   6.833 -0.2283 -0.0196 -0.4785
   91SAPS   H4Y 8900   2.526   2.665   6.890 -1.0718 -1.2654  2.4391
   91SAPS   C35 8901   2.326   2.704   6.942  0.1162 -0.1926 -0.6381
   91SAPS   H5X 8902   2.303   2.598   6.968 -0.9950  0.3654  0.6990
   91SAPS   H5Y 8903   2.232   2.752   6.909 -0.4413  0.4986  1.8594
   91SAPS   C36 8904   2.358   2.773   7.071  0.1682 -0.1846 -0.5831
   91SAPS   H6X 8905   2.382   2.881   7.058  0.1132 -0.2175 -0.9729
   91SAPS   H6Y 8906   2.448   2.723   7.114  0.3764 -1.1600 -2.0832
   91SAPS   C37 8907   2.258   2.757   7.178  0.1819 -0.0865 -0.0297
   91SAPS   H7X 8908   2.231   2.652   7.199  2.1622 -0.4878  0.5920
   91SAPS   H7Y 8909   2.166   2.807   7.140 -1.4396 -0.6332  2.9884
   91SAPS   C38 8910   2.302   2.815   7.314 -0.3318  0.1317  0.4101
   91SAPS   H8X 8911   2.342   2.918   7.306 -0.3696  0.0755 -0.5960
   91SAPS   H8Y 8912   2.391   2.756   7.345 -0.9492 -0.8835  0.2542
   91SAPS   C39 8913   2.190   2.811   7.422 -0.5496  0.1802 -0.3986
   91SAPS   H9X 8914   2.167   2.703   7.437 -1.6837  0.5026  0.1976
   91SAPS   H9Y 8915   2.099   2.859   7.380  1.0146  1.7676 -2.0573
   91SAPS  C310 8916   2.221   2.885   7.556  0.1589 -0.1495 -0.3682
   91SAPS  H10X 8917   2.292   2.828   7.619  0.9584  1.2639  0.0308
   91SAPS  H10Y 8918   2.125   2.885   7.611  0.3972  0.0831  0.0533
   91SAPS  C311 8919   2.285   3.021   7.543  0.3692 -0.1849 -0.4539
   91SAPS  H11X 8920   2.256   3.072   7.449  0.8318  1.6976  0.4029
   91SAPS  H11Y 8921   2.394   3.003   7.528 -0.1361 -0.2657 -4.4942
   91SAPS  C312 8922   2.269   3.117   7.661  0.2017  0.4628 -0.1032
   91SAPS  H12X 8923   2.327   3.089   7.752 -0.9315 -0.7446  0.2611
   91SAPS  H12Y 8924   2.163   3.123   7.695  0.2711 -1.9731  0.6417
   91SAPS  C313 8925   2.318   3.252   7.632  0.8188  0.0170 -0.2845
   91SAPS  H13X 8926   2.262   3.293   7.546 -0.6015  1.2572  1.2090
   91SAPS  H13Y 8927   2.425   3.252   7.602  1.0532  0.4264  0.5311
   91SAPS  C314 8928   2.306   3.338   7.759 -0.7802  0.2194  0.2328
   91SAPS  H14X 8929   2.207   3.315   7.803 -0.7355 -0.4388 -0.0015
   91SAPS  H14Y 8930   2.305   3.447   7.737 -0.4841  0.3452  0.8077
   91SAPS  C315 8931   2.427   3.335   7.852  0.4503 -0.2507 -0.5877
   91SAPS  H15X 8932   2.522   3.366   7.803  0.7660 -0.0782  0.1295
   91SAPS  H15Y 8933   2.450   3.233   7.889  0.1708 -0.2785 -0.4941
   91SAPS  C316 8934   2.408   3.431   7.971 -0.1182  0.0996  0.0523
   91SAPS  H16X 8935   2.355   3.369   8.047 -0.1200 -1.3048 -1.0882
   91SAPS  H16Y 8936   2.335   3.511   7.944  0.3179  0.3444 -0.3951
   91SAPS  C317 8937   2.535   3.495   8.029  1.1952  0.1404 -0.0067
   91SAPS  H17X 8938   2.497   3.574   8.097  2.6575  2.4116 -1.7352
   91SAPS  H17Y 8939   2.596   3.551   7.955  0.2031 -0.6803 -1.4637
   91SAPS  C318 8940   2.628   3.410   8.118  0.0874 -0.6561 -0.0634
   91SAPS  H18X 8941   2.582   3.392   8.217  0.9640 -0.6863  0.3403
   91SAPS  H18Y 8942   2.731   3.451   8.125 -0.1484  0.3724 -2.2963
   91SAPS  H18Z 8943   2.643   3.313   8.065  0.7090  0.0099 -1.1519
   92SAPS     N 8944   1.600   0.335   5.982  0.2548  0.6062 -0.0544
   92SAPS   HN1 8945   1.585   0.232   5.981  2.1018  0.3121 -2.0302
   92SAPS   HN2 8946   1.677   0.360   5.916 -1.3155  1.2316 -1.6698
   92SAPS   HN3 8947   1.629   0.354   6.080 -0.1734  0.1570  0.1633
   92SAPS   C12 8948   1.482   0.414   5.950 -0.3049 -0.4743  0.0575
   92SAPS  H12A 8949   1.503   0.514   5.985 -0.7922  0.0896 -1.2354
   92SAPS   C13 8950   1.451   0.416   5.799  0.3319  0.2267 -0.9693
   92SAPS  O13A 8951   1.537   0.365   5.724  0.3627 -0.3062  0.4327
   92SAPS  O13B 8952   1.360   0.498   5.761  0.3928  0.2872  0.7328
   92SAPS   C11 8953   1.358   0.346   6.022  0.0723 -0.0145  0.3659
   92SAPS  H11A 8954   1.340   0.248   5.972  0.9815  0.1433 -0.2995
   92SAPS  H11B 8955   1.268   0.405   5.995 -0.1067  0.8293  2.7161
   92SAPS     P 8956   1.352   0.454   6.248  0.0406  0.0086 -0.5088
   92SAPS   O13 8957   1.464   0.543   6.226  0.5815 -0.2154 -0.0468
   92SAPS   O14 8958   1.217   0.512   6.224 -0.2862 -0.3793  0.0532
   92SAPS   O12 8959   1.365   0.326   6.161 -0.7235  0.0454  0.3351
   92SAPS   O11 8960   1.362   0.391   6.389  0.6219  0.3360  0.0684
   92SAPS    C1 8961   1.477   0.315   6.437  0.0942 -0.5325 -0.1220
   92SAPS    HA 8962   1.523   0.260   6.352 -1.9805 -1.2245 -0.8429
   92SAPS    HB 8963   1.547   0.388   6.481  0.2888 -1.2793  0.8283
   92SAPS    C2 8964   1.449   0.220   6.562  0.2276 -0.7333 -0.4231
   92SAPS    HS 8965   1.417   0.124   6.517 -1.2213 -0.2741 -0.4198
   92SAPS   O21 8966   1.343   0.283   6.636 -0.2728 -0.4821 -0.3039
   92SAPS   C21 8967   1.275   0.200   6.711 -0.1573 -0.2302  0.0711
   92SAPS   O22 8968   1.292   0.079   6.724 -0.5596 -0.2189  0.4646
   92SAPS   C22 8969   1.164   0.271   6.783  0.2270  0.0459 -0.4672
   92SAPS   H2R 8970   1.202   0.367   6.824  0.6858  0.3079 -1.5002
   92SAPS   H2S 8971   1.085   0.284   6.706 -0.3216 -0.1410  0.0567
   92SAPS    C3 8972   1.572   0.176   6.638  0.0122  0.0515  0.0270
   92SAPS    HX 8973   1.637   0.138   6.556  0.4056 -0.2919  0.4903
   92SAPS    HY 8974   1.548   0.087   6.698 -0.6450  0.4928  0.4184
   92SAPS   O31 8975   1.640   0.282   6.710 -0.0616  0.1338 -0.6129
   92SAPS   C31 8976   1.601   0.298   6.836 -0.3387 -0.2693  0.3059
   92SAPS   O32 8977   1.518   0.228   6.896  0.2771 -0.2254  0.0974
   92SAPS   C32 8978   1.663   0.428   6.906  0.6314 -0.5417  0.2464
   92SAPS   H2X 8979   1.762   0.450   6.861  0.5842  0.0938  0.4475
   92SAPS   H2Y 8980   1.676   0.399   7.013 -1.7392  0.0098  0.7249
   92SAPS   C23 8981   1.112   0.185   6.901 -0.5595 -0.4398  0.0462
   92SAPS   H3R 8982   1.094   0.083   6.861 -1.1042 -0.4119  0.2223
   92SAPS   H3S 8983   1.020   0.228   6.946 -0.2567  0.7942 -0.4921
   92SAPS   C24 8984   1.215   0.177   7.022 -0.5108 -0.1620  0.1775
   92SAPS   H4R 8985   1.229   0.282   7.057  0.6713 -0.7141  1.4203
   92SAPS   H4S 8986   1.314   0.149   6.980 -0.8111  1.3275 -1.6229
   92SAPS   C25 8987   1.163   0.094   7.137 -0.2909  0.3702 -0.7064
   92SAPS   H5R 8988   1.093   0.011   7.118  0.9124 -0.8982  0.2870
   92SAPS   C26 8989   1.206   0.110   7.270  0.4591  0.2596  0.7152
   92SAPS   H6R 8990   1.161   0.042   7.344 -0.6091 -0.3859 -0.4967
   92SAPS   C27 8991   1.298   0.209   7.326  0.1895 -0.3382  0.1373
   92SAPS   H7R 8992   1.232   0.286   7.372 -0.3333  0.2801 -1.5769
   92SAPS   H7S 8993   1.348   0.261   7.241 -2.1688 -0.4703 -1.3745
   92SAPS   C28 8994   1.402   0.160   7.417 -0.3065  0.3928 -0.3863
   92SAPS   H8R 8995   1.498   0.144   7.364 -0.6699  0.9345 -1.2220
   92SAPS   C29 8996   1.407   0.121   7.549 -0.3592 -0.6623 -0.5650
   92SAPS   H9R 8997   1.503   0.099   7.598 -0.1498 -1.1104 -1.1673
   92SAPS  C210 8998   1.282   0.119   7.641 -0.2360 -0.3049 -0.9870
   92SAPS  H10R 8999   1.211   0.201   7.616 -1.3678 -1.2675 -0.9998
   92SAPS  H10S 9000   1.314   0.128   7.747 -0.4270  1.7414 -1.0761
   92SAPS  C211 9001   1.225  -0.019   7.616 -0.4575 -0.1262 -0.4222
   92SAPS  H11R 9002   1.302  -0.097   7.619 -0.2865  0.0076 -1.1522
   92SAPS  C212 9003   1.099  -0.050   7.600 -0.1398 -1.3212 -0.1104
   92SAPS  H12R 9004   1.068  -0.155   7.590 -0.2021 -1.2772 -0.3842
   92SAPS  C213 9005   0.984   0.046   7.603  0.2928  0.7639 -0.6749
   92SAPS  H13R 9006   0.973   0.110   7.512 -0.0306  2.9835  0.8703
   92SAPS  H13S 9007   0.993   0.126   7.679  0.9033  1.1515 -1.1567
   92SAPS  C214 9008   0.855  -0.032   7.620 -0.9201  0.3284 -0.4249
   92SAPS  H14R 9009   0.849  -0.079   7.719  1.0275  1.6661  0.3763
   92SAPS  C215 9010   0.752  -0.045   7.531 -0.5319 -0.2198  0.5242
   92SAPS  H15R 9011   0.666  -0.106   7.563  0.6678 -0.4621  3.4548
   92SAPS  C216 9012   0.743   0.020   7.392 -0.0719 -0.0719  0.1682
   92SAPS  H16R 9013   0.778   0.125   7.397 -1.8063  0.5022  0.5443
   92SAPS  H16S 9014   0.634   0.031   7.373 -0.0374 -0.9535 -0.5574
   92SAPS  C217 9015   0.819  -0.053   7.281  0.1006  0.0815 -0.5431
   92SAPS  H17R 9016   0.777  -0.156   7.273 -3.8187  1.5774  0.1185
   92SAPS  H17S 9017   0.925  -0.060   7.314  0.2493 -0.8154 -1.1670
   92SAPS  C218 9018   0.788   0.008   7.147  0.4797  0.0419 -0.6896
   92SAPS  H18R 9019   0.834   0.109   7.137  0.7771  0.3130  2.8353
   92SAPS  H18S 9020   0.677   0.012   7.143  0.4377 -0.9498 -0.7098
   92SAPS  C219 9021   0.848  -0.085   7.033  0.1527 -0.0366 -1.1173
   92SAPS  H19R 9022   0.802  -0.183   7.060 -0.3256  0.4473 -0.1339
   92SAPS  H19S 9023   0.959  -0.087   7.033  0.1723 -2.5685 -3.9722
   92SAPS  C220 9024   0.807  -0.037   6.892 -0.4218  0.2395 -0.7158
   92SAPS  H20R 9025   0.875   0.045   6.858  0.0115 -0.3725 -1.3276
   92SAPS  H20S 9026   0.702  -0.003   6.903  0.0686  0.6959  3.5610
   92SAPS  H20T 9027   0.810  -0.129   6.831  0.9470  0.8490 -1.6073
   92SAPS   C33 9028   1.569   0.556   6.899  0.1736 -0.2864  0.9884
   92SAPS   H3X 9029   1.538   0.583   6.796  0.6003 -2.3621  0.2864
   92SAPS   H3Y 9030   1.635   0.638   6.934  0.3072  0.9572 -2.0944
   92SAPS   C34 9031   1.448   0.534   6.994 -0.1701 -0.6228 -0.0186
   92SAPS   H4X 9032   1.400   0.433   6.990  1.0560 -1.2199  0.1074
   92SAPS   H4Y 9033   1.372   0.610   6.967  0.5852  0.3884  0.6535
   92SAPS   C35 9034   1.476   0.545   7.143  0.1653 -0.1100 -0.3894
   92SAPS   H5X 9035   1.534   0.634   7.176  1.6171 -0.7985 -1.0285
   92SAPS   H5Y 9036   1.536   0.458   7.177 -0.6619  0.1846  1.8874
   92SAPS   C36 9037   1.347   0.549   7.219 -0.0228 -0.2901 -0.6584
   92SAPS   H6X 9038   1.275   0.475   7.178  0.9260 -1.3216 -0.4705
   92SAPS   H6Y 9039   1.301   0.649   7.200 -2.1791 -1.1465 -0.1311
   92SAPS   C37 9040   1.358   0.527   7.363  0.1228 -0.2200 -0.0282
   92SAPS   H7X 9041   1.413   0.433   7.382  1.1548  0.2185 -0.8098
   92SAPS   H7Y 9042   1.262   0.506   7.415 -0.4048  0.4120 -0.7353
   92SAPS   C38 9043   1.413   0.638   7.453 -0.4029  0.2662 -0.5955
   92SAPS   H8X 9044   1.353   0.723   7.415  0.8884  0.8744 -1.3261
   92SAPS   H8Y 9045   1.520   0.656   7.427  0.0452 -0.1813  0.9254
   92SAPS   C39 9046   1.386   0.620   7.607  0.5404  0.1870 -0.0835
   92SAPS   H9X 9047   1.278   0.628   7.630  0.3520 -0.4431 -0.7590
   92SAPS   H9Y 9048   1.437   0.697   7.670  1.0718 -0.1840 -0.0597
   92SAPS  C310 9049   1.436   0.496   7.672  0.0254 -0.0869 -0.0642
   92SAPS  H10X 9050   1.547   0.504   7.675 -0.0872  1.4931  0.0786
   92SAPS  H10Y 9051   1.404   0.405   7.617 -2.2672 -0.2892  1.5344
   92SAPS  C311 9052   1.397   0.473   7.819 -0.4851  0.0615  0.1250
   92SAPS  H11X 9053   1.301   0.417   7.825 -1.9531  2.2853 -1.6477
   92SAPS  H11Y 9054   1.368   0.564   7.877 -1.1021  0.3749 -0.6615
   92SAPS  C312 9055   1.507   0.402   7.903 -0.2925 -0.4556  0.3027
   92SAPS  H12X 9056   1.586   0.480   7.898 -0.1036 -0.4392  2.7489
   92SAPS  H12Y 9057   1.529   0.311   7.844  0.9666 -0.4432  0.7392
   92SAPS  C313 9058   1.469   0.355   8.047 -0.4086 -0.1112 -1.1677
   92SAPS  H13X 9059   1.413   0.430   8.107 -1.6270 -3.1973  1.7677
   92SAPS  H13Y 9060   1.564   0.338   8.101 -1.5809  1.3165  1.4345
   92SAPS  C314 9061   1.389   0.232   8.038 -0.4663 -0.6624 -0.3777
   92SAPS  H14X 9062   1.461   0.161   7.993  2.6981  1.2537  1.4675
   92SAPS  H14Y 9063   1.303   0.253   7.971 -0.4932 -0.8516 -0.3998
   92SAPS  C315 9064   1.339   0.182   8.171  1.3432 -0.5862 -0.2693
   92SAPS  H15X 9065   1.251   0.238   8.211  1.9608 -0.7684  1.3743
   92SAPS  H15Y 9066   1.420   0.205   8.244  0.7726  1.1439 -0.1459
   92SAPS  C316 9067   1.312   0.028   8.173  0.1723 -0.0483  0.0066
   92SAPS  H16X 9068   1.262  -0.008   8.265  2.0064 -0.4126  0.8975
   92SAPS  H16Y 9069   1.411  -0.023   8.169 -0.4343 -1.2911  0.6358
   92SAPS  C317 9070   1.233  -0.022   8.047  0.7941  0.9889 -0.0492
   92SAPS  H17X 9071   1.293  -0.000   7.956  1.4167  0.5200  0.2530
   92SAPS  H17Y 9072   1.140   0.039   8.039 -0.6239 -1.1716 -0.4876
   92SAPS  C318 9073   1.202  -0.172   8.057 -0.5887  0.4065  0.4175
   92SAPS  H18X 9074   1.297  -0.220   8.088 -0.6471  0.2319  0.3263
   92SAPS  H18Y 9075   1.172  -0.221   7.963  1.2905  1.0019 -0.5262
   92SAPS  H18Z 9076   1.132  -0.191   8.141 -0.8396 -0.1520  0.0816
   93SAPS     N 9077   2.531   1.256   6.096 -0.5390  0.2547 -0.3321
   93SAPS   HN1 9078   2.555   1.230   5.999  2.9326  1.3798  0.1463
   93SAPS   HN2 9079   2.578   1.346   6.116 -0.6013  0.4801 -1.2007
   93SAPS   HN3 9080   2.571   1.179   6.155 -2.1093  1.2990  2.2050
   93SAPS   C12 9081   2.375   1.269   6.112  0.3054  0.3049  0.4158
   93SAPS  H12A 9082   2.325   1.327   6.036 -2.1055 -0.6368  1.2639
   93SAPS   C13 9083   2.307   1.128   6.119  0.4840 -0.5389 -0.1899
   93SAPS  O13A 9084   2.380   1.024   6.115 -0.4430  0.0830  0.1315
   93SAPS  O13B 9085   2.180   1.122   6.119  0.3163 -0.7839 -0.3831
   93SAPS   C11 9086   2.344   1.344   6.251 -0.0906  0.2038  0.1177
   93SAPS  H11A 9087   2.343   1.277   6.340 -1.4789 -0.6996 -0.5656
   93SAPS  H11B 9088   2.244   1.385   6.229 -0.8973 -0.4273  2.4155
   93SAPS     P 9089   2.506   1.486   6.404 -0.1138  0.3572  0.2279
   93SAPS   O13 9090   2.631   1.404   6.411 -0.0138 -0.0794  0.5375
   93SAPS   O14 9091   2.527   1.634   6.412  0.0795 -0.0010  0.2669
   93SAPS   O12 9092   2.436   1.453   6.267  0.1157  0.3577  0.2776
   93SAPS   O11 9093   2.392   1.445   6.508 -0.0331  0.2348  0.1953
   93SAPS    C1 9094   2.416   1.476   6.643  0.1015  0.0282  0.2717
   93SAPS    HA 9095   2.523   1.465   6.672  0.0063  1.9395  1.4299
   93SAPS    HB 9096   2.387   1.576   6.682 -1.4502 -1.3759  2.8441
   93SAPS    C2 9097   2.345   1.371   6.739  1.0824 -0.5375  0.7020
   93SAPS    HS 9098   2.395   1.277   6.710 -1.1186 -1.9633  1.3722
   93SAPS   O21 9099   2.204   1.371   6.714  0.6684 -0.1211 -0.4448
   93SAPS   C21 9100   2.139   1.259   6.750  0.8304 -0.8106 -0.8957
   93SAPS   O22 9101   2.195   1.159   6.785  0.2325 -0.3566 -0.0009
   93SAPS   C22 9102   1.994   1.268   6.712  0.3622 -0.0440 -0.1070
   93SAPS   H2R 9103   1.988   1.258   6.602 -0.5645 -0.6007 -0.0153
   93SAPS   H2S 9104   1.942   1.179   6.753  1.3338 -0.3933  0.3867
   93SAPS    C3 9105   2.377   1.401   6.891  0.0021  0.2364  0.4216
   93SAPS    HX 9106   2.338   1.502   6.914  0.2341 -0.0368  2.0630
   93SAPS    HY 9107   2.488   1.404   6.888  0.0461 -1.5629 -0.8650
   93SAPS   O31 9108   2.322   1.293   6.974  0.0467 -0.1069 -0.5394
   93SAPS   C31 9109   2.396   1.178   6.995  0.3480  0.8145  0.0900
   93SAPS   O32 9110   2.494   1.143   6.934 -0.3235  0.2163  0.2259
   93SAPS   C32 9111   2.314   1.093   7.098 -0.1990 -0.1292  0.3266
   93SAPS   H2X 9112   2.386   1.013   7.125  0.3528  1.2190  3.0213
   93SAPS   H2Y 9113   2.235   1.041   7.040 -0.6368  0.6572  0.2092
   93SAPS   C23 9114   1.915   1.393   6.776 -0.0038 -0.1880 -0.6903
   93SAPS   H3R 9115   1.815   1.372   6.734  0.7391  0.4672 -2.8304
   93SAPS   H3S 9116   1.945   1.486   6.724 -0.7791  1.1132  1.1140
   93SAPS   C24 9117   1.927   1.399   6.934  0.6120 -0.7213 -0.8829
   93SAPS   H4R 9118   1.878   1.497   6.953 -1.4145 -1.9274  0.2763
   93SAPS   H4S 9119   2.035   1.409   6.963  0.3670  0.7784 -0.4069
   93SAPS   C25 9120   1.868   1.289   7.012  0.1110 -0.0293 -0.0457
   93SAPS   H5R 9121   1.818   1.209   6.957  2.0129 -0.6699 -0.8822
   93SAPS   C26 9122   1.855   1.275   7.146 -0.4570 -0.2553  0.2149
   93SAPS   H6R 9123   1.801   1.191   7.192  0.6469 -0.9261  0.2932
   93SAPS   C27 9124   1.920   1.369   7.246  0.1227 -0.5860 -0.6688
   93SAPS   H7R 9125   1.987   1.444   7.198  0.4921 -1.1146 -0.9828
   93SAPS   H7S 9126   1.976   1.293   7.305 -1.0493 -0.3566  0.7922
   93SAPS   C28 9127   1.811   1.435   7.331 -0.4942 -0.1111  1.2455
   93SAPS   H8R 9128   1.711   1.427   7.284 -1.8721 -0.8505  4.1764
   93SAPS   C29 9129   1.828   1.486   7.453  0.1554  0.4687  0.1109
   93SAPS   H9R 9130   1.737   1.537   7.490  0.4419  1.3832 -0.4321
   93SAPS  C210 9131   1.950   1.500   7.542 -0.0924 -0.1457  0.8437
   93SAPS  H10R 9132   1.960   1.606   7.574  0.6314  0.5829 -1.6610
   93SAPS  H10S 9133   2.039   1.491   7.476  0.3445 -0.8220  1.5217
   93SAPS  C211 9134   1.957   1.416   7.670 -0.4115  0.2973  0.2501
   93SAPS  H11R 9135   1.949   1.308   7.650  0.0244  0.2155  0.4972
   93SAPS  C212 9136   1.963   1.463   7.801  1.3095  0.3063 -0.1927
   93SAPS  H12R 9137   1.967   1.397   7.889 -1.4707 -0.3696 -0.5320
   93SAPS  C213 9138   1.959   1.607   7.853  0.2655  0.7700  0.1863
   93SAPS  H13R 9139   1.907   1.676   7.784 -4.2323  0.1229  2.6996
   93SAPS  H13S 9140   2.065   1.642   7.854  1.0212 -1.3136 -1.9875
   93SAPS  C214 9141   1.899   1.632   7.984 -0.0444 -0.4655 -0.2935
   93SAPS  H14R 9142   1.797   1.594   7.994 -0.3069 -0.0621 -1.4428
   93SAPS  C215 9143   1.956   1.692   8.085 -0.2678 -0.3757  0.2034
   93SAPS  H15R 9144   1.902   1.690   8.181  1.0451  0.9004  1.0039
   93SAPS  C216 9145   2.088   1.753   8.096 -0.1373  0.9540  0.1223
   93SAPS  H16R 9146   2.081   1.853   8.046  2.1208  0.9384 -0.2617
   93SAPS  H16S 9147   2.167   1.704   8.036  1.2576  1.8162  1.2321
   93SAPS  C217 9148   2.150   1.760   8.241 -0.0405 -0.2534 -0.5026
   93SAPS  H17R 9149   2.248   1.812   8.238  1.5665 -3.1704 -0.2851
   93SAPS  H17S 9150   2.171   1.659   8.282 -1.0024 -0.2816 -0.0709
   93SAPS  C218 9151   2.064   1.852   8.329 -0.3729  0.3231 -0.0234
   93SAPS  H18R 9152   1.970   1.800   8.357  0.5072 -0.5284  1.3678
   93SAPS  H18S 9153   2.041   1.941   8.266  1.4257  1.0173  0.2980
   93SAPS  C219 9154   2.140   1.894   8.452 -0.3039  0.2140  0.4058
   93SAPS  H19R 9155   2.247   1.915   8.430  0.3013 -1.6000  1.4886
   93SAPS  H19S 9156   2.129   1.809   8.523  1.4757  0.9492  1.5846
   93SAPS  C220 9157   2.083   2.024   8.504  0.4870 -0.3706 -0.2492
   93SAPS  H20R 9158   2.116   2.113   8.446 -0.4087 -0.9104 -1.6361
   93SAPS  H20S 9159   2.108   2.022   8.612  0.6741  0.7418 -0.2598
   93SAPS  H20T 9160   1.973   2.019   8.487 -0.0291 -1.8500  3.1684
   93SAPS   C33 9161   2.258   1.156   7.231 -0.5789 -0.3289  0.0113
   93SAPS   H3X 9162   2.181   1.233   7.216  0.7041  1.0874  0.5693
   93SAPS   H3Y 9163   2.334   1.212   7.290  1.0570 -1.1635 -1.2412
   93SAPS   C34 9164   2.206   1.046   7.323 -0.3305 -0.6040  0.3925
   93SAPS   H4X 9165   2.294   0.979   7.332  2.0330  2.0469 -2.1778
   93SAPS   H4Y 9166   2.128   0.992   7.265 -0.3738  1.3157 -1.3966
   93SAPS   C35 9167   2.158   1.097   7.458  0.5663 -0.1986 -0.4198
   93SAPS   H5X 9168   2.069   1.162   7.444 -1.5108 -2.3673  2.1723
   93SAPS   H5Y 9169   2.244   1.150   7.504  1.7265 -0.2544 -2.4548
   93SAPS   C36 9170   2.128   0.968   7.539  0.6011 -0.8975  0.2658
   93SAPS   H6X 9171   2.222   0.910   7.553 -0.2203 -1.4009  4.1251
   93SAPS   H6Y 9172   2.053   0.903   7.488 -0.4321  1.5736 -1.4501
   93SAPS   C37 9173   2.080   0.995   7.683  0.1158 -0.1452  0.4813
   93SAPS   H7X 9174   2.042   0.899   7.724 -1.1007 -0.3624 -1.0833
   93SAPS   H7Y 9175   1.990   1.059   7.667  0.3050 -0.0717 -0.2805
   93SAPS   C38 9176   2.188   1.066   7.780 -0.4040  0.2035 -0.1458
   93SAPS   H8X 9177   2.210   1.165   7.734 -0.2233 -0.0064 -0.5140
   93SAPS   H8Y 9178   2.284   1.012   7.792  0.4021  1.6829  0.1723
   93SAPS   C39 9179   2.132   1.082   7.924  0.3368  1.3281 -0.1087
   93SAPS   H9X 9180   2.095   0.988   7.970 -1.0408  0.6068 -2.6322
   93SAPS   H9Y 9181   2.051   1.158   7.925  0.8825  1.9547  3.1059
   93SAPS  C310 9182   2.242   1.141   8.013  0.0469 -0.1622  0.1543
   93SAPS  H10X 9183   2.242   1.251   7.994  1.1993  0.1163  1.6233
   93SAPS  H10Y 9184   2.335   1.087   7.984  1.1051  1.1998  0.9011
   93SAPS  C311 9185   2.214   1.120   8.164  0.3888  0.9864 -0.7069
   93SAPS  H11X 9186   2.232   1.013   8.187  2.6189  1.3993 -0.4485
   93SAPS  H11Y 9187   2.107   1.151   8.170  0.6524  2.0345 -1.3463
   93SAPS  C312 9188   2.300   1.198   8.262  0.2706  0.2382  0.5912
   93SAPS  H12X 9189   2.307   1.303   8.225  1.1819 -0.3486 -0.9330
   93SAPS  H12Y 9190   2.405   1.162   8.264  0.3984  0.3870 -2.0987
   93SAPS  C313 9191   2.260   1.198   8.417 -0.0665 -0.0512 -0.2413
   93SAPS  H13X 9192   2.160   1.241   8.439 -1.5606 -2.9183 -1.1822
   93SAPS  H13Y 9193   2.339   1.258   8.469 -0.9293 -0.3627  1.4583
   93SAPS  C314 9194   2.261   1.060   8.485 -0.1225  0.5019  0.0359
   93SAPS  H14X 9195   2.359   1.012   8.466 -0.7955 -0.0951 -2.0613
   93SAPS  H14Y 9196   2.190   0.995   8.429 -0.9692 -0.8904  2.6597
   93SAPS  C315 9197   2.228   1.072   8.636  0.0905 -0.5449 -0.2675
   93SAPS  H15X 9198   2.117   1.081   8.637  0.2079  0.9818 -0.1916
   93SAPS  H15Y 9199   2.266   1.168   8.676  1.1140 -0.2171 -1.9895
   93SAPS  C316 9200   2.278   0.946   8.711 -0.0894  0.2032 -0.0840
   93SAPS  H16X 9201   2.387   0.929   8.695  0.0542  1.1115 -0.0720
   93SAPS  H16Y 9202   2.225   0.864   8.656  1.5690  0.3169 -1.9186
   93SAPS  C317 9203   2.250   0.941   8.856  0.0978 -0.0902 -0.1752
   93SAPS  H17X 9204   2.142   0.954   8.882 -0.3879 -1.0538 -1.6280
   93SAPS  H17Y 9205   2.309   1.016   8.911 -2.0389  1.8407 -0.4327
   93SAPS  C318 9206   2.277   0.796   8.910 -0.5839 -0.6601 -0.2487
   93SAPS  H18X 9207   2.216   0.721   8.855 -0.9981 -0.4889 -0.0237
   93SAPS  H18Y 9208   2.259   0.791   9.019 -0.5839 -2.7059 -0.3356
   93SAPS  H18Z 9209   2.386   0.777   8.902 -0.4975 -0.3720  0.2242
   94SAPS     N 9210   2.075   2.856   5.621 -0.2936 -0.2629  0.0783
   94SAPS   HN1 9211   2.133   2.780   5.580 -0.0718  0.3314 -0.7093
   94SAPS   HN2 9212   1.981   2.824   5.653 -1.0028  1.1926 -0.5202
   94SAPS   HN3 9213   2.070   2.924   5.543 -2.6809  0.2261  0.6156
   94SAPS   C12 9214   2.136   2.906   5.743  0.2404 -0.2182 -0.6866
   94SAPS  H12A 9215   2.177   2.824   5.800 -0.3198 -0.6058 -0.8347
   94SAPS   C13 9216   2.264   2.995   5.722  0.1403  0.7307 -0.5732
   94SAPS  O13A 9217   2.305   3.033   5.608  0.1417  0.0453 -0.7829
   94SAPS  O13B 9218   2.327   3.026   5.828 -0.3840  0.3284 -0.0336
   94SAPS   C11 9219   2.026   2.974   5.828 -0.4752  0.3130  0.3348
   94SAPS  H11A 9220   1.984   3.063   5.775  0.4487  0.5026 -0.0791
   94SAPS  H11B 9221   2.081   3.000   5.921  1.2441  0.5559 -0.7357
   94SAPS     P 9222   1.802   2.920   5.953  0.1080  0.2723  0.2385
   94SAPS   O13 9223   1.718   3.007   5.877  0.0648  0.2732  0.0656
   94SAPS   O14 9224   1.750   2.797   6.014  0.4325  0.2915 -0.6106
   94SAPS   O12 9225   1.927   2.875   5.868 -0.3617 -0.6298  0.3050
   94SAPS   O11 9226   1.852   3.015   6.068  0.3484 -0.0809 -0.1614
   94SAPS    C1 9227   1.926   2.969   6.178  0.5160  0.5161 -0.1554
   94SAPS    HA 9228   1.887   2.874   6.221 -0.9365  1.5062  0.7873
   94SAPS    HB 9229   2.033   2.964   6.150  0.0575 -1.0922 -1.7231
   94SAPS    C2 9230   1.919   3.083   6.286 -0.0665 -0.1606  0.5524
   94SAPS    HS 9231   1.945   3.182   6.242 -1.3001 -1.4436 -3.1835
   94SAPS   O21 9232   1.998   3.037   6.404  0.0310 -0.0422  0.4515
   94SAPS   C21 9233   2.058   3.139   6.457  0.2221 -0.7366 -0.3043
   94SAPS   O22 9234   2.057   3.254   6.426  0.0097  0.0383 -0.1388
   94SAPS   C22 9235   2.126   3.085   6.580 -0.3239 -0.7560 -0.1317
   94SAPS   H2R 9236   2.048   3.034   6.640 -0.0951 -0.7852  0.1437
   94SAPS   H2S 9237   2.202   3.012   6.544  0.6640 -0.5456  1.4866
   94SAPS    C3 9238   1.771   3.097   6.328  0.5513 -0.4450 -0.0420
   94SAPS    HX 9239   1.738   2.993   6.344  0.8454 -0.7987 -1.6682
   94SAPS    HY 9240   1.697   3.123   6.249  0.3910 -1.5273 -0.2447
   94SAPS   O31 9241   1.742   3.172   6.445 -0.1886  0.5303  0.2218
   94SAPS   C31 9242   1.735   3.299   6.429 -0.6868 -0.1885 -0.3092
   94SAPS   O32 9243   1.736   3.362   6.324  0.7652  0.6978  0.4861
   94SAPS   C32 9244   1.706   3.357   6.568 -0.1584  0.1845 -0.3224
   94SAPS   H2X 9245   1.611   3.312   6.604 -1.3327  1.8494 -1.2685
   94SAPS   H2Y 9246   1.683   3.463   6.546  1.8023  1.1441  2.0757
   94SAPS   C23 9247   2.206   3.178   6.662 -0.3831 -0.4699  0.3837
   94SAPS   H3R 9248   2.151   3.272   6.682  0.3284  0.0455 -0.0790
   94SAPS   H3S 9249   2.294   3.206   6.601 -2.2909 -0.5612 -2.5179
   94SAPS   C24 9250   2.278   3.120   6.783 -0.0330  0.6312  0.3104
   94SAPS   H4R 9251   2.355   3.193   6.815  1.8325 -0.1097 -2.3302
   94SAPS   H4S 9252   2.326   3.029   6.742  0.9204  1.4108 -0.3149
   94SAPS   C25 9253   2.180   3.078   6.890  0.1385 -0.1980  0.5817
   94SAPS   H5R 9254   2.115   2.993   6.865 -1.8427  1.6081 -0.5636
   94SAPS   C26 9255   2.174   3.133   7.012 -0.7708 -0.0036 -0.6248
   94SAPS   H6R 9256   2.105   3.087   7.084 -1.2361  2.4063  0.5257
   94SAPS   C27 9257   2.265   3.239   7.066  0.1478  0.0003  0.1087
   94SAPS   H7R 9258   2.203   3.331   7.074  2.2502  1.4134  0.4673
   94SAPS   H7S 9259   2.344   3.273   6.996  1.5277  1.1583  2.1765
   94SAPS   C28 9260   2.326   3.211   7.204 -0.8329 -0.2026  0.0858
   94SAPS   H8R 9261   2.328   3.106   7.239  0.9999  0.3732  1.8230
   94SAPS   C29 9262   2.375   3.311   7.288 -0.3744  1.2852 -0.0508
   94SAPS   H9R 9263   2.427   3.285   7.381  1.6263  0.3500 -1.3897
   94SAPS  C210 9264   2.379   3.457   7.244  0.0643  0.0023 -0.2331
   94SAPS  H10R 9265   2.278   3.499   7.223  0.2269  0.6588  0.2759
   94SAPS  H10S 9266   2.436   3.455   7.149 -3.4185 -1.4020 -2.3872
   94SAPS  C211 9267   2.450   3.544   7.343 -0.1271  0.7300  0.5028
   94SAPS  H11R 9268   2.557   3.553   7.317 -0.1894 -1.2428 -0.5513
   94SAPS  C212 9269   2.383   3.628   7.426  0.8432 -0.5145 -0.5011
   94SAPS  H12R 9270   2.442   3.699   7.485 -0.8655  0.8202 -0.3721
   94SAPS  C213 9271   2.229   3.641   7.439 -0.1736  0.9365 -0.4890
   94SAPS  H13R 9272   2.197   3.571   7.520  1.3407  0.0487 -0.6308
   94SAPS  H13S 9273   2.187   3.607   7.343 -2.0054  1.3029  0.1649
   94SAPS  C214 9274   2.190   3.778   7.479  0.6480  0.3804  0.5764
   94SAPS  H14R 9275   2.187   3.845   7.392  1.3095 -0.7196 -0.3116
   94SAPS  C215 9276   2.143   3.823   7.596  0.4967 -0.0192 -0.0016
   94SAPS  H15R 9277   2.131   3.932   7.606  1.7627  0.1854 -0.5826
   94SAPS  C216 9278   2.124   3.745   7.721  0.0074  0.4121  0.0937
   94SAPS  H16R 9279   2.165   3.642   7.722 -1.3318 -0.1316  0.5054
   94SAPS  H16S 9280   2.017   3.721   7.739 -0.1554  1.4145  0.5200
   94SAPS  C217 9281   2.179   3.825   7.834  0.3013  0.3419  0.8860
   94SAPS  H17R 9282   2.153   3.933   7.834 -0.4182  0.1675  1.2525
   94SAPS  H17S 9283   2.290   3.820   7.832  0.3455  0.0374  3.4339
   94SAPS  C218 9284   2.131   3.772   7.968  0.3027 -0.2379  0.3902
   94SAPS  H18R 9285   2.158   3.664   7.974  0.4655 -0.2590 -0.6513
   94SAPS  H18S 9286   2.022   3.785   7.956  0.8465  1.9185 -2.6836
   94SAPS  C219 9287   2.183   3.839   8.099  0.4617  0.0437  0.0506
   94SAPS  H19R 9288   2.166   3.949   8.093 -0.1563 -0.1805 -2.8614
   94SAPS  H19S 9289   2.293   3.828   8.105  0.4427  0.3852  1.0556
   94SAPS  C220 9290   2.105   3.792   8.220 -0.4234 -0.3869  0.5000
   94SAPS  H20R 9291   1.994   3.796   8.215 -0.3678 -0.5581 -1.1703
   94SAPS  H20S 9292   2.132   3.847   8.312  1.3156 -0.4880  0.0623
   94SAPS  H20T 9293   2.124   3.685   8.244  1.1282  0.2875  2.4354
   94SAPS   C33 9294   1.813   3.341   6.677 -0.5382  0.1197 -0.3583
   94SAPS   H3X 9295   1.896   3.412   6.659  1.8366 -2.2712  0.6858
   94SAPS   H3Y 9296   1.852   3.237   6.682 -0.9775 -0.0388 -0.2232
   94SAPS   C34 9297   1.758   3.359   6.819  0.1950  0.3566  0.5371
   94SAPS   H4X 9298   1.687   3.280   6.851  0.9382 -0.4078  0.3254
   94SAPS   H4Y 9299   1.698   3.452   6.819 -2.3898 -1.2487 -0.4197
   94SAPS   C35 9300   1.864   3.371   6.926  0.1474 -0.1609 -0.0489
   94SAPS   H5X 9301   1.946   3.442   6.900 -0.9124  1.8080  1.8192
   94SAPS   H5Y 9302   1.913   3.273   6.943  3.1053  1.2883 -0.0106
   94SAPS   C36 9303   1.793   3.407   7.060  0.1469 -0.8952  0.1851
   94SAPS   H6X 9304   1.709   3.336   7.076  0.3148 -0.8468  1.3001
   94SAPS   H6Y 9305   1.762   3.513   7.054  1.3282 -0.4890  1.1425
   94SAPS   C37 9306   1.875   3.371   7.188  1.0162  0.1891  0.0140
   94SAPS   H7X 9307   1.962   3.441   7.186  0.7543  0.5065 -0.2385
   94SAPS   H7Y 9308   1.908   3.266   7.172 -0.0449 -0.0601 -0.5311
   94SAPS   C38 9309   1.790   3.387   7.315 -0.2237  0.4358  1.0282
   94SAPS   H8X 9310   1.705   3.318   7.298  1.3919 -1.4900  0.5465
   94SAPS   H8Y 9311   1.767   3.495   7.331 -0.1926  0.4290  1.1216
   94SAPS   C39 9312   1.859   3.346   7.448  0.0864  0.3389  0.6742
   94SAPS   H9X 9313   1.968   3.369   7.445 -0.3643  2.3840 -2.7530
   94SAPS   H9Y 9314   1.832   3.241   7.472  0.8552  0.5957  2.7856
   94SAPS  C310 9315   1.796   3.426   7.560  0.0539 -0.0927 -0.1216
   94SAPS  H10X 9316   1.688   3.403   7.568  0.2167 -1.3641 -1.2804
   94SAPS  H10Y 9317   1.813   3.533   7.535 -0.5514  0.7791  2.9444
   94SAPS  C311 9318   1.858   3.399   7.697  0.2346  0.0901  0.3130
   94SAPS  H11X 9319   1.963   3.432   7.684 -0.0924  0.6707 -0.9501
   94SAPS  H11Y 9320   1.858   3.290   7.720 -1.7464  0.4578  2.2269
   94SAPS  C312 9321   1.795   3.480   7.809  0.3608 -0.1424  0.3727
   94SAPS  H12X 9322   1.704   3.418   7.826 -0.5602  0.8563 -0.8490
   94SAPS  H12Y 9323   1.756   3.579   7.778  0.3059 -0.3087 -0.0906
   94SAPS  C313 9324   1.897   3.485   7.932  0.7859  0.3138  0.0909
   94SAPS  H13X 9325   1.984   3.547   7.903  2.2758 -1.2708  1.0515
   94SAPS  H13Y 9326   1.932   3.380   7.947 -1.3380 -0.6944 -1.6853
   94SAPS  C314 9327   1.829   3.527   8.065  0.3710  0.0920  0.5993
   94SAPS  H14X 9328   1.728   3.482   8.068  0.0438  0.7322 -0.5256
   94SAPS  H14Y 9329   1.813   3.637   8.059  1.5175  0.3470  1.8873
   94SAPS  C315 9330   1.906   3.487   8.195  0.1507  0.2248  0.0787
   94SAPS  H15X 9331   1.877   3.569   8.266  0.3606  0.5069 -0.1612
   94SAPS  H15Y 9332   2.010   3.508   8.163 -0.2238  2.8044  0.4369
   94SAPS  C316 9333   1.889   3.347   8.258 -0.3110 -0.7401 -0.2027
   94SAPS  H16X 9334   1.919   3.270   8.184 -1.0742 -1.0961 -0.1504
   94SAPS  H16Y 9335   1.784   3.332   8.292  0.3145  0.2260  2.3075
   94SAPS  C317 9336   1.980   3.314   8.379  0.6651 -0.5240 -0.2211
   94SAPS  H17X 9337   1.940   3.379   8.460  2.8003 -1.3096  1.5128
   94SAPS  H17Y 9338   2.088   3.340   8.374  0.3480  0.9805  0.4583
   94SAPS  C318 9339   1.971   3.171   8.429  0.1439 -0.1589  0.1986
   94SAPS  H18X 9340   2.033   3.111   8.359 -1.4215 -0.5402 -0.8767
   94SAPS  H18Y 9341   1.866   3.137   8.426 -0.1742  0.8958 -3.0405
   94SAPS  H18Z 9342   2.028   3.151   8.522 -0.6217  0.8090  0.8832
   95SAPS     N 9343   5.643   1.298   6.165  0.0425 -0.4080 -0.4436
   95SAPS   HN1 9344   5.684   1.393   6.156 -1.9187  0.5638  0.6808
   95SAPS   HN2 9345   5.544   1.308   6.192  0.4159  0.1796  0.7580
   95SAPS   HN3 9346   5.697   1.263   6.247 -2.6840 -0.7407  1.2448
   95SAPS   C12 9347   5.675   1.213   6.045 -0.2866 -0.4652  0.1964
   95SAPS  H12A 9348   5.600   1.237   5.971 -0.4074  0.7255  0.6985
   95SAPS   C13 9349   5.822   1.230   5.980  0.2538 -0.0632  0.0280
   95SAPS  O13A 9350   5.896   1.322   6.021  0.4128 -0.2768 -0.2640
   95SAPS  O13B 9351   5.844   1.165   5.876 -0.1993 -0.4710 -0.0394
   95SAPS   C11 9352   5.662   1.064   6.095  0.1194 -0.0076  0.6995
   95SAPS  H11A 9353   5.735   1.038   6.175 -2.1144 -2.1307  2.1045
   95SAPS  H11B 9354   5.678   0.992   6.012 -0.3446  2.4588 -1.5970
   95SAPS     P 9355   5.457   0.911   6.163  0.2008  0.1134  0.1796
   95SAPS   O13 9356   5.314   0.932   6.125 -0.4779 -0.2258  0.0640
   95SAPS   O14 9357   5.531   0.800   6.093 -0.2805 -0.4622  0.2732
   95SAPS   O12 9358   5.531   1.040   6.145 -0.2258 -0.3000 -0.2480
   95SAPS   O11 9359   5.463   0.887   6.318  1.5110 -0.6814  0.1885
   95SAPS    C1 9360   5.474   0.992   6.420 -0.2843 -0.1983 -0.2575
   95SAPS    HA 9361   5.573   0.991   6.470  0.9679  2.2452 -2.5694
   95SAPS    HB 9362   5.456   1.094   6.379 -0.3735 -0.7609 -1.6598
   95SAPS    C2 9363   5.374   0.975   6.543 -0.1198  0.3578  0.8520
   95SAPS    HS 9364   5.371   1.065   6.608  0.3441  0.9092  0.1065
   95SAPS   O21 9365   5.421   0.860   6.618 -0.7498 -0.5770  0.4426
   95SAPS   C21 9366   5.397   0.862   6.752  0.0109  0.2822 -0.3412
   95SAPS   O22 9367   5.344   0.959   6.808  0.0488  0.5447 -0.3240
   95SAPS   C22 9368   5.439   0.731   6.814  0.9149  0.1249 -0.2747
   95SAPS   H2R 9369   5.395   0.648   6.754 -0.3067 -1.0405  2.1588
   95SAPS   H2S 9370   5.550   0.725   6.809  0.9243  0.7595 -0.9760
   95SAPS    C3 9371   5.231   0.944   6.490  0.2730 -0.6323 -0.5358
   95SAPS    HX 9372   5.234   0.866   6.410 -0.8919  0.5178 -1.7079
   95SAPS    HY 9373   5.193   1.039   6.447  1.1159  0.6753  1.5470
   95SAPS   O31 9374   5.152   0.899   6.594  0.0804  0.8932  0.1249
   95SAPS   C31 9375   5.019   0.887   6.575 -0.7698  0.7034  0.3021
   95SAPS   O32 9376   4.963   0.912   6.470 -0.4302 -0.2112 -0.0708
   95SAPS   C32 9377   4.950   0.860   6.710 -0.9736  0.5853 -0.4190
   95SAPS   H2X 9378   4.896   0.952   6.741 -0.4224  0.1662  1.8170
   95SAPS   H2Y 9379   5.025   0.833   6.786  1.1417  0.6138 -2.4568
   95SAPS   C23 9380   5.411   0.716   6.963 -0.5411 -0.3509  0.5674
   95SAPS   H3R 9381   5.306   0.741   6.990 -0.8387 -0.8124 -0.1682
   95SAPS   H3S 9382   5.477   0.792   7.011  1.2508 -0.7607 -1.1967
   95SAPS   C24 9383   5.445   0.576   7.013 -0.1017 -0.4552 -0.0487
   95SAPS   H4R 9384   5.373   0.510   6.961 -0.1656 -0.1781 -0.3112
   95SAPS   H4S 9385   5.417   0.570   7.121  1.0247 -2.3018  0.1729
   95SAPS   C25 9386   5.581   0.522   6.989 -0.1233  0.4163  0.3348
   95SAPS   H5R 9387   5.586   0.488   6.885  0.2590  0.6466  0.2789
   95SAPS   C26 9388   5.684   0.518   7.079 -0.3816  0.5814 -0.1476
   95SAPS   H6R 9389   5.781   0.486   7.040  0.0974  0.2095  1.3277
   95SAPS   C27 9390   5.683   0.567   7.221 -0.8736  0.3237 -0.3144
   95SAPS   H7R 9391   5.721   0.483   7.283  1.3421  0.3720 -1.5687
   95SAPS   H7S 9392   5.580   0.588   7.256 -0.9919 -2.0841  0.8726
   95SAPS   C28 9393   5.758   0.695   7.233 -0.2354 -0.3957 -0.5720
   95SAPS   H8R 9394   5.729   0.775   7.163 -2.8055 -0.5773  0.2478
   95SAPS   C29 9395   5.878   0.716   7.305 -0.3181  0.2136  0.7350
   95SAPS   H9R 9396   5.923   0.816   7.293 -2.0954  0.7186 -2.4832
   95SAPS  C210 9397   5.955   0.636   7.403  0.1954  0.1392 -0.2183
   95SAPS  H10R 9398   5.913   0.533   7.401  0.3419  0.0985 -1.8403
   95SAPS  H10S 9399   5.928   0.681   7.501  2.0274 -0.0018  0.3710
   95SAPS  C211 9400   6.102   0.635   7.363 -0.5835 -0.2453  0.3830
   95SAPS  H11R 9401   6.125   0.674   7.263 -0.7521  0.0470  0.4570
   95SAPS  C212 9402   6.208   0.621   7.445 -0.5313  0.6470 -0.6255
   95SAPS  H12R 9403   6.306   0.610   7.396  0.2419  1.5357  0.6891
   95SAPS  C213 9404   6.214   0.591   7.597 -0.3061  0.6058  1.0007
   95SAPS  H13R 9405   6.116   0.622   7.640 -0.2194  2.0002  0.2515
   95SAPS  H13S 9406   6.286   0.654   7.654 -1.7155  1.3232  2.0231
   95SAPS  C214 9407   6.222   0.444   7.628 -0.1618  0.3492  0.2803
   95SAPS  H14R 9408   6.214   0.375   7.542 -0.5209  0.3040  0.3515
   95SAPS  C215 9409   6.240   0.399   7.758  0.4059  0.2115  0.1131
   95SAPS  H15R 9410   6.256   0.291   7.774  1.5128  0.6963  2.3946
   95SAPS  C216 9411   6.260   0.483   7.878 -0.3027 -0.7308 -0.3858
   95SAPS  H16R 9412   6.157   0.481   7.920  0.0768  2.0775  0.8061
   95SAPS  H16S 9413   6.284   0.589   7.856 -1.5870 -0.3210  0.1694
   95SAPS  C217 9414   6.370   0.431   7.983  0.4358  0.6466  0.2654
   95SAPS  H17R 9415   6.416   0.527   8.015 -0.4051  0.8411  0.8987
   95SAPS  H17S 9416   6.457   0.381   7.935  2.1928  3.1609  0.7031
   95SAPS  C218 9417   6.317   0.361   8.111  0.7983 -0.6877 -1.1420
   95SAPS  H18R 9418   6.284   0.261   8.077 -0.4675 -0.9154  0.6957
   95SAPS  H18S 9419   6.234   0.429   8.138  0.6181 -0.7383 -1.5566
   95SAPS  C219 9420   6.426   0.353   8.219 -0.1729  0.8431  0.0183
   95SAPS  H19R 9421   6.366   0.316   8.306 -1.0004 -2.4564 -1.8651
   95SAPS  H19S 9422   6.465   0.456   8.235  0.3410  0.5263  0.8872
   95SAPS  C220 9423   6.538   0.242   8.202  0.0671  0.5957 -0.1289
   95SAPS  H20R 9424   6.605   0.255   8.114 -0.7970  1.0656 -0.7187
   95SAPS  H20S 9425   6.503   0.137   8.193  2.1707 -0.1260 -0.1744
   95SAPS  H20T 9426   6.610   0.251   8.286  0.5142  1.1320 -0.5673
   95SAPS   C33 9427   4.836   0.754   6.705  0.2293 -0.2001 -0.2625
   95SAPS   H3X 9428   4.755   0.805   6.649  1.2140  0.7811 -0.8231
   95SAPS   H3Y 9429   4.794   0.746   6.808  0.2686  1.0679 -0.1366
   95SAPS   C34 9430   4.863   0.616   6.651  0.0721  0.0116 -0.1891
   95SAPS   H4X 9431   4.918   0.634   6.556 -0.0998 -0.4807 -0.3871
   95SAPS   H4Y 9432   4.769   0.564   6.622  0.1237  0.2537 -0.7932
   95SAPS   C35 9433   4.945   0.528   6.746 -0.5398 -0.3317 -0.2971
   95SAPS   H5X 9434   5.026   0.592   6.787  0.8693 -2.1375 -0.2502
   95SAPS   H5Y 9435   4.986   0.445   6.685 -1.1387 -1.2078  0.4903
   95SAPS   C36 9436   4.858   0.464   6.855  0.3347  0.0855  0.2579
   95SAPS   H6X 9437   4.791   0.389   6.809  0.1657  0.8243 -0.7353
   95SAPS   H6Y 9438   4.801   0.545   6.907  0.0621 -0.2980  0.5565
   95SAPS   C37 9439   4.947   0.396   6.960  0.0421 -0.2485 -0.8077
   95SAPS   H7X 9440   5.015   0.327   6.907 -0.2447 -1.2356  0.0906
   95SAPS   H7Y 9441   4.875   0.332   7.015 -0.3939  2.0489  1.3829
   95SAPS   C38 9442   5.026   0.489   7.055 -0.7350 -0.6586  0.5620
   95SAPS   H8X 9443   4.948   0.557   7.096  0.0962 -0.0472  1.1289
   95SAPS   H8Y 9444   5.093   0.558   6.998 -0.7071 -0.9222  0.2728
   95SAPS   C39 9445   5.108   0.430   7.168  0.1158  0.3154 -0.1593
   95SAPS   H9X 9446   5.197   0.380   7.125 -1.2825 -1.8532 -0.6019
   95SAPS   H9Y 9447   5.053   0.349   7.219 -0.8789  1.9394  1.4140
   95SAPS  C310 9448   5.152   0.532   7.265  0.7365 -0.3910 -0.0990
   95SAPS  H10X 9449   5.068   0.588   7.311  0.4025 -0.9245 -0.0680
   95SAPS  H10Y 9450   5.222   0.607   7.221  1.6251 -1.0754  0.1209
   95SAPS  C311 9451   5.243   0.479   7.380  0.0844  0.4427  0.0023
   95SAPS  H11X 9452   5.320   0.409   7.341 -0.0211 -0.5194  1.4734
   95SAPS  H11Y 9453   5.182   0.421   7.454  1.0949 -2.2255 -1.1881
   95SAPS  C312 9454   5.310   0.587   7.467 -0.4699  0.0195 -0.4655
   95SAPS  H12X 9455   5.243   0.634   7.542 -0.6437  0.1359 -0.6911
   95SAPS  H12Y 9456   5.348   0.663   7.395  0.1380 -0.2066 -0.3872
   95SAPS  C313 9457   5.440   0.531   7.529  0.6150 -0.1149  0.1818
   95SAPS  H13X 9458   5.496   0.485   7.444  2.7156  2.4108  0.1339
   95SAPS  H13Y 9459   5.406   0.450   7.598 -0.3218 -1.3900 -1.7375
   95SAPS  C314 9460   5.532   0.626   7.597 -0.1131 -0.5204 -0.1407
   95SAPS  H14X 9461   5.476   0.694   7.664 -1.9080 -3.2188  1.1786
   95SAPS  H14Y 9462   5.581   0.695   7.524  1.8630 -0.6012  1.0505
   95SAPS  C315 9463   5.639   0.547   7.675 -0.3528  0.0127  0.3073
   95SAPS  H15X 9464   5.697   0.492   7.598 -0.9641 -1.3943  0.8503
   95SAPS  H15Y 9465   5.586   0.477   7.742  0.3475 -0.2780  0.5555
   95SAPS  C316 9466   5.733   0.640   7.752  0.0678  0.7288 -0.4542
   95SAPS  H16X 9467   5.667   0.707   7.811  0.0563 -2.2537  3.0167
   95SAPS  H16Y 9468   5.791   0.703   7.680 -0.6057  1.8738 -0.0105
   95SAPS  C317 9469   5.825   0.551   7.842  0.2190  0.5538  0.5899
   95SAPS  H17X 9470   5.902   0.497   7.783 -0.5480 -0.2223  0.2867
   95SAPS  H17Y 9471   5.768   0.475   7.900 -0.3930 -0.1464 -0.9021
   95SAPS  C318 9472   5.887   0.640   7.944  0.0838  0.0118 -0.1684
   95SAPS  H18X 9473   5.982   0.694   7.924  0.4451 -0.6902 -0.3559
   95SAPS  H18Y 9474   5.906   0.586   8.040  1.4880 -2.3536 -1.7380
   95SAPS  H18Z 9475   5.800   0.701   7.976 -0.5427 -1.1666  0.4091
   96SAPS     N 9476   5.977   1.430   6.256 -0.0662  0.6634  0.2157
   96SAPS   HN1 9477   5.886   1.461   6.296 -0.3950 -0.9874  0.8093
   96SAPS   HN2 9478   5.953   1.405   6.158  0.9627 -0.4689  0.2442
   96SAPS   HN3 9479   6.015   1.345   6.303 -2.4449 -1.1282 -0.9717
   96SAPS   C12 9480   6.079   1.544   6.247  0.3761  0.4170  0.4133
   96SAPS  H12A 9481   6.110   1.576   6.345  0.9293  0.0943  0.3442
   96SAPS   C13 9482   6.209   1.510   6.165  0.0679  0.0525  0.9907
   96SAPS  O13A 9483   6.228   1.385   6.132 -0.4511  0.2248 -0.0616
   96SAPS  O13B 9484   6.299   1.597   6.162  0.2597  0.5561  0.4279
   96SAPS   C11 9485   6.014   1.675   6.198  0.5543  0.1366 -0.2164
   96SAPS  H11A 9486   5.978   1.679   6.093  0.2674 -1.0380 -0.1614
   96SAPS  H11B 9487   6.088   1.758   6.205 -0.6560  1.1942  0.4520
   96SAPS     P 9488   5.848   1.850   6.293 -0.4546 -0.1180 -0.0092
   96SAPS   O13 9489   5.907   1.934   6.186 -0.3796  0.4959  0.4501
   96SAPS   O14 9490   5.701   1.849   6.304 -0.2334  0.2350 -0.2093
   96SAPS   O12 9491   5.906   1.706   6.284  1.0823  0.3227  0.3959
   96SAPS   O11 9492   5.898   1.881   6.437  0.0110  0.0590 -0.1329
   96SAPS    C1 9493   5.988   1.795   6.514  0.9437  0.8930 -0.3081
   96SAPS    HA 9494   5.940   1.697   6.533 -0.3922  1.3402 -1.3359
   96SAPS    HB 9495   6.088   1.785   6.465  0.6980 -2.1244 -0.2968
   96SAPS    C2 9496   6.013   1.862   6.653  0.3218 -0.2050  0.7057
   96SAPS    HS 9497   6.084   1.798   6.711  1.0004  1.3117  1.5687
   96SAPS   O21 9498   5.888   1.872   6.721  0.8274 -0.2500  0.7762
   96SAPS   C21 9499   5.893   1.856   6.846  0.3148  1.1016  0.3172
   96SAPS   O22 9500   5.995   1.862   6.915  0.4987 -0.1879 -0.1512
   96SAPS   C22 9501   5.751   1.819   6.897  0.6106 -0.2560  0.4723
   96SAPS   H2R 9502   5.679   1.858   6.822 -0.0840 -3.5141 -0.6200
   96SAPS   H2S 9503   5.735   1.709   6.895 -1.2420  0.0128 -0.1303
   96SAPS    C3 9504   6.077   2.000   6.630  0.0722  1.1555  0.5401
   96SAPS    HX 9505   6.004   2.070   6.583  0.4363  2.0537  1.2923
   96SAPS    HY 9506   6.155   1.981   6.553  0.8117  2.4173  0.9645
   96SAPS   O31 9507   6.139   2.058   6.742 -0.7539  0.0497 -0.0290
   96SAPS   C31 9508   6.060   2.133   6.814 -1.6233 -0.3633 -1.0576
   96SAPS   O32 9509   5.943   2.164   6.795 -0.3782  0.0552  0.1455
   96SAPS   C32 9510   6.125   2.166   6.947 -0.1905 -0.2652  0.4107
   96SAPS   H2X 9511   6.178   2.263   6.940 -1.3556  0.2876 -1.2055
   96SAPS   H2Y 9512   6.199   2.085   6.963  0.1692 -1.1514 -4.7661
   96SAPS   C23 9513   5.720   1.868   7.038  0.2445  0.3473 -0.0237
   96SAPS   H3R 9514   5.802   1.832   7.104  0.1380  1.2334  0.5945
   96SAPS   H3S 9515   5.631   1.810   7.073  2.5436 -3.0716  0.4322
   96SAPS   C24 9516   5.700   2.012   7.045  0.0693 -0.5820  0.2044
   96SAPS   H4R 9517   5.787   2.055   6.990 -2.0073  1.2874 -1.7001
   96SAPS   H4S 9518   5.711   2.063   7.143 -0.0140 -0.6424  0.2443
   96SAPS   C25 9519   5.572   2.057   6.991  0.2662 -0.0891  0.5092
   96SAPS   H5R 9520   5.572   2.070   6.881  0.5779 -0.4600  0.4662
   96SAPS   C26 9521   5.458   2.079   7.056 -0.0895  0.0351  0.2061
   96SAPS   H6R 9522   5.379   2.126   6.996  0.0084  0.7313  0.6189
   96SAPS   C27 9523   5.435   2.072   7.202 -0.4474  0.1115  1.0662
   96SAPS   H7R 9524   5.365   2.152   7.233 -2.1485  0.2114 -2.7955
   96SAPS   H7S 9525   5.532   2.099   7.250 -0.6487  2.2716  0.3153
   96SAPS   C28 9526   5.379   1.936   7.241 -0.0599 -0.3722 -0.2014
   96SAPS   H8R 9527   5.372   1.860   7.161 -0.3131 -0.2469 -0.2965
   96SAPS   C29 9528   5.311   1.906   7.354  0.0722  0.2026  0.1944
   96SAPS   H9R 9529   5.271   1.804   7.353 -0.2305  0.3149  0.5611
   96SAPS  C210 9530   5.287   1.997   7.469  0.7293 -0.3004 -0.3459
   96SAPS  H10R 9531   5.177   1.999   7.482  0.7126  1.6558 -0.5465
   96SAPS  H10S 9532   5.301   2.104   7.442 -0.5451  0.2632  1.1691
   96SAPS  C211 9533   5.364   1.951   7.594 -0.9901  1.2656  0.6535
   96SAPS  H11R 9534   5.465   1.910   7.575 -1.1777  0.6546  0.9560
   96SAPS  C212 9535   5.317   1.953   7.722  0.0136  0.1267  0.8265
   96SAPS  H12R 9536   5.389   1.913   7.794  0.0926 -0.5674  0.3672
   96SAPS  C213 9537   5.185   2.002   7.770 -0.2170  0.4607  0.4567
   96SAPS  H13R 9538   5.111   1.996   7.686 -1.6132 -1.0941  1.7586
   96SAPS  H13S 9539   5.196   2.110   7.794 -1.5385  1.1454 -1.8091
   96SAPS  C214 9540   5.136   1.922   7.892 -0.1543 -0.6143  0.4509
   96SAPS  H14R 9541   5.065   1.843   7.862  0.0154 -1.5863  2.4624
   96SAPS  C215 9542   5.175   1.937   8.021  0.5016 -0.4422 -0.6300
   96SAPS  H15R 9543   5.142   1.868   8.101  2.7728 -0.7499  0.0743
   96SAPS  C216 9544   5.258   2.051   8.071 -0.1630  0.9256  0.0412
   96SAPS  H16R 9545   5.207   2.119   8.143  0.9239 -0.4662  2.2002
   96SAPS  H16S 9546   5.292   2.115   7.987 -2.2573  2.3394  0.2503
   96SAPS  C217 9547   5.395   1.998   8.122 -0.4142 -0.1253 -0.9154
   96SAPS  H17R 9548   5.456   2.090   8.136  1.7597 -2.0331  2.6483
   96SAPS  H17S 9549   5.435   1.935   8.040  0.4950  0.9252 -1.2962
   96SAPS  C218 9550   5.403   1.923   8.260 -0.6183  0.9460 -0.2504
   96SAPS  H18R 9551   5.495   1.862   8.269  0.1500  1.9839 -0.8425
   96SAPS  H18S 9552   5.319   1.852   8.265  0.1730  0.0488  0.4235
   96SAPS  C219 9553   5.397   2.013   8.389  0.2753  0.1229  0.7218
   96SAPS  H19R 9554   5.480   2.084   8.370  0.7202 -0.6065 -0.1375
   96SAPS  H19S 9555   5.424   1.948   8.475  1.5050 -1.1391 -0.5953
   96SAPS  C220 9556   5.271   2.097   8.427  0.4326  0.0193  0.1844
   96SAPS  H20R 9557   5.265   2.186   8.361  2.9230 -0.1194 -0.2842
   96SAPS  H20S 9558   5.296   2.129   8.530  2.9896  1.1226 -0.7372
   96SAPS  H20T 9559   5.176   2.039   8.433  0.8708 -0.6606  0.6201
   96SAPS   C33 9560   6.025   2.206   7.061 -0.3028  0.2116  0.4459
   96SAPS   H3X 9561   5.966   2.118   7.094 -0.3017  0.2418  0.5305
   96SAPS   H3Y 9562   5.958   2.286   7.024 -2.3124 -0.7694  1.8326
   96SAPS   C34 9563   6.107   2.236   7.187  0.0416  0.3555  0.3981
   96SAPS   H4X 9564   6.131   2.341   7.161  0.6947  0.1316  0.0773
   96SAPS   H4Y 9565   6.204   2.181   7.184  0.4097  1.0495 -0.3363
   96SAPS   C35 9566   6.027   2.217   7.318  0.2580  1.3591  0.0365
   96SAPS   H5X 9567   6.002   2.109   7.325 -3.4839  2.1014 -0.8592
   96SAPS   H5Y 9568   5.941   2.288   7.307  0.2837  1.4704  0.5094
   96SAPS   C36 9569   6.116   2.248   7.444  1.1260 -0.6210 -0.2114
   96SAPS   H6X 9570   6.163   2.347   7.425  2.1238 -0.8767  0.8594
   96SAPS   H6Y 9571   6.199   2.175   7.455  2.3336  0.3526 -2.3334
   96SAPS   C37 9572   6.031   2.256   7.579 -0.0333  0.2575 -0.3396
   96SAPS   H7X 9573   5.964   2.168   7.577 -1.7645  1.5461 -0.1398
   96SAPS   H7Y 9574   5.969   2.348   7.576 -0.5639 -0.1317 -1.4487
   96SAPS   C38 9575   6.127   2.246   7.701 -0.5368  1.2448  0.0318
   96SAPS   H8X 9576   6.200   2.329   7.701  0.1362  0.6921 -2.4403
   96SAPS   H8Y 9577   6.188   2.157   7.675 -1.0134  1.0162 -0.3175
   96SAPS   C39 9578   6.046   2.240   7.834  0.4923 -0.0236  0.5975
   96SAPS   H9X 9579   5.971   2.158   7.826 -0.6016  1.0725 -0.8253
   96SAPS   H9Y 9580   5.983   2.331   7.823  0.2819 -0.1293  0.9111
   96SAPS  C310 9581   6.129   2.247   7.951  0.3309 -0.4461  0.0641
   96SAPS  H10X 9582   6.191   2.339   7.949 -0.1928 -0.0721  0.6589
   96SAPS  H10Y 9583   6.195   2.157   7.958  0.5090 -0.2212  1.5857
   96SAPS  C311 9584   6.046   2.225   8.082 -1.1381  0.5369 -0.0054
   96SAPS  H11X 9585   5.984   2.133   8.090  0.1708 -0.5299 -1.6786
   96SAPS  H11Y 9586   5.970   2.306   8.089 -0.9316  0.7300 -0.0192
   96SAPS  C312 9587   6.150   2.235   8.197 -0.1480  0.5825  0.3904
   96SAPS  H12X 9588   6.210   2.325   8.169 -1.1834  0.5271 -2.1460
   96SAPS  H12Y 9589   6.219   2.148   8.194  0.2943  0.9489 -0.6001
   96SAPS  C313 9590   6.092   2.244   8.341 -0.5311 -0.2249  0.7801
   96SAPS  H13X 9591   6.028   2.333   8.360 -2.7192 -1.6301  0.2667
   96SAPS  H13Y 9592   6.180   2.251   8.408 -0.0250  2.1663 -0.0884
   96SAPS  C314 9593   6.012   2.121   8.373 -0.1995 -0.2642  0.4168
   96SAPS  H14X 9594   6.070   2.026   8.367  1.5212  0.5292  3.4703
   96SAPS  H14Y 9595   5.918   2.116   8.314  0.4601  3.3451 -1.1022
   96SAPS  C315 9596   5.953   2.143   8.509  0.2978  0.2344  0.2253
   96SAPS  H15X 9597   5.854   2.093   8.521 -1.6621  3.3625 -2.0313
   96SAPS  H15Y 9598   5.916   2.247   8.525 -0.7533  0.5349 -3.7172
   96SAPS  C316 9599   6.035   2.098   8.635 -0.5327 -1.1872  0.2794
   96SAPS  H16X 9600   6.109   2.027   8.593 -0.5330 -0.3569 -1.1480
   96SAPS  H16Y 9601   5.971   2.045   8.709  2.6501 -1.6876  2.7637
   96SAPS  C317 9602   6.099   2.214   8.717  0.7758 -0.4058  0.3152
   96SAPS  H17X 9603   6.167   2.273   8.652 -0.1021 -0.4233 -0.6369
   96SAPS  H17Y 9604   6.163   2.172   8.798  0.6134 -0.7719  0.2570
   96SAPS  C318 9605   5.989   2.309   8.779  0.3222  0.6691 -0.0746
   96SAPS  H18X 9606   5.941   2.242   8.854 -0.5897 -1.1074 -2.1711
   96SAPS  H18Y 9607   5.911   2.352   8.712 -0.5845 -0.0165  0.5335
   96SAPS  H18Z 9608   6.048   2.393   8.820  2.0730 -0.8823  0.6513
   97SAPS     N 9609   0.262   6.321   6.368 -0.1801 -0.1003 -0.2140
   97SAPS   HN1 9610   0.336   6.369   6.424  0.5766 -0.1571 -1.1537
   97SAPS   HN2 9611   0.173   6.331   6.422  0.1353 -1.1263  0.5264
   97SAPS   HN3 9612   0.298   6.226   6.346  0.7224  0.7672 -2.6120
   97SAPS   C12 9613   0.244   6.388   6.238  0.4487 -0.1066  0.4389
   97SAPS  H12A 9614   0.337   6.381   6.185  0.5442 -1.1748  0.7393
   97SAPS   C13 9615   0.141   6.308   6.155  0.3117 -0.2153 -0.3901
   97SAPS  O13A 9616   0.058   6.230   6.215  0.9509 -0.1700  0.6032
   97SAPS  O13B 9617   0.110   6.364   6.046  0.2978  0.0444 -0.4167
   97SAPS   C11 9618   0.199   6.533   6.272 -0.1567 -0.1535  0.8594
   97SAPS  H11A 9619   0.101   6.532   6.325  0.0671 -1.8690  1.2909
   97SAPS  H11B 9620   0.189   6.578   6.171  1.3905  1.6279  1.4945
   97SAPS     P 9621   0.279   6.738   6.412 -0.1401 -0.1307 -0.0417
   97SAPS   O13 9622   0.413   6.803   6.435  0.6565  0.4787 -0.2838
   97SAPS   O14 9623   0.178   6.821   6.333  0.1357  0.0980  0.3157
   97SAPS   O12 9624   0.301   6.603   6.339  0.2937  0.1591 -0.7382
   97SAPS   O11 9625   0.226   6.682   6.550  0.3847  0.0893 -0.1117
   97SAPS    C1 9626   0.085   6.705   6.583  0.7778  0.3663 -0.2703
   97SAPS    HA 9627   0.054   6.807   6.552  1.5485  1.0032  1.0147
   97SAPS    HB 9628   0.014   6.635   6.534  1.8469 -1.1940  0.3641
   97SAPS    C2 9629   0.057   6.701   6.732  0.6459  0.0980  0.0355
   97SAPS    HS 9630   0.078   6.800   6.776  0.7489  0.3809 -0.6408
   97SAPS   O21 9631   0.132   6.596   6.796 -0.0037 -0.3126 -0.7025
   97SAPS   C21 9632   0.259   6.625   6.822  0.5522 -0.1167 -0.3259
   97SAPS   O22 9633   0.314   6.733   6.808 -0.5452  0.3277  0.3737
   97SAPS   C22 9634   0.319   6.502   6.876  0.0993 -0.1658 -0.1036
   97SAPS   H2R 9635   0.258   6.481   6.966 -0.2076 -4.0208 -1.1375
   97SAPS   H2S 9636   0.308   6.412   6.812  3.2654 -0.3097 -0.5605
   97SAPS    C3 9637  -0.099   6.672   6.760  0.1771  0.0343 -0.2870
   97SAPS    HX 9638  -0.121   6.564   6.745 -1.3042  0.0535  1.5029
   97SAPS    HY 9639  -0.156   6.737   6.690 -1.6227 -1.5016 -0.3059
   97SAPS   O31 9640  -0.131   6.713   6.898  0.0167 -0.1088 -0.6241
   97SAPS   C31 9641  -0.260   6.716   6.925  0.6136  0.5197 -0.7152
   97SAPS   O32 9642  -0.345   6.672   6.847 -0.0508 -0.1692 -0.0421
   97SAPS   C32 9643  -0.292   6.741   7.067 -0.2189 -0.2257  0.8778
   97SAPS   H2X 9644  -0.399   6.736   7.097 -0.9096  2.0914 -1.0832
   97SAPS   H2Y 9645  -0.260   6.847   7.079  2.4949 -0.8279 -0.7242
   97SAPS   C23 9646   0.464   6.497   6.928  0.0662 -0.4016 -0.1163
   97SAPS   H3R 9647   0.492   6.586   6.988  0.3061 -0.2164 -0.5066
   97SAPS   H3S 9648   0.532   6.487   6.841  4.5600  2.5749  2.8745
   97SAPS   C24 9649   0.501   6.375   7.016  0.3386  0.0996 -0.3160
   97SAPS   H4R 9650   0.508   6.294   6.940 -1.0806 -1.0874  0.7772
   97SAPS   H4S 9651   0.416   6.348   7.082  2.6555 -0.2145  2.6559
   97SAPS   C25 9652   0.629   6.368   7.090  0.5788  0.1161  0.0725
   97SAPS   H5R 9653   0.717   6.388   7.026  1.4717 -0.2247  1.1729
   97SAPS   C26 9654   0.644   6.325   7.218  0.5277 -0.1633  0.1812
   97SAPS   H6R 9655   0.747   6.307   7.252  1.1713 -1.0540 -2.1418
   97SAPS   C27 9656   0.532   6.296   7.317 -0.6419  0.1345 -0.5247
   97SAPS   H7R 9657   0.434   6.290   7.266 -1.6623  1.4843  1.2352
   97SAPS   H7S 9658   0.517   6.394   7.368 -0.5551 -0.6507  1.0098
   97SAPS   C28 9659   0.556   6.190   7.419  0.9242 -0.3993 -0.5646
   97SAPS   H8R 9660   0.514   6.093   7.391  2.0184 -0.9890 -0.1826
   97SAPS   C29 9661   0.619   6.199   7.536  0.1289  0.9475  0.8663
   97SAPS   H9R 9662   0.633   6.108   7.597 -0.2386  0.7703  0.6879
   97SAPS  C210 9663   0.681   6.318   7.602 -0.1182 -0.3198 -0.4557
   97SAPS  H10R 9664   0.697   6.400   7.528  0.8280  0.5414  0.6983
   97SAPS  H10S 9665   0.783   6.282   7.627 -0.2849 -0.8929 -0.5880
   97SAPS  C211 9666   0.619   6.362   7.727  0.1324  0.3281  0.0276
   97SAPS  H11R 9667   0.510   6.372   7.722  0.4072  2.5306 -2.4294
   97SAPS  C212 9668   0.679   6.402   7.839  0.1452  0.0624  0.3650
   97SAPS  H12R 9669   0.617   6.437   7.923  0.3692 -0.3943  0.7232
   97SAPS  C213 9670   0.827   6.412   7.877  0.2051 -0.5969 -0.4288
   97SAPS  H13R 9671   0.859   6.518   7.888  2.4672 -1.2899 -0.0052
   97SAPS  H13S 9672   0.893   6.372   7.797 -0.6042 -1.8009 -0.5118
   97SAPS  C214 9673   0.862   6.358   8.017  0.0558 -0.0244 -0.9779
   97SAPS  H14R 9674   0.891   6.253   8.021  0.2740  0.0964  1.2456
   97SAPS  C215 9675   0.872   6.425   8.134  0.2429  0.2461 -0.9310
   97SAPS  H15R 9676   0.902   6.362   8.219 -1.4323  0.8637  0.1481
   97SAPS  C216 9677   0.832   6.562   8.164  0.9623  0.3146  0.1222
   97SAPS  H16R 9678   0.723   6.579   8.151  0.8588 -1.0740 -0.8787
   97SAPS  H16S 9679   0.868   6.629   8.084  2.1696 -0.6725 -0.1778
   97SAPS  C217 9680   0.869   6.609   8.311  0.4553  0.7798  0.0461
   97SAPS  H17R 9681   0.980   6.613   8.313  0.5710 -1.0556 -1.0817
   97SAPS  H17S 9682   0.828   6.532   8.381 -1.5637  0.9350 -0.9319
   97SAPS  C218 9683   0.801   6.743   8.349  0.4391 -0.1872 -0.5790
   97SAPS  H18R 9684   0.692   6.722   8.355  0.6601 -1.2276 -0.0940
   97SAPS  H18S 9685   0.817   6.812   8.264  0.3338 -0.4838 -0.8428
   97SAPS  C219 9686   0.864   6.807   8.475 -0.0619  0.1003 -0.4343
   97SAPS  H19R 9687   0.910   6.728   8.538  1.1819  0.3728 -0.9808
   97SAPS  H19S 9688   0.779   6.853   8.530  0.5304  2.4562 -1.3864
   97SAPS  C220 9689   0.968   6.920   8.440  0.2050 -0.0618 -0.8761
   97SAPS  H20R 9690   0.915   7.003   8.388 -1.3063 -2.3045 -3.0554
   97SAPS  H20S 9691   1.063   6.885   8.394  0.0464 -0.6192 -0.7921
   97SAPS  H20T 9692   0.996   6.963   8.538 -1.6027  2.2174 -1.3176
   97SAPS   C33 9693  -0.212   6.650   7.170  0.2854 -0.3613  0.3863
   97SAPS   H3X 9694  -0.107   6.636   7.137 -0.0972 -1.2165 -0.5087
   97SAPS   H3Y 9695  -0.270   6.556   7.157  0.1615  0.0239 -2.1110
   97SAPS   C34 9696  -0.229   6.695   7.314  0.4752  0.5425 -0.6501
   97SAPS   H4X 9697  -0.333   6.730   7.327 -0.1162 -1.3418 -0.2118
   97SAPS   H4Y 9698  -0.163   6.783   7.325  1.2365 -0.0494 -0.4074
   97SAPS   C35 9699  -0.196   6.592   7.425 -0.4501 -0.3684 -0.4745
   97SAPS   H5X 9700  -0.088   6.566   7.421  0.0276  1.5628 -0.5647
   97SAPS   H5Y 9701  -0.247   6.496   7.401  0.1597 -0.7308 -0.3132
   97SAPS   C36 9702  -0.236   6.640   7.563  0.5886  0.6869 -0.7832
   97SAPS   H6X 9703  -0.345   6.661   7.570  0.4980 -0.4170  1.6702
   97SAPS   H6Y 9704  -0.191   6.737   7.593  1.3793 -0.3545  1.5028
   97SAPS   C37 9705  -0.207   6.547   7.681 -0.5084  0.1626 -0.6323
   97SAPS   H7X 9706  -0.101   6.513   7.677 -1.0213 -1.4153 -1.5209
   97SAPS   H7Y 9707  -0.269   6.456   7.668 -1.9156  0.7158  1.9296
   97SAPS   C38 9708  -0.261   6.604   7.811  0.0125 -0.3305  0.1213
   97SAPS   H8X 9709  -0.371   6.594   7.809 -0.1634  1.3133  0.6280
   97SAPS   H8Y 9710  -0.240   6.713   7.797 -1.0097 -0.2205 -0.5857
   97SAPS   C39 9711  -0.206   6.560   7.947 -0.0566  0.0871 -0.1676
   97SAPS   H9X 9712  -0.269   6.605   8.026 -0.6691  0.2399 -0.7316
   97SAPS   H9Y 9713  -0.105   6.602   7.966 -0.7295  0.6008  2.4519
   97SAPS  C310 9714  -0.214   6.406   7.955  0.6136 -0.0993 -0.2357
   97SAPS  H10X 9715  -0.156   6.356   7.874 -1.5115 -2.5928 -0.2810
   97SAPS  H10Y 9716  -0.320   6.379   7.935  0.4309  1.0219 -0.8412
   97SAPS  C311 9717  -0.175   6.372   8.101  0.7110  0.0595  0.1563
   97SAPS  H11X 9718  -0.234   6.440   8.167  1.3018  0.7475 -0.0216
   97SAPS  H11Y 9719  -0.065   6.376   8.113  0.3602  1.9493  3.3460
   97SAPS  C312 9720  -0.208   6.222   8.131 -0.1474  0.1985 -0.7043
   97SAPS  H12X 9721  -0.187   6.203   8.238  0.1626  0.9156 -0.6294
   97SAPS  H12Y 9722  -0.126   6.168   8.080  1.2679  1.7202 -0.0913
   97SAPS  C313 9723  -0.347   6.175   8.096 -0.0846  0.0839 -0.3377
   97SAPS  H13X 9724  -0.379   6.199   7.993 -3.7670 -0.4993  0.5889
   97SAPS  H13Y 9725  -0.424   6.218   8.164  1.3492 -0.7995  1.9176
   97SAPS  C314 9726  -0.348   6.014   8.090 -0.8388  0.7658  0.2926
   97SAPS  H14X 9727  -0.329   5.968   8.189 -1.5087 -1.9822 -0.8172
   97SAPS  H14Y 9728  -0.262   5.993   8.023 -1.1393 -2.1112  0.7786
   97SAPS  C315 9729  -0.480   5.942   8.044  0.0236  0.6791 -0.1794
   97SAPS  H15X 9730  -0.450   5.841   8.008 -0.6533  0.8745 -1.3318
   97SAPS  H15Y 9731  -0.520   5.996   7.955 -0.6553 -3.3879 -2.4397
   97SAPS  C316 9732  -0.589   5.940   8.157 -0.5480  0.1464 -0.3328
   97SAPS  H16X 9733  -0.606   6.044   8.190 -0.6943  0.3803 -1.1250
   97SAPS  H16Y 9734  -0.545   5.884   8.242  0.2935 -1.0600 -1.5355
   97SAPS  C317 9735  -0.728   5.894   8.119  0.2288 -0.3885 -0.7092
   97SAPS  H17X 9736  -0.718   5.804   8.056  0.8488 -0.7884 -0.0401
   97SAPS  H17Y 9737  -0.775   5.974   8.057  0.9724  0.5107 -0.1350
   97SAPS  C318 9738  -0.820   5.883   8.242 -0.3435  0.5540  0.6063
   97SAPS  H18X 9739  -0.927   5.901   8.217  0.1787  2.0742 -0.6096
   97SAPS  H18Y 9740  -0.805   5.962   8.319  3.1115  0.0532  0.5121
   97SAPS  H18Z 9741  -0.810   5.788   8.298  1.6700  0.4751  0.1351
   98SAPS     N 9742   5.206   0.944   5.899  0.3210  0.5908  0.2025
   98SAPS   HN1 9743   5.239   0.917   5.994  0.4775 -0.3071 -0.1037
   98SAPS   HN2 9744   5.271   0.900   5.831 -2.9284  1.2104 -3.4915
   98SAPS   HN3 9745   5.230   1.044   5.883  0.4009  0.4631 -0.4933
   98SAPS   C12 9746   5.061   0.913   5.874  0.5051 -0.1102  0.2694
   98SAPS  H12A 9747   5.019   0.922   5.973  0.0858 -1.4267  0.2112
   98SAPS   C13 9748   4.977   1.021   5.790 -0.4552 -0.0465  0.4490
   98SAPS  O13A 9749   5.041   1.120   5.751  0.2050 -0.1720  0.4336
   98SAPS  O13B 9750   4.854   1.016   5.791 -0.0648  0.2588  0.3986
   98SAPS   C11 9751   5.049   0.778   5.812  0.8216 -0.0672  0.6740
   98SAPS  H11A 9752   5.075   0.770   5.704 -1.4230  0.7407  0.0515
   98SAPS  H11B 9753   4.945   0.741   5.812  1.3613 -1.6167  0.0388
   98SAPS     P 9754   5.088   0.550   5.953  0.0414  0.2784 -0.0792
   98SAPS   O13 9755   4.958   0.511   5.888  0.5640  0.1264 -0.0063
   98SAPS   O14 9756   5.204   0.460   5.940 -0.1460  0.1401 -0.2338
   98SAPS   O12 9757   5.137   0.685   5.883 -0.3653  0.4257  0.7296
   98SAPS   O11 9758   5.066   0.593   6.100  0.0143  0.4652 -0.2695
   98SAPS    C1 9759   5.184   0.610   6.186  0.8629  1.0106  1.0182
   98SAPS    HA 9760   5.283   0.603   6.135  0.1690 -1.3055 -0.0737
   98SAPS    HB 9761   5.180   0.717   6.213 -2.8618  0.9958  0.7340
   98SAPS    C2 9762   5.176   0.511   6.306  0.0126  0.1014  1.0379
   98SAPS    HS 9763   5.214   0.412   6.274 -2.0052  0.1594 -1.6658
   98SAPS   O21 9764   5.042   0.497   6.351  0.4027  0.5320  0.0847
   98SAPS   C21 9765   4.961   0.410   6.298  0.1274  0.1255  0.6776
   98SAPS   O22 9766   5.000   0.327   6.216 -0.0240 -0.2900 -0.0105
   98SAPS   C22 9767   4.822   0.409   6.359 -0.1554  0.4786 -0.4023
   98SAPS   H2R 9768   4.766   0.325   6.312 -2.7195  1.2712  1.1420
   98SAPS   H2S 9769   4.832   0.395   6.469  2.3064 -0.4682 -0.7282
   98SAPS    C3 9770   5.265   0.544   6.428  0.3820 -0.0652 -0.1284
   98SAPS    HX 9771   5.233   0.648   6.452  2.2682  0.6364 -0.5844
   98SAPS    HY 9772   5.369   0.557   6.393  1.5063 -3.4038  1.7487
   98SAPS   O31 9773   5.249   0.455   6.539  0.2753  0.8467  0.0338
   98SAPS   C31 9774   5.317   0.342   6.531  0.0576  0.0643 -0.2367
   98SAPS   O32 9775   5.394   0.313   6.441  0.0852 -0.4321  0.3399
   98SAPS   C32 9776   5.296   0.251   6.657  0.0294 -1.0499 -0.2079
   98SAPS   H2X 9777   5.246   0.157   6.626 -1.1608 -1.2212  2.1542
   98SAPS   H2Y 9778   5.228   0.304   6.727  0.3648  0.6268 -1.1196
   98SAPS   C23 9779   4.764   0.548   6.326 -0.3491 -0.4468  0.6729
   98SAPS   H3R 9780   4.772   0.576   6.219  1.7637 -0.3660  0.8363
   98SAPS   H3S 9781   4.826   0.626   6.375  2.0011 -2.0084  0.2883
   98SAPS   C24 9782   4.618   0.564   6.375  0.2916  0.2532  0.6587
   98SAPS   H4R 9783   4.581   0.669   6.382  0.4982  0.4927 -1.4402
   98SAPS   H4S 9784   4.623   0.518   6.475  1.2793 -1.8642 -0.3276
   98SAPS   C25 9785   4.540   0.470   6.287 -0.1109  0.6944  0.0476
   98SAPS   H5R 9786   4.555   0.486   6.179  2.1951  1.3396  0.4208
   98SAPS   C26 9787   4.447   0.381   6.332  0.3821  0.6628 -0.0024
   98SAPS   H6R 9788   4.394   0.319   6.259 -1.5114  3.2531 -0.9256
   98SAPS   C27 9789   4.403   0.362   6.473 -0.3018 -0.0377  0.0587
   98SAPS   H7R 9790   4.314   0.295   6.476  0.6481 -1.6168 -3.4295
   98SAPS   H7S 9791   4.374   0.453   6.529 -1.3143 -0.7527  0.7078
   98SAPS   C28 9792   4.493   0.287   6.563  0.4542  0.0860  0.0207
   98SAPS   H8R 9793   4.575   0.242   6.506  1.7810  2.1076  0.2960
   98SAPS   C29 9794   4.483   0.257   6.695  0.8437 -0.4626 -0.2047
   98SAPS   H9R 9795   4.564   0.198   6.740  0.6876 -1.2623 -0.9495
   98SAPS  C210 9796   4.371   0.309   6.780  0.2430 -0.2697 -0.5030
   98SAPS  H10R 9797   4.304   0.369   6.715 -1.8520 -0.2428  1.5917
   98SAPS  H10S 9798   4.418   0.389   6.842 -1.2699  0.7065 -0.5956
   98SAPS  C211 9799   4.295   0.211   6.863  0.5981 -0.4113 -0.8677
   98SAPS  H11R 9800   4.269   0.123   6.803  0.4032 -0.9104 -0.0555
   98SAPS  C212 9801   4.248   0.221   6.988  0.3629 -0.3709 -0.3751
   98SAPS  H12R 9802   4.198   0.141   7.044 -0.2696  1.1204  1.2121
   98SAPS  C213 9803   4.280   0.333   7.081  0.7307  0.0941  0.0714
   98SAPS  H13R 9804   4.351   0.407   7.036  0.0039 -0.1211 -1.4702
   98SAPS  H13S 9805   4.331   0.293   7.171  1.2188 -3.1399 -1.5930
   98SAPS  C214 9806   4.148   0.395   7.118 -0.4047 -0.0451 -1.2605
   98SAPS  H14R 9807   4.106   0.452   7.034  1.1038  0.3183 -1.7811
   98SAPS  C215 9808   4.071   0.387   7.232 -0.5608 -0.5657 -0.2900
   98SAPS  H15R 9809   3.974   0.438   7.231 -0.9766 -1.3431 -0.2047
   98SAPS  C216 9810   4.096   0.308   7.356 -0.6639 -0.2507 -0.1802
   98SAPS  H16R 9811   4.150   0.211   7.351 -1.1661 -0.6574  1.7174
   98SAPS  H16S 9812   3.998   0.281   7.399  0.5527 -0.6016  2.5223
   98SAPS  C217 9813   4.155   0.392   7.468  0.6905 -0.4317 -0.2765
   98SAPS  H17R 9814   4.091   0.481   7.486  2.3572  0.7178  0.1047
   98SAPS  H17S 9815   4.250   0.429   7.423 -1.4024  2.0437 -2.8426
   98SAPS  C218 9816   4.176   0.323   7.601 -0.0353  0.2361 -0.2584
   98SAPS  H18R 9817   4.229   0.230   7.571 -1.6922 -1.6304  2.3992
   98SAPS  H18S 9818   4.079   0.284   7.640  1.0023 -1.6141  0.5409
   98SAPS  C219 9819   4.257   0.396   7.702 -0.0465 -0.2047  0.4708
   98SAPS  H19R 9820   4.241   0.503   7.681  0.3612 -0.7958 -3.2758
   98SAPS  H19S 9821   4.365   0.370   7.696  0.2361  1.1430 -0.4212
   98SAPS  C220 9822   4.223   0.362   7.844  0.1312 -0.1346 -0.3383
   98SAPS  H20R 9823   4.114   0.379   7.857  0.6059  2.1323  0.8373
   98SAPS  H20S 9824   4.279   0.420   7.921 -0.9535 -0.5497  0.7862
   98SAPS  H20T 9825   4.241   0.254   7.861 -0.8437 -0.3200 -0.4159
   98SAPS   C33 9826   5.431   0.216   6.729 -0.0434 -0.3518 -0.1544
   98SAPS   H3X 9827   5.473   0.305   6.780 -0.5384  0.4449 -1.1123
   98SAPS   H3Y 9828   5.512   0.191   6.657  1.4432  1.3033  0.9038
   98SAPS   C34 9829   5.421   0.104   6.829 -0.2652  0.4298  0.3841
   98SAPS   H4X 9830   5.518   0.065   6.869  0.0856 -0.8131 -1.6293
   98SAPS   H4Y 9831   5.376   0.013   6.784  1.3354 -1.4976  2.5866
   98SAPS   C35 9832   5.333   0.141   6.943  0.5931 -0.1792  0.3250
   98SAPS   H5X 9833   5.238   0.189   6.913 -0.9892 -1.9788  2.3188
   98SAPS   H5Y 9834   5.388   0.222   6.996 -1.0788  1.7312 -0.7951
   98SAPS   C36 9835   5.303   0.019   7.027  0.1680  0.4462 -1.0583
   98SAPS   H6X 9836   5.388  -0.038   7.069 -1.1736  0.3229  1.5911
   98SAPS   H6Y 9837   5.239  -0.053   6.972  0.8318 -1.0626  0.1295
   98SAPS   C37 9838   5.224   0.063   7.154  0.5137 -0.5019 -0.2704
   98SAPS   H7X 9839   5.147   0.129   7.110 -0.7695 -0.8291  1.4670
   98SAPS   H7Y 9840   5.295   0.114   7.223 -0.9617 -1.2536  1.8248
   98SAPS   C38 9841   5.171  -0.050   7.230 -0.5018 -0.8024 -0.0295
   98SAPS   H8X 9842   5.253  -0.104   7.282 -0.4879 -1.2508 -0.5130
   98SAPS   H8Y 9843   5.114  -0.120   7.165 -0.8985 -0.3427 -0.1830
   98SAPS   C39 9844   5.069   0.004   7.341 -0.5972  0.5904  0.2553
   98SAPS   H9X 9845   4.970   0.020   7.294 -0.2107 -0.0793 -0.8099
   98SAPS   H9Y 9846   5.115   0.092   7.391  0.0908  0.9579 -1.0192
   98SAPS  C310 9847   5.058  -0.107   7.449  0.2158 -0.4328 -0.5200
   98SAPS  H10X 9848   5.153  -0.108   7.507  0.9366 -1.0665 -1.6954
   98SAPS  H10Y 9849   5.046  -0.205   7.398 -1.2464 -0.3481 -0.3515
   98SAPS  C311 9850   4.945  -0.061   7.547  0.5467  0.3751  0.0795
   98SAPS  H11X 9851   4.857  -0.071   7.481  0.7624 -3.7394  0.2662
   98SAPS  H11Y 9852   4.967   0.039   7.591  0.0190  0.9941 -1.0664
   98SAPS  C312 9853   4.921  -0.156   7.661 -0.1747 -0.3273  0.2374
   98SAPS  H12X 9854   5.017  -0.171   7.714 -0.7021  0.2004  1.3812
   98SAPS  H12Y 9855   4.888  -0.252   7.617 -0.5399  0.1578 -0.5625
   98SAPS  C313 9856   4.807  -0.112   7.762 -0.2261  0.4664  1.1901
   98SAPS  H13X 9857   4.791  -0.192   7.837  0.3147  0.2320  1.0601
   98SAPS  H13Y 9858   4.715  -0.091   7.704  1.6186  1.7189 -1.3903
   98SAPS  C314 9859   4.845   0.005   7.852  0.5896 -0.4246 -0.4241
   98SAPS  H14X 9860   4.870   0.091   7.788  1.9722  0.2852  1.0441
   98SAPS  H14Y 9861   4.937  -0.011   7.911  0.3079 -0.0595  0.1238
   98SAPS  C315 9862   4.733   0.032   7.944  0.7879  0.5250  0.0033
   98SAPS  H15X 9863   4.727  -0.052   8.017 -0.2036 -0.4623 -1.1956
   98SAPS  H15Y 9864   4.639   0.045   7.887  0.9594 -2.3498 -0.9799
   98SAPS  C316 9865   4.749   0.147   8.038 -0.0960 -0.0303  0.2065
   98SAPS  H16X 9866   4.746   0.238   7.974  0.1978  0.3817  0.7757
   98SAPS  H16Y 9867   4.846   0.149   8.092 -0.5107  0.5322  0.9389
   98SAPS  C317 9868   4.636   0.161   8.142 -0.3307  0.1650 -0.2366
   98SAPS  H17X 9869   4.632   0.061   8.190  0.4920  0.1200 -0.2602
   98SAPS  H17Y 9870   4.533   0.173   8.102 -0.6402 -0.4612  0.3457
   98SAPS  C318 9871   4.660   0.275   8.248 -0.5166 -0.5025 -0.2066
   98SAPS  H18X 9872   4.648   0.371   8.193 -2.0799 -0.3736  0.3202
   98SAPS  H18Y 9873   4.765   0.260   8.281 -0.9803 -0.3850  1.3947
   98SAPS  H18Z 9874   4.600   0.274   8.342 -1.9123 -0.1780 -1.0791
   99SAPS     N 9875   4.437   4.668   5.832  0.2223  0.1233 -0.1550
   99SAPS   HN1 9876   4.466   4.699   5.737  0.5843  0.9736  0.2281
   99SAPS   HN2 9877   4.418   4.750   5.892  1.0848  1.2813 -1.4261
   99SAPS   HN3 9878   4.521   4.626   5.877  0.1418  0.0085 -0.1150
   99SAPS   C12 9879   4.322   4.569   5.827 -0.0095 -0.1175  0.0905
   99SAPS  H12A 9880   4.232   4.629   5.825 -1.2743 -1.9765  0.1403
   99SAPS   C13 9881   4.321   4.478   5.711  0.1176 -0.7696  0.6811
   99SAPS  O13A 9882   4.411   4.488   5.620  0.2477  0.6386 -0.0046
   99SAPS  O13B 9883   4.228   4.393   5.701 -0.7511  0.7732 -0.1674
   99SAPS   C11 9884   4.323   4.478   5.955 -0.2823  0.2781  0.3448
   99SAPS  H11A 9885   4.406   4.405   5.949 -0.0675  0.4299  1.3288
   99SAPS  H11B 9886   4.231   4.417   5.955 -0.2671  0.2532 -0.0408
   99SAPS     P 9887   4.202   4.615   6.138  0.0183 -0.0336 -0.0368
   99SAPS   O13 9888   4.188   4.761   6.097  0.4973  0.2819  0.0999
   99SAPS   O14 9889   4.089   4.526   6.114 -0.2668 -0.0390  0.1143
   99SAPS   O12 9890   4.334   4.555   6.079 -0.6378  0.0650  0.5172
   99SAPS   O11 9891   4.232   4.613   6.294 -0.1084 -0.0228 -0.1804
   99SAPS    C1 9892   4.258   4.489   6.358 -0.4056  0.0959 -0.4225
   99SAPS    HA 9893   4.164   4.436   6.385  0.9110 -1.1259  1.9049
   99SAPS    HB 9894   4.314   4.413   6.299  0.8876 -0.7794  1.8539
   99SAPS    C2 9895   4.339   4.509   6.491 -0.4288 -0.5843 -1.0047
   99SAPS    HS 9896   4.352   4.415   6.548 -2.3059 -0.9340 -1.1478
   99SAPS   O21 9897   4.271   4.601   6.581 -0.7308  0.0510 -0.1207
   99SAPS   C21 9898   4.147   4.586   6.613  0.0882  0.6092 -0.2012
   99SAPS   O22 9899   4.079   4.488   6.585  0.3444  0.3836 -0.0136
   99SAPS   C22 9900   4.114   4.706   6.707  0.2780  0.0542 -0.2599
   99SAPS   H2R 9901   4.160   4.689   6.807  0.0609  2.0485  0.1992
   99SAPS   H2S 9902   4.155   4.804   6.674 -1.5679  0.6907 -0.7392
   99SAPS    C3 9903   4.477   4.559   6.461  0.3151  0.3688 -0.0783
   99SAPS    HX 9904   4.480   4.641   6.386  2.1280 -0.6532 -1.1491
   99SAPS    HY 9905   4.522   4.474   6.406 -0.6268 -0.1975  0.0108
   99SAPS   O31 9906   4.544   4.595   6.582 -0.5871  0.4207 -0.7377
   99SAPS   C31 9907   4.551   4.728   6.613 -0.2301  0.4953  0.2461
   99SAPS   O32 9908   4.505   4.819   6.548 -0.2202  0.4154 -0.0121
   99SAPS   C32 9909   4.609   4.750   6.753 -0.3064 -0.1435 -0.2600
   99SAPS   H2X 9910   4.643   4.855   6.765  0.7590 -0.7014  2.0084
   99SAPS   H2Y 9911   4.698   4.684   6.764 -1.7336 -2.0131  0.3538
   99SAPS   C23 9912   3.961   4.717   6.714  0.0109 -0.4379  0.0997
   99SAPS   H3R 9913   3.933   4.615   6.749 -1.9028 -0.1295 -0.5156
   99SAPS   H3S 9914   3.911   4.742   6.618  1.6189 -1.8199 -1.1519
   99SAPS   C24 9915   3.907   4.809   6.826  0.1584 -0.7467  0.2422
   99SAPS   H4R 9916   3.958   4.789   6.922 -0.9165  0.8224  1.1733
   99SAPS   H4S 9917   3.799   4.786   6.839 -0.1063  0.5483  0.4588
   99SAPS   C25 9918   3.907   4.963   6.797 -0.4248 -0.4106 -0.0726
   99SAPS   H5R 9919   3.962   4.989   6.705 -2.1657 -0.0718 -1.0290
   99SAPS   C26 9920   3.873   5.061   6.885 -0.8029  0.1423 -0.0668
   99SAPS   H6R 9921   3.874   5.167   6.854 -1.7792  0.0177 -0.5469
   99SAPS   C27 9922   3.812   5.047   7.025 -0.9875 -0.8942 -0.1182
   99SAPS   H7R 9923   3.896   5.052   7.099 -1.3049  0.9295  0.1331
   99SAPS   H7S 9924   3.764   4.951   7.054  0.0376 -1.1463  0.7728
   99SAPS   C28 9925   3.708   5.155   7.047 -0.0379  0.0708  0.8132
   99SAPS   H8R 9926   3.663   5.192   6.954  0.7365  0.3854  0.5573
   99SAPS   C29 9927   3.671   5.212   7.166  0.5492 -0.7854 -0.1450
   99SAPS   H9R 9928   3.589   5.285   7.178  1.9443  0.5792  1.2107
   99SAPS  C210 9929   3.733   5.170   7.296  0.0293 -0.1732  0.2360
   99SAPS  H10R 9930   3.771   5.268   7.333  1.4596 -0.6296 -0.0366
   99SAPS  H10S 9931   3.825   5.110   7.286 -0.5859 -1.1312  0.2363
   99SAPS  C211 9932   3.636   5.115   7.394 -0.4229 -0.0022 -0.1549
   99SAPS  H11R 9933   3.545   5.174   7.415 -0.5192 -0.5510  1.0136
   99SAPS  C212 9934   3.629   4.997   7.451 -0.8124 -0.1192  0.1787
   99SAPS  H12R 9935   3.544   4.974   7.516  0.5271  0.5472  2.2311
   99SAPS  C213 9936   3.727   4.882   7.431 -0.0158 -0.2104 -0.0477
   99SAPS  H13R 9937   3.788   4.873   7.523 -0.2247  1.6212  0.3002
   99SAPS  H13S 9938   3.801   4.905   7.350 -2.3955  1.1924 -1.8922
   99SAPS  C214 9939   3.653   4.755   7.402  0.3693 -0.3855  0.2569
   99SAPS  H14R 9940   3.570   4.732   7.470  1.2797 -1.5563  0.9930
   99SAPS  C215 9941   3.673   4.660   7.306 -0.8014  0.7657  0.1392
   99SAPS  H15R 9942   3.604   4.575   7.306  0.6075 -0.4060  0.7063
   99SAPS  C216 9943   3.786   4.661   7.203 -0.8812 -0.3925 -0.2655
   99SAPS  H16R 9944   3.851   4.751   7.199 -0.3062 -0.8109 -0.2682
   99SAPS  H16S 9945   3.735   4.661   7.104 -2.1133  0.2063  0.3496
   99SAPS  C217 9946   3.880   4.538   7.216 -0.2050 -0.3058  0.2771
   99SAPS  H17R 9947   3.823   4.443   7.212 -1.6524  0.5911 -1.5618
   99SAPS  H17S 9948   3.935   4.535   7.312 -2.0832  3.4404  1.5495
   99SAPS  C218 9949   3.988   4.537   7.103 -0.3985  0.0887  0.8489
   99SAPS  H18R 9950   4.067   4.613   7.119  0.6741  0.2073 -4.0525
   99SAPS  H18S 9951   3.940   4.576   7.011 -0.1131  2.3824  1.6451
   99SAPS  C219 9952   4.039   4.390   7.081 -0.3412 -0.4687  0.2267
   99SAPS  H19R 9953   4.119   4.391   7.005 -0.3544  1.0576  0.2161
   99SAPS  H19S 9954   3.953   4.326   7.053 -0.5946  0.1347 -0.3761
   99SAPS  C220 9955   4.091   4.327   7.207  0.1983  0.2722  0.5210
   99SAPS  H20R 9956   4.179   4.383   7.246 -0.5410  2.4277 -0.8130
   99SAPS  H20S 9957   4.141   4.236   7.166  0.9840  0.3512  1.2885
   99SAPS  H20T 9958   4.012   4.292   7.277 -0.3991 -2.1371 -1.2800
   99SAPS   C33 9959   4.517   4.695   6.858 -0.4410 -0.0926  0.7370
   99SAPS   H3X 9960   4.462   4.601   6.835  1.8710 -0.6326 -3.0193
   99SAPS   H3Y 9961   4.442   4.776   6.870 -0.2538 -0.0767  1.8929
   99SAPS   C34 9962   4.568   4.667   6.998  0.5246 -0.4778  0.5416
   99SAPS   H4X 9963   4.613   4.761   7.036  0.6971 -0.5066  0.4077
   99SAPS   H4Y 9964   4.650   4.593   6.990  0.0673 -1.3386  3.1695
   99SAPS   C35 9965   4.457   4.613   7.090 -0.5826 -0.0070 -0.2282
   99SAPS   H5X 9966   4.470   4.502   7.094  1.9061  0.2801  1.0257
   99SAPS   H5Y 9967   4.354   4.644   7.065  0.3325  3.9178  0.5878
   99SAPS   C36 9968   4.477   4.673   7.235 -0.4499 -0.7245 -0.3855
   99SAPS   H6X 9969   4.480   4.784   7.228 -1.2021 -0.5920  1.2382
   99SAPS   H6Y 9970   4.579   4.645   7.269 -0.2902 -0.0591 -0.3059
   99SAPS   C37 9971   4.371   4.622   7.330 -0.0973 -0.4611 -0.3688
   99SAPS   H7X 9972   4.372   4.511   7.326 -0.2681 -0.4390 -0.9976
   99SAPS   H7Y 9973   4.265   4.635   7.300 -1.1014  0.7951  3.4017
   99SAPS   C38 9974   4.377   4.663   7.479 -0.2031 -0.0267 -0.3707
   99SAPS   H8X 9975   4.368   4.773   7.493  2.0171  0.1943 -0.5093
   99SAPS   H8Y 9976   4.479   4.644   7.519  0.4892  1.0563 -1.5664
   99SAPS   C39 9977   4.265   4.588   7.565 -0.2938 -0.0834  0.0791
   99SAPS   H9X 9978   4.282   4.478   7.567  0.4446  0.0378  1.6720
   99SAPS   H9Y 9979   4.173   4.606   7.506  0.3346 -2.1019 -1.5749
   99SAPS  C310 9980   4.240   4.659   7.704  0.2659  0.0956 -0.7258
   99SAPS  H10X 9981   4.261   4.767   7.690 -0.4675  0.2370 -0.7492
   99SAPS  H10Y 9982   4.322   4.627   7.772 -1.2217 -1.1301  0.5166
   99SAPS  C311 9983   4.109   4.641   7.771 -0.0199  0.8787  0.2362
   99SAPS  H11X 9984   4.113   4.664   7.879 -2.0274  1.8930  0.0998
   99SAPS  H11Y 9985   4.069   4.538   7.763  2.0583  0.0923 -0.5483
   99SAPS  C312 9986   4.001   4.742   7.732 -0.2115  0.3788 -0.3749
   99SAPS  H12X 9987   3.984   4.715   7.626 -0.1982 -0.9007 -0.0632
   99SAPS  H12Y 9988   4.018   4.852   7.735 -0.1018  0.4745 -3.1364
   99SAPS  C313 9989   3.872   4.718   7.816 -0.1823 -0.0058 -0.5775
   99SAPS  H13X 9990   3.828   4.617   7.807  0.7697 -0.4704 -0.0924
   99SAPS  H13Y 9991   3.794   4.790   7.782  0.9098  3.9695  4.5833
   99SAPS  C314 9992   3.886   4.749   7.969 -0.2969  0.1722  0.1629
   99SAPS  H14X 9993   3.883   4.859   7.980 -1.9563  0.1302  0.3029
   99SAPS  H14Y 9994   3.981   4.709   8.011 -0.0090  1.1558  0.4603
   99SAPS  C315 9995   3.766   4.689   8.060  0.1801  0.5831 -0.3305
   99SAPS  H15X 9996   3.762   4.578   8.052 -0.1722  0.4680  1.3599
   99SAPS  H15Y 9997   3.679   4.742   8.015  1.0782  2.8498  0.5556
   99SAPS  C316 9998   3.774   4.739   8.203  0.2392 -0.1857 -0.1521
   99SAPS  H16X 9999   3.800   4.847   8.209  2.3845 -0.6484 -0.6746
   99SAPS  H16Y10000   3.845   4.678   8.263 -2.4137 -2.3606  0.8446
   99SAPS  C31710001   3.644   4.731   8.277  0.3708 -1.0762  0.1247
   99SAPS  H17X10002   3.611   4.625   8.271  2.9215 -1.9894  1.4482
   99SAPS  H17Y10003   3.566   4.796   8.231 -0.5927 -1.6070  1.0015
   99SAPS  C31810004   3.654   4.779   8.424 -0.2595 -0.0091  0.1977
   99SAPS  H18X10005   3.730   4.717   8.476 -0.2532 -1.7299 -1.7811
   99SAPS  H18Y10006   3.562   4.766   8.486 -0.0306 -0.3227  0.4714
   99SAPS  H18Z10007   3.687   4.884   8.432  0.1383 -0.1434  0.3092
  100SAPS     N10008   0.823   5.768   6.405  0.0472  0.3406 -0.4167
  100SAPS   HN110009   0.757   5.692   6.431  0.9901 -0.0360  0.9318
  100SAPS   HN210010   0.924   5.744   6.406 -0.1204 -0.3502  0.9758
  100SAPS   HN310011   0.804   5.844   6.474 -0.2609 -0.2878  0.2024
  100SAPS   C1210012   0.796   5.823   6.263 -0.2134  0.2006  0.1409
  100SAPS  H12A10013   0.865   5.900   6.234  0.2957  0.2708  1.4912
  100SAPS   C1310014   0.804   5.713   6.162 -0.0881  0.1380  0.7692
  100SAPS  O13A10015   0.804   5.593   6.196 -0.1821 -0.2832 -0.0045
  100SAPS  O13B10016   0.788   5.740   6.040 -0.1718 -0.0772  0.1048
  100SAPS   C1110017   0.655   5.887   6.271  0.8599  0.7882  0.6517
  100SAPS  H11A10018   0.584   5.806   6.298  2.1250  0.8907  4.6459
  100SAPS  H11B10019   0.645   5.940   6.174  3.0747 -0.1822 -0.1448
  100SAPS     P10020   0.589   6.133   6.358 -0.0890  0.5795  0.1061
  100SAPS   O1310021   0.668   6.221   6.446  0.1869  0.6964 -0.2028
  100SAPS   O1410022   0.583   6.175   6.217  0.3530  0.6884 -0.1099
  100SAPS   O1210023   0.656   5.988   6.373  0.3441  0.0428 -0.1144
  100SAPS   O1110024   0.443   6.132   6.421 -0.4693 -0.0961  0.7316
  100SAPS    C110025   0.409   6.022   6.510  0.7607  0.1936 -0.2668
  100SAPS    HA10026   0.313   5.977   6.477  1.8502 -1.0283 -1.8703
  100SAPS    HB10027   0.479   5.936   6.507  0.1185 -0.2981 -1.7717
  100SAPS    C210028   0.381   6.059   6.659 -0.0645 -0.4057 -0.0587
  100SAPS    HS10029   0.374   5.963   6.714 -0.2185 -0.2232  0.2451
  100SAPS   O2110030   0.263   6.142   6.674  0.3925  0.7733  0.1481
  100SAPS   C2110031   0.156   6.080   6.712 -0.8663 -0.2793 -0.2329
  100SAPS   O2210032   0.135   5.960   6.697  0.2825 -0.5213  0.0737
  100SAPS   C2210033   0.060   6.177   6.787  0.7224  0.2449 -0.7102
  100SAPS   H2R10034   0.099   6.281   6.784 -0.6377  0.8432  1.2270
  100SAPS   H2S10035  -0.033   6.171   6.726 -0.4161  0.7318  0.9570
  100SAPS    C310036   0.498   6.131   6.734 -0.2758 -0.2480 -1.3172
  100SAPS    HX10037   0.479   6.240   6.725 -0.4575  0.1183  2.7224
  100SAPS    HY10038   0.588   6.115   6.670  1.5053  3.0803  0.2185
  100SAPS   O3110039   0.516   6.081   6.866 -0.2106  0.9521  0.0207
  100SAPS   C3110040   0.610   5.996   6.902  0.4215 -0.7060 -0.0470
  100SAPS   O3210041   0.683   5.945   6.821 -0.3147  0.6016 -0.0004
  100SAPS   C3210042   0.599   5.964   7.046 -0.3819  0.3869  0.0005
  100SAPS   H2X10043   0.578   6.052   7.110 -1.1983 -0.3390  0.7437
  100SAPS   H2Y10044   0.696   5.931   7.091  0.1021 -0.3923 -1.5932
  100SAPS   C2310045   0.022   6.132   6.932 -0.2315 -0.3437  0.1329
  100SAPS   H3R10046  -0.009   6.025   6.922  0.9927 -0.8130  1.3729
  100SAPS   H3S10047  -0.077   6.174   6.960  0.2891  1.5424 -0.8430
  100SAPS   C2410048   0.133   6.156   7.035 -0.3661 -0.3128  0.3170
  100SAPS   H4R10049   0.147   6.266   7.044 -0.0199 -0.2872 -0.5366
  100SAPS   H4S10050   0.226   6.109   6.996  0.6222  0.5062  1.6508
  100SAPS   C2510051   0.096   6.090   7.168 -0.9963  0.1398 -0.0479
  100SAPS   H5R10052   0.105   5.980   7.169 -0.6129  0.1176 -2.6838
  100SAPS   C2610053   0.044   6.149   7.277  0.2146 -0.5981 -0.3879
  100SAPS   H6R10054   0.012   6.090   7.364  0.7646 -1.1497 -0.5639
  100SAPS   C2710055  -0.001   6.295   7.286  0.2240 -0.2479 -0.1361
  100SAPS   H7R10056  -0.101   6.307   7.332  0.5330 -0.5155  0.6048
  100SAPS   H7S10057  -0.019   6.337   7.185  0.3686  0.0153 -0.0512
  100SAPS   C2810058   0.104   6.376   7.359 -0.3415  0.0064 -0.7157
  100SAPS   H8R10059   0.165   6.445   7.299 -0.1255  1.0776  0.7377
  100SAPS   C2910060   0.149   6.371   7.491 -0.1479 -0.2857  0.3213
  100SAPS   H9R10061   0.215   6.454   7.519 -1.0426  1.0873 -1.5168
  100SAPS  C21010062   0.096   6.285   7.604  0.4493 -0.2932 -1.0755
  100SAPS  H10R10063  -0.014   6.274   7.603  0.4691 -0.4791 -1.1445
  100SAPS  H10S10064   0.114   6.341   7.698  0.0794 -2.0640  0.0691
  100SAPS  C21110065   0.148   6.146   7.614 -0.1833 -0.6610 -0.0197
  100SAPS  H11R10066   0.229   6.130   7.541  0.4658 -2.6619  1.1003
  100SAPS  C21210067   0.103   6.045   7.688 -0.4515  0.3191 -0.7572
  100SAPS  H12R10068   0.160   5.952   7.693  0.4856  0.9379  0.3435
  100SAPS  C21310069  -0.017   6.071   7.783 -0.4540 -0.6614 -0.1720
  100SAPS  H13R10070  -0.046   6.178   7.775 -0.5311 -0.8248 -2.5090
  100SAPS  H13S10071   0.017   6.066   7.888  1.1443 -0.4272 -0.6673
  100SAPS  C21410072  -0.133   5.987   7.753  0.8044 -0.5833  0.3127
  100SAPS  H14R10073  -0.128   5.880   7.774 -2.4132 -0.2649  3.0748
  100SAPS  C21510074  -0.247   6.024   7.696  0.1839 -0.1596  0.7948
  100SAPS  H15R10075  -0.322   5.945   7.686 -0.2243  0.5019 -1.7694
  100SAPS  C21610076  -0.298   6.157   7.647 -0.4149  0.0920 -0.0676
  100SAPS  H16R10077  -0.233   6.244   7.671  1.9732 -1.5322 -0.4664
  100SAPS  H16S10078  -0.383   6.186   7.713 -0.9312  0.8486 -1.0553
  100SAPS  C21710079  -0.349   6.158   7.502 -0.1574 -0.0230  0.6852
  100SAPS  H17R10080  -0.269   6.118   7.436 -0.9015  0.5697 -0.6074
  100SAPS  H17S10081  -0.372   6.264   7.474 -0.1133  0.1247  1.2070
  100SAPS  C21810082  -0.477   6.072   7.461 -0.1140  0.6604 -0.1872
  100SAPS  H18R10083  -0.570   6.109   7.511  0.3000  0.7526  0.5220
  100SAPS  H18S10084  -0.453   5.970   7.497  0.7298  1.3273  1.2105
  100SAPS  C21910085  -0.496   6.052   7.307  0.8074 -0.2236 -0.5409
  100SAPS  H19R10086  -0.497   6.152   7.259 -1.0681 -0.8757 -1.9542
  100SAPS  H19S10087  -0.590   5.995   7.296  0.3494  0.6042 -0.9632
  100SAPS  C22010088  -0.381   5.978   7.238  0.0306 -0.0704  0.4568
  100SAPS  H20R10089  -0.286   6.036   7.234 -0.8670  1.3102 -1.9716
  100SAPS  H20S10090  -0.404   5.953   7.132 -1.7887  0.9402  0.6086
  100SAPS  H20T10091  -0.360   5.886   7.297 -0.5320 -0.7466 -0.3732
  100SAPS   C3310092   0.507   5.845   7.084  0.3307 -0.1419 -0.1690
  100SAPS   H3X10093   0.575   5.757   7.092  2.1579  1.3039  0.3833
  100SAPS   H3Y10094   0.428   5.839   7.006 -0.7165  1.7462  0.7293
  100SAPS   C3410095   0.446   5.874   7.224  0.2469 -1.0439  0.1318
  100SAPS   H4X10096   0.388   5.968   7.214  2.4001  0.4049  0.8568
  100SAPS   H4Y10097   0.527   5.902   7.296  0.9493  3.2437 -2.1542
  100SAPS   C3510098   0.372   5.763   7.279  0.0239  0.3535  0.4376
  100SAPS   H5X10099   0.448   5.683   7.294 -2.0703 -1.7673  0.2349
  100SAPS   H5Y10100   0.283   5.735   7.219  0.1663  0.7269  0.0513
  100SAPS   C3610101   0.313   5.797   7.418 -0.4957 -0.0207 -0.2130
  100SAPS   H6X10102   0.218   5.853   7.421 -1.1598 -1.1900  1.1105
  100SAPS   H6Y10103   0.392   5.852   7.475 -1.7551 -0.4673  2.0134
  100SAPS   C3710104   0.313   5.663   7.498  0.4215  0.1822 -0.7915
  100SAPS   H7X10105   0.422   5.643   7.502  0.5615  0.5375 -2.2522
  100SAPS   H7Y10106   0.260   5.589   7.433 -3.7424  2.1740  0.1859
  100SAPS   C3810107   0.261   5.680   7.642  0.0451 -0.2947  0.1292
  100SAPS   H8X10108   0.155   5.711   7.649 -0.5290 -0.9184 -4.6020
  100SAPS   H8Y10109   0.325   5.766   7.676 -2.0604  1.2689  0.2314
  100SAPS   C3910110   0.278   5.555   7.730  0.2073  0.1528  0.3317
  100SAPS   H9X10111   0.378   5.505   7.726  0.3554  0.5555 -1.2070
  100SAPS   H9Y10112   0.222   5.481   7.669 -0.1314  0.7998 -0.1342
  100SAPS  C31010113   0.218   5.583   7.870  0.2292  0.4114  0.3666
  100SAPS  H10X10114   0.212   5.487   7.926 -1.2179  0.1644 -0.2008
  100SAPS  H10Y10115   0.115   5.626   7.864 -0.1568  0.0801  3.6713
  100SAPS  C31110116   0.305   5.682   7.940  0.3692  0.3023 -0.3081
  100SAPS  H11X10117   0.297   5.783   7.895 -0.1455 -0.2664 -1.4945
  100SAPS  H11Y10118   0.412   5.651   7.944 -0.2087 -1.5778  2.5161
  100SAPS  C31210119   0.260   5.699   8.087 -0.0555  0.6709 -0.1038
  100SAPS  H12X10120   0.339   5.745   8.150  1.9767 -2.6972 -0.0453
  100SAPS  H12Y10121   0.237   5.601   8.134  1.2748 -0.1025 -1.0035
  100SAPS  C31310122   0.134   5.780   8.102  0.1041 -0.6538  0.8814
  100SAPS  H13X10123   0.066   5.745   8.021  0.5347 -2.4357  1.2637
  100SAPS  H13Y10124   0.157   5.887   8.083  1.1688 -0.4588  3.0679
  100SAPS  C31410125   0.074   5.774   8.244  0.4691  0.0035  0.3145
  100SAPS  H14X10126   0.043   5.668   8.258  2.9325 -0.8159 -0.1697
  100SAPS  H14Y10127  -0.015   5.841   8.244  1.6426  1.6060  0.4359
  100SAPS  C31510128   0.165   5.827   8.361 -0.5229 -0.1880  0.4007
  100SAPS  H15X10129   0.183   5.932   8.327 -1.4228 -0.3708 -0.6901
  100SAPS  H15Y10130   0.260   5.770   8.359  0.4814  1.3668 -4.4792
  100SAPS  C31610131   0.100   5.827   8.499 -0.1553  0.8281 -0.4488
  100SAPS  H16X10132   0.176   5.850   8.577  0.1701 -3.6869  0.7297
  100SAPS  H16Y10133   0.066   5.724   8.523 -0.2040  1.3117  1.6392
  100SAPS  C31710134  -0.029   5.911   8.512 -0.1099 -0.0180  0.7562
  100SAPS  H17X10135  -0.044   5.928   8.620  0.3901  0.3660  0.7658
  100SAPS  H17Y10136  -0.113   5.851   8.471  1.5093 -2.8714  1.5088
  100SAPS  C31810137  -0.034   6.052   8.440 -0.0222  0.1825  0.6180
  100SAPS  H18X10138  -0.049   6.034   8.332  0.8716  0.2777  0.4715
  100SAPS  H18Y10139   0.065   6.103   8.447 -0.1915  1.3198 -3.9137
  100SAPS  H18Z10140  -0.126   6.097   8.483 -2.2055 -1.3617 -2.2468
  101OSM      N10141   6.332   6.360  11.056  0.2292  0.1886 -0.0424
  101OSM    C1510142   6.470   6.305  11.084 -0.1989 -0.1632  0.1513
  101OSM   H15A10143   6.488   6.274  11.186  2.0594 -1.0304 -0.4606
  101OSM   H15B10144   6.538   6.387  11.070 -1.6786  0.6915 -2.2582
  101OSM   H15C10145   6.495   6.220  11.021 -0.3972 -0.9237  1.0807
  101OSM    C1410146   6.239   6.252  11.097  0.7466 -0.6495 -0.0951
  101OSM   H14A10147   6.275   6.211  11.190 -0.4566  0.2047  0.7651
  101OSM   H14B10148   6.244   6.178  11.019  0.7949  2.2789 -3.0088
  101OSM   H14C10149   6.135   6.280  11.103  0.9136 -0.1811  0.8798
  101OSM    C1310150   6.307   6.482  11.141 -0.9387  0.1881 -0.5078
  101OSM   H13A10151   6.337   6.443  11.237 -1.0157  1.4543  0.0323
  101OSM   H13B10152   6.202   6.507  11.137 -0.8849  0.7927  1.4728
  101OSM   H13C10153   6.379   6.557  11.113  0.0035 -1.0684 -1.5352
  101OSM    C1210154   6.317   6.396  10.907 -0.4961  0.7020 -0.0495
  101OSM   H12A10155   6.223   6.448  10.901 -0.7122  0.4233  0.8101
  101OSM   H12B10156   6.298   6.307  10.849 -0.9838  1.9367 -1.8013
  101OSM    C1110157   6.417   6.487  10.842  0.1610 -0.1077  0.7765
  101OSM   H11A10158   6.371   6.505  10.742 -1.0940 -1.0395  1.1645
  101OSM   H11B10159   6.521   6.450  10.831  0.0882  0.2208 -1.4087
  101OSM      P10160   6.401   6.750  10.877  0.6297 -0.5649  0.6011
  101OSM    O1310161   6.253   6.756  10.860 -0.0348  0.5864 -0.2072
  101OSM    O1410162   6.443   6.848  10.978  0.2454 -0.1317 -0.1642
  101OSM    O1110163   6.470   6.773  10.736 -0.1736  0.1821  0.4385
  101OSM    O1210164   6.433   6.606  10.923 -0.3946 -0.5560  0.4504
  101OSM    C1S10165   6.389   6.762  10.619 -0.3047 -0.3961 -0.1461
  101OSM    H1S10166   6.337   6.860  10.610  1.3105  0.3194 -1.9718
  101OSM    H1T10167   6.312   6.684  10.609 -0.4152 -0.3575  0.3831
  101OSM     NF10168   6.397   6.760  10.369 -0.3292  0.2412 -0.3577
  101OSM    HNF10169   6.384   6.679  10.312 -1.2549  0.5587 -0.6139
  101OSM    C2S10170   6.486   6.759  10.491  0.1021 -0.7271  0.1523
  101OSM    H2S10171   6.565   6.837  10.492 -0.7794  0.2023 -1.3859
  101OSM    C3S10172   6.562   6.627  10.499  0.0032  0.5551 -0.2209
  101OSM    H3S10173   6.495   6.539  10.490  2.1002 -1.3903  2.5597
  101OSM     O310174   6.637   6.603  10.621 -0.0568 -0.0605  0.4242
  101OSM    HO310175   6.604   6.673  10.677  0.8042  1.0222 -0.4092
  101OSM    C4S10176   6.670   6.614  10.389 -0.1752 -0.3100 -0.2133
  101OSM    H4S10177   6.734   6.702  10.374 -1.1520  0.4866  0.2168
  101OSM    C5S10178   6.690   6.505  10.318 -0.5426 -0.7867  0.4038
  101OSM    H5S10179   6.627   6.416  10.335  0.3778 -1.4502  0.3863
  101OSM    C6S10180   6.799   6.492  10.212  0.4793 -0.0960  0.1237
  101OSM    H6S10181   6.767   6.426  10.129  0.9403  0.6515 -0.6499
  101OSM    H6T10182   6.879   6.431  10.258  1.7470  0.9087 -0.7046
  101OSM    C7S10183   6.859   6.619  10.153 -0.0482 -0.2738  0.4336
  101OSM    H7S10184   6.917   6.687  10.218  0.4022 -0.8302  0.6179
  101OSM    H7T10185   6.783   6.686  10.107  3.4240  2.5463 -1.4166
  101OSM    C8S10186   6.948   6.580  10.034  0.3213  0.0837 -0.2267
  101OSM    H8S10187   6.921   6.481   9.991  1.4789 -0.4142  0.1632
  101OSM    H8T10188   7.052   6.576  10.074  0.5302 -0.3209 -0.7958
  101OSM    C9S10189   6.951   6.680   9.919  0.4248 -0.9184 -0.4742
  101OSM    H9S10190   7.002   6.772   9.955 -0.9211 -0.2539 -0.2085
  101OSM    H9T10191   6.851   6.713   9.884  0.5718  0.2585  0.1839
  101OSM   C10S10192   7.033   6.624   9.799  0.3698 -0.7270  0.4456
  101OSM   H10S10193   6.994   6.524   9.771  3.1595 -1.3457 -1.4221
  101OSM   H10T10194   7.139   6.623   9.831  0.9595  2.2243 -1.2280
  101OSM   C11S10195   7.034   6.713   9.679  0.2145 -0.5968  0.1396
  101OSM   H11S10196   7.068   6.817   9.701 -0.7751  0.3091 -2.3800
  101OSM   H11T10197   6.931   6.722   9.639  0.0572 -3.0249 -0.0772
  101OSM   C12S10198   7.096   6.650   9.546  0.0816  0.1114  1.0795
  101OSM   H12S10199   7.064   6.544   9.536  0.1322  0.3962 -2.5952
  101OSM   H12T10200   7.204   6.637   9.570  1.0070  3.3927 -0.9442
  101OSM   C13S10201   7.066   6.730   9.418 -0.2523  0.0814  0.4030
  101OSM   H13S10202   7.131   6.819   9.406  1.7204 -1.2274  1.0381
  101OSM   H13T10203   6.961   6.767   9.419  0.0278  1.0866 -2.2729
  101OSM   C14S10204   7.087   6.637   9.305  0.2396  0.2223  0.8638
  101OSM   H14S10205   7.040   6.537   9.310 -0.8461  0.7208  0.8704
  101OSM   H14T10206   7.195   6.616   9.296  0.4972  1.7894  0.1123
  101OSM   C15S10207   7.030   6.694   9.169 -0.5974 -0.0519  0.7444
  101OSM   H15S10208   7.072   6.796   9.155  2.9823 -1.5484  0.1235
  101OSM   H15T10209   6.920   6.701   9.183 -0.5380 -1.7981  2.3254
  101OSM   C16S10210   7.051   6.606   9.048 -0.5944  0.4950 -0.3448
  101OSM   H16S10211   6.993   6.513   9.061  0.6399 -0.4256 -1.3322
  101OSM   H16T10212   7.157   6.579   9.028 -1.0197 -1.5089  0.0460
  101OSM   C17S10213   7.007   6.674   8.920  0.7354  0.0860  0.1764
  101OSM   H17S10214   7.005   6.598   8.838  0.5615  0.7059 -0.4016
  101OSM   H17T10215   7.085   6.745   8.885  0.6243 -1.1265 -2.6790
  101OSM   C18S10216   6.873   6.749   8.908  0.3102  0.6532 -0.0656
  101OSM   H18S10217   6.890   6.858   8.924  1.7381  0.3606  0.5433
  101OSM   H18T10218   6.795   6.713   8.978  0.9768 -0.4674  0.1078
  101OSM   H18U10219   6.836   6.749   8.803 -0.5235 -1.3686  0.2104
  101OSM    C1F10220   6.349   6.880  10.341  0.3223 -0.3708 -0.5303
  101OSM     OF10221   6.369   6.972  10.420  1.1462  0.1329  0.3238
  101OSM    C2F10222   6.268   6.884  10.213 -0.7111 -0.3479  1.2947
  101OSM    H2F10223   6.205   6.797  10.187  0.7682 -1.0973  0.1354
  101OSM    H2G10224   6.340   6.898  10.130 -1.7762  0.0897  0.4254
  101OSM    C3F10225   6.182   7.015  10.213 -0.5425 -0.9590 -0.1401
  101OSM    H3F10226   6.236   7.112  10.222 -0.8417 -0.7562 -0.5726
  101OSM    H3G10227   6.109   7.020  10.297  0.5483  0.9957  0.7247
  101OSM    C4F10228   6.098   7.018  10.081  0.5311 -0.0346  0.0470
  101OSM    H4F10229   6.001   7.070  10.098  1.1699  1.4407 -0.7033
  101OSM    H4G10230   6.067   6.920  10.040  1.2823  0.0005 -0.6104
  101OSM    C5F10231   6.167   7.083   9.964  0.3026  0.2682 -1.0055
  101OSM    H5F10232   6.253   7.013   9.958 -0.1462 -0.7023  2.4020
  101OSM    H5G10233   6.197   7.185   9.999  1.4948 -0.8615  1.4371
  101OSM    C6F10234   6.101   7.086   9.830  0.2703  0.0698 -0.2567
  101OSM    H6F10235   6.010   7.149   9.822 -0.2620 -0.7631 -0.9008
  101OSM    H6G10236   6.058   6.987   9.806 -0.2205 -0.3422  2.1395
  101OSM    C7F10237   6.204   7.128   9.726 -0.0208 -0.3636 -0.3729
  101OSM    H7F10238   6.296   7.066   9.735 -0.8325 -1.2688  1.8767
  101OSM    H7G10239   6.236   7.235   9.730 -2.9169  0.5729 -1.1360
  101OSM    C8F10240   6.142   7.113   9.583  0.0677 -0.0135  0.8369
  101OSM    H8F10241   6.074   7.198   9.559  0.9428  0.1093 -1.3414
  101OSM    H8G10242   6.083   7.019   9.595 -0.2855 -0.0340 -0.8740
  101OSM    C9F10243   6.238   7.098   9.472  0.4343  0.0519  0.0732
  101OSM    H9F10244   6.330   7.158   9.476 -0.4891  1.7119 -2.3802
  101OSM   C10F10245   6.221   7.017   9.366  0.0250  0.6455  0.0562
  101OSM   H10F10246   6.299   7.033   9.289  0.2129 -0.3154  0.0407
  101OSM   C11F10247   6.104   6.932   9.329 -0.3760  0.5013  0.4239
  101OSM   H11F10248   6.079   6.874   9.420  2.0854 -0.0553  0.7958
  101OSM   H11G10249   6.126   6.868   9.240  2.0094  2.6248 -0.5930
  101OSM   C12F10250   5.983   6.998   9.270 -0.2013 -0.3531 -0.8411
  101OSM   H12F10251   5.946   7.078   9.339 -0.2356  0.3676 -1.6796
  101OSM   H12G10252   5.903   6.921   9.264  0.7677 -1.6141  1.5819
  101OSM   C13F10253   6.017   7.058   9.135  0.3185 -0.0023  0.8266
  101OSM   H13F10254   6.107   7.122   9.144  0.1237  0.5577 -1.0750
  101OSM   H13G10255   5.935   7.126   9.103 -1.1744 -2.8027 -1.5835
  101OSM   C14F10256   6.043   6.953   9.022  0.2681  0.5967  0.4704
  101OSM   H14F10257   6.142   6.902   9.030  0.2427  0.2988 -0.8957
  101OSM   H14G10258   6.031   7.002   8.923 -0.7843 -0.8958 -0.1616
  101OSM   C15F10259   5.934   6.841   9.016  0.4106 -0.3799  0.1886
  101OSM   H15F10260   5.835   6.891   9.009  0.4862  0.8154  5.3338
  101OSM   H15G10261   5.923   6.792   9.115  1.0668  1.5543  1.2504
  101OSM   C16F10262   5.959   6.731   8.909  0.2677 -0.7948  0.3682
  101OSM   H16F10263   5.874   6.661   8.919  0.0574 -0.4424  1.1365
  101OSM   H16G10264   6.050   6.668   8.919  0.2592 -0.9385 -0.4534
  101OSM   C17F10265   5.946   6.783   8.767 -0.0901  0.6160  0.3393
  101OSM   H17F10266   6.039   6.843   8.753 -0.8903  1.5883 -0.9979
  101OSM   H17G10267   5.861   6.854   8.765 -1.4298 -0.9066  2.1639
  101OSM   C18F10268   5.937   6.671   8.666  0.1560 -0.1586 -0.7707
  101OSM   H18F10269   5.932   6.720   8.567 -1.1046 -1.7319 -1.5144
  101OSM   H18G10270   5.844   6.611   8.673 -0.4527  0.6847 -1.4805
  101OSM   H18H10271   6.019   6.596   8.661  0.2775 -0.1522  0.8564
  102OSM      N10272   0.107   5.736  10.732 -0.5011  0.1382  0.1015
  102OSM    C1510273  -0.007   5.712  10.827 -1.1632  0.9652 -0.2865
  102OSM   H15A10274  -0.102   5.737  10.781 -1.7235 -0.9914 -0.2099
  102OSM   H15B10275  -0.000   5.779  10.911 -0.9216  0.8252 -0.1942
  102OSM   H15C10276  -0.011   5.611  10.864  1.4208  0.9896  0.1994
  102OSM    C1410277   0.236   5.730  10.814 -0.2994 -0.0864 -0.5285
  102OSM   H14A10278   0.249   5.635  10.865 -3.5828 -0.1653  0.2746
  102OSM   H14B10279   0.225   5.802  10.893  3.4533  2.4023 -2.1215
  102OSM   H14C10280   0.329   5.749  10.762  0.8148  0.2570  1.5417
  102OSM    C1310281   0.109   5.630  10.625 -0.1140 -0.5271 -0.2515
  102OSM   H13A10282   0.186   5.642  10.551  0.5148  0.9055  0.6140
  102OSM   H13B10283   0.013   5.623  10.575 -1.2306  0.7825  1.6255
  102OSM   H13C10284   0.121   5.532  10.669  0.4307 -0.5442 -0.4423
  102OSM    C1210285   0.115   5.877  10.679  0.1419 -0.3821 -0.6045
  102OSM   H12A10286   0.207   5.899  10.629 -0.5193  1.4326 -1.0625
  102OSM   H12B10287   0.114   5.943  10.765 -2.1668 -2.0603  0.7402
  102OSM    C1110288  -0.009   5.914  10.584 -0.9387 -0.6436 -0.8652
  102OSM   H11A10289  -0.013   5.838  10.504 -3.0766 -0.2139 -1.2087
  102OSM   H11B10290   0.010   6.013  10.537 -0.8126  0.0819  0.6677
  102OSM      P10291  -0.189   6.057  10.705  0.4641 -0.0500  0.2029
  102OSM    O1310292  -0.328   6.020  10.757  0.1553 -0.6103 -0.5392
  102OSM    O1410293  -0.095   6.126  10.797 -0.7336 -0.2364 -0.1818
  102OSM    O1110294  -0.209   6.132  10.564 -0.0087 -0.1945 -0.6208
  102OSM    O1210295  -0.133   5.922  10.651 -0.6600  0.1649 -0.5264
  102OSM    C1S10296  -0.327   6.103  10.481  0.3822 -0.2904 -1.0540
  102OSM    H1S10297  -0.412   6.161  10.521  0.3864 -0.3369 -0.9792
  102OSM    H1T10298  -0.363   5.998  10.481 -0.6627  0.0557 -2.1863
  102OSM     NF10299  -0.449   6.101  10.270 -0.8944 -0.1083  0.0538
  102OSM    HNF10300  -0.450   6.003  10.253 -0.8678 -0.1746  0.4200
  102OSM    C2S10301  -0.324   6.156  10.335  0.0707  0.7514  0.0228
  102OSM    H2S10302  -0.315   6.267  10.331 -0.1128  0.7699  0.0983
  102OSM    C3S10303  -0.207   6.087  10.254 -0.1641 -0.2956  0.3030
  102OSM    H3S10304  -0.219   5.978  10.269 -0.7322  0.1949  3.7202
  102OSM     O310305  -0.079   6.136  10.297 -0.0677 -0.3067 -0.2702
  102OSM    HO310306  -0.105   6.172  10.382  0.4362  1.4947 -0.8629
  102OSM    C4S10307  -0.219   6.117  10.104 -0.4949 -0.2110  0.7027
  102OSM    H4S10308  -0.186   6.217  10.072 -0.6259 -0.6416 -0.7823
  102OSM    C5S10309  -0.257   6.031  10.013  0.7957  0.2192 -0.8193
  102OSM    H5S10310  -0.280   5.927  10.037  1.1102  0.3616  0.1326
  102OSM    C6S10311  -0.251   6.056   9.867  0.3775  0.0940 -0.2327
  102OSM    H6S10312  -0.171   6.002   9.812  1.8008  1.4535  0.4463
  102OSM    H6T10313  -0.227   6.165   9.866  0.8345 -0.0069 -0.3030
  102OSM    C7S10314  -0.366   6.035   9.779 -0.2138 -0.2981 -0.0323
  102OSM    H7S10315  -0.449   6.100   9.815 -1.2686 -0.2920 -2.3920
  102OSM    H7T10316  -0.401   5.930   9.785 -2.0747  0.2889 -0.0377
  102OSM    C8S10317  -0.331   6.081   9.642  0.1022  0.0454 -0.3151
  102OSM    H8S10318  -0.259   6.005   9.606  2.0516  2.3440 -1.4311
  102OSM    H8T10319  -0.276   6.177   9.650 -1.9044  1.1145  1.2046
  102OSM    C9S10320  -0.454   6.087   9.548 -0.1352 -0.1039  0.2116
  102OSM    H9S10321  -0.512   6.176   9.579 -0.7071 -0.5056  0.3034
  102OSM    H9T10322  -0.509   5.992   9.561 -2.3660  1.3921  2.0037
  102OSM   C10S10323  -0.413   6.084   9.401  0.1304  0.1839 -0.7533
  102OSM   H10S10324  -0.351   5.995   9.376  1.9300  0.8263  1.2911
  102OSM   H10T10325  -0.357   6.177   9.380  1.8895 -0.2339  1.8597
  102OSM   C11S10326  -0.524   6.091   9.302 -0.1342 -0.6802  0.6813
  102OSM   H11S10327  -0.590   6.172   9.340  0.0671  0.3500 -1.1317
  102OSM   H11T10328  -0.580   5.995   9.303 -1.6504  0.1856  1.9838
  102OSM   C12S10329  -0.480   6.124   9.159 -0.4180  0.3571 -0.4809
  102OSM   H12S10330  -0.427   6.033   9.122  3.0718  3.7823 -4.3228
  102OSM   H12T10331  -0.427   6.221   9.162 -1.6626  1.0161  1.7108
  102OSM   C13S10332  -0.593   6.141   9.060  0.4758 -0.0996  0.8624
  102OSM   H13S10333  -0.652   6.222   9.109 -0.7791  0.0896 -0.9220
  102OSM   H13T10334  -0.653   6.048   9.069 -0.6746  0.5728  0.2210
  102OSM   C14S10335  -0.544   6.187   8.917 -1.0162 -0.1441  0.0153
  102OSM   H14S10336  -0.479   6.276   8.906 -0.7509 -0.1714  1.2502
  102OSM   H14T10337  -0.644   6.208   8.875 -0.3438  0.4251 -1.3306
  102OSM   C15S10338  -0.486   6.072   8.831 -0.2850  0.6157 -0.9488
  102OSM   H15S10339  -0.557   5.989   8.855 -0.7990  1.6158  1.0271
  102OSM   H15T10340  -0.387   6.034   8.863 -1.2436 -0.9730  0.2151
  102OSM   C16S10341  -0.484   6.097   8.684 -0.0724 -0.3491  0.5039
  102OSM   H16S10342  -0.429   6.191   8.663 -2.2182  0.9340  0.4938
  102OSM   H16T10343  -0.588   6.112   8.651 -0.4968 -3.9915 -0.0093
  102OSM   C17S10344  -0.415   5.982   8.614 -0.5806 -0.6940 -0.1267
  102OSM   H17S10345  -0.466   5.891   8.653 -0.3520 -0.3226  1.0328
  102OSM   H17T10346  -0.311   5.986   8.654 -0.7452  2.2284  0.0611
  102OSM   C18S10347  -0.405   5.992   8.465  0.4225 -0.0426  0.5662
  102OSM   H18S10348  -0.372   6.095   8.440 -1.5450  0.3661 -0.4717
  102OSM   H18T10349  -0.506   5.974   8.421 -0.5873  1.6998  2.1284
  102OSM   H18U10350  -0.336   5.919   8.417  2.1988  1.2054  1.1731
  102OSM    C1F10351  -0.563   6.162  10.267  0.1398 -0.1122  0.8725
  102OSM     OF10352  -0.577   6.275  10.318  0.4609 -0.5170  0.3710
  102OSM    C2F10353  -0.684   6.070  10.233  0.3768 -0.2035 -0.4915
  102OSM    H2F10354  -0.744   6.057  10.325  1.6544  0.0439  0.3852
  102OSM    H2G10355  -0.640   5.970  10.210  0.3509 -0.0019 -1.4348
  102OSM    C3F10356  -0.777   6.113  10.117 -0.3010 -0.1601  0.1501
  102OSM    H3F10357  -0.823   6.212  10.136  0.8674  0.2868  0.6664
  102OSM    H3G10358  -0.862   6.042  10.115 -0.0788 -0.4796  1.4365
  102OSM    C4F10359  -0.715   6.103   9.974  0.3265  0.0576 -0.2893
  102OSM    H4F10360  -0.658   6.009   9.967  0.7201  0.2942 -0.2473
  102OSM    H4G10361  -0.644   6.187   9.958 -0.0685  0.1464 -1.7068
  102OSM    C5F10362  -0.831   6.117   9.873 -0.1296 -0.1724  0.1183
  102OSM    H5F10363  -0.893   6.207   9.891 -1.2808 -1.7753  4.7955
  102OSM    H5G10364  -0.892   6.026   9.887  0.0805 -0.4178 -0.5045
  102OSM    C6F10365  -0.761   6.103   9.730  0.2338 -0.7950 -0.3393
  102OSM    H6F10366  -0.688   6.019   9.730  0.8111 -0.3296  1.5103
  102OSM    H6G10367  -0.709   6.198   9.705 -0.2684 -0.9993 -2.1700
  102OSM    C7F10368  -0.867   6.088   9.618  0.1723 -0.5438  0.4734
  102OSM    H7F10369  -0.940   6.005   9.627 -1.7218  1.1982  1.8169
  102OSM    H7G10370  -0.810   6.076   9.524  1.2769  1.1549  0.8984
  102OSM    C8F10371  -0.979   6.200   9.608 -0.7875 -0.8108 -0.5236
  102OSM    H8F10372  -1.045   6.184   9.697 -0.1252  0.7877  0.2723
  102OSM    H8G10373  -1.041   6.185   9.517  0.4223 -1.9170 -1.1730
  102OSM    C9F10374  -0.913   6.335   9.619  0.0840  0.5339 -0.0415
  102OSM    H9F10375  -0.885   6.381   9.715 -1.5152  2.3016 -0.3812
  102OSM   C10F10376  -0.884   6.407   9.507 -0.6648 -0.7522  0.3510
  102OSM   H10F10377  -0.842   6.508   9.516  0.5735 -1.1788 -0.6429
  102OSM   C11F10378  -0.899   6.373   9.365 -0.2678 -0.7834  0.1346
  102OSM   H11F10379  -0.886   6.265   9.343  3.1026 -0.4509  0.2467
  102OSM   H11G10380  -0.814   6.418   9.309  0.5869  0.2786  2.2232
  102OSM   C12F10381  -1.029   6.422   9.300 -0.4453 -0.1020  0.3227
  102OSM   H12F10382  -1.124   6.389   9.348  0.0528  0.9289  2.0765
  102OSM   H12G10383  -1.035   6.378   9.199 -0.7557  0.0549  0.2710
  102OSM   C13F10384  -1.040   6.578   9.302 -0.1948  0.2093 -0.4634
  102OSM   H13F10385  -0.956   6.621   9.244  0.6175 -0.4130  0.2381
  102OSM   H13G10386  -1.026   6.613   9.406  0.3680  2.8204 -1.3871
  102OSM   C14F10387  -1.177   6.644   9.247 -0.7669  0.5285 -0.0943
  102OSM   H14F10388  -1.152   6.751   9.230 -2.0147  0.6955 -0.9626
  102OSM   H14G10389  -1.264   6.632   9.316  0.0579 -0.2036  0.8229
  102OSM   C15F10390  -1.218   6.573   9.118  0.0423 -0.4687 -0.3096
  102OSM   H15F10391  -1.268   6.479   9.148 -2.7825  1.6146  1.8358
  102OSM   H15G10392  -1.134   6.548   9.050  0.3584 -0.3334  0.0263
  102OSM   C16F10393  -1.317   6.673   9.042 -0.0306  0.6248  0.8076
  102OSM   H16F10394  -1.298   6.665   8.933 -0.6716 -1.4931  0.8315
  102OSM   H16G10395  -1.291   6.775   9.078  0.4776  0.6655  0.3295
  102OSM   C17F10396  -1.463   6.637   9.077 -0.3964 -0.0630 -0.0839
  102OSM   H17F10397  -1.466   6.626   9.187 -1.8645 -2.1478 -0.3042
  102OSM   H17G10398  -1.491   6.544   9.023  0.8459 -0.9820  0.8381
  102OSM   C18F10399  -1.561   6.744   9.025 -0.0799 -0.1829  0.1972
  102OSM   H18F10400  -1.528   6.845   9.059 -0.6904 -0.1320  0.6542
  102OSM   H18G10401  -1.661   6.740   9.072 -0.7038  0.4718 -1.0542
  102OSM   H18H10402  -1.569   6.735   8.915 -0.2728 -2.6656  0.3924
  103OSM      N10403   0.688   1.926  11.206  0.7282 -0.0364  0.2535
  103OSM    C1510404   0.586   1.844  11.279  0.3012  0.0376  0.4837
  103OSM   H15A10405   0.600   1.741  11.252  2.3472  0.5943 -0.7109
  103OSM   H15B10406   0.488   1.885  11.260  0.9580  0.4166 -2.2520
  103OSM   H15C10407   0.604   1.840  11.386  1.7293 -0.6416  0.2401
  103OSM    C1410408   0.664   2.065  11.245 -0.4966 -0.5598  0.7056
  103OSM   H14A10409   0.595   2.098  11.168  2.2851 -1.5075 -2.2680
  103OSM   H14B10410   0.758   2.113  11.221 -0.3150 -0.1702  2.1738
  103OSM   H14C10411   0.637   2.079  11.349 -1.9340 -0.0601  0.2815
  103OSM    C1310412   0.825   1.888  11.245 -0.1565  0.2128  0.1478
  103OSM   H13A10413   0.834   1.782  11.226 -0.8119 -0.3959  2.8872
  103OSM   H13B10414   0.845   1.891  11.351  1.7909  0.3266 -0.2185
  103OSM   H13C10415   0.901   1.944  11.194 -1.0338 -1.8067 -3.5304
  103OSM    C1210416   0.681   1.911  11.049 -0.2677 -0.3156  0.0127
  103OSM   H12A10417   0.716   1.816  11.014 -1.4035 -1.0675  0.8510
  103OSM   H12B10418   0.736   1.995  11.010 -2.2381  0.6715 -0.7365
  103OSM    C1110419   0.545   1.926  10.966 -0.3278 -1.3565 -0.1150
  103OSM   H11A10420   0.467   1.865  11.018 -0.2821 -0.8472  0.5508
  103OSM   H11B10421   0.563   1.883  10.865 -0.6309 -2.9837  0.4971
  103OSM      P10422   0.550   2.171  10.898 -0.3083 -0.3113 -0.3072
  103OSM    O1310423   0.491   2.302  10.936 -0.1190 -0.8871  0.0332
  103OSM    O1410424   0.700   2.148  10.913  0.3032  0.0183  0.4638
  103OSM    O1110425   0.507   2.144  10.747 -0.1972  0.6512 -0.5448
  103OSM    O1210426   0.488   2.054  10.971  0.2278  0.3148  0.0636
  103OSM    C1S10427   0.386   2.090  10.704 -0.3500 -0.2105 -0.0266
  103OSM    H1S10428   0.313   2.173  10.704 -1.2252 -0.9658 -0.6247
  103OSM    H1T10429   0.357   2.005  10.771  0.8848 -1.7939 -1.4510
  103OSM     NF10430   0.261   1.999  10.509 -0.0364 -0.5352 -0.4456
  103OSM    HNF10431   0.231   1.905  10.523 -2.1253  0.1706  0.0552
  103OSM    C2S10432   0.393   2.034  10.558 -0.4010  1.6054 -0.1438
  103OSM    H2S10433   0.441   2.115  10.498 -0.7864  0.3200 -2.2222
  103OSM    C3S10434   0.501   1.914  10.556 -0.3793  0.3213 -0.4850
  103OSM    H3S10435   0.469   1.840  10.633  0.6508 -0.4614 -0.7978
  103OSM     O310436   0.629   1.954  10.585 -1.2208 -0.5889 -0.4980
  103OSM    HO310437   0.619   2.027  10.647 -2.3036 -0.8851 -0.3141
  103OSM    C4S10438   0.510   1.849  10.424 -0.0915  0.1561 -0.7137
  103OSM    H4S10439   0.550   1.915  10.346  1.4252 -0.6119 -0.6026
  103OSM    C5S10440   0.477   1.718  10.405  0.0757 -0.2624 -0.2796
  103OSM    H5S10441   0.414   1.672  10.482  0.6202 -3.2692 -1.5701
  103OSM    C6S10442   0.486   1.641  10.273  1.2488  0.3989 -0.1610
  103OSM    H6S10443   0.380   1.627  10.244  1.5658 -1.0139 -0.6690
  103OSM    H6T10444   0.538   1.544  10.284 -0.2485 -0.1265  2.9290
  103OSM    C7S10445   0.567   1.712  10.161  0.2993 -0.2835 -0.1764
  103OSM    H7S10446   0.673   1.699  10.189 -0.0455 -1.1861  0.7712
  103OSM    H7T10447   0.532   1.817  10.151  1.2762  0.2428  1.6208
  103OSM    C8S10448   0.550   1.646  10.025 -1.2451  0.3327  0.2985
  103OSM    H8S10449   0.446   1.659   9.988 -1.6566 -0.2720  1.2228
  103OSM    H8T10450   0.578   1.538  10.016  0.5371  0.9084 -1.2467
  103OSM    C9S10451   0.642   1.716   9.921 -0.3466  0.4145  0.7777
  103OSM    H9S10452   0.737   1.730   9.976  1.0030  1.2635 -1.7100
  103OSM    H9T10453   0.604   1.816   9.891  1.4403  1.0307  0.5683
  103OSM   C10S10454   0.678   1.636   9.791  0.2923 -0.1410  0.1497
  103OSM   H10S10455   0.697   1.535   9.831  0.3608 -0.4904 -0.7612
  103OSM   H10T10456   0.769   1.687   9.752 -1.1727  1.9927 -0.6287
  103OSM   C11S10457   0.571   1.623   9.676 -0.5823 -0.6195 -0.5988
  103OSM   H11S10458   0.603   1.604   9.572 -2.1463 -0.6867 -1.0650
  103OSM   H11T10459   0.523   1.723   9.669  2.5570  0.8571 -2.1741
  103OSM   C12S10460   0.466   1.518   9.712 -0.1777  0.3023  0.3031
  103OSM   H12S10461   0.469   1.498   9.822  0.3551  1.0955  0.4353
  103OSM   H12T10462   0.509   1.426   9.668  1.0465  0.6308  0.7737
  103OSM   C13S10463   0.327   1.544   9.663  0.1660  1.0646  0.3819
  103OSM   H13S10464   0.265   1.451   9.665  1.2273  0.3040 -0.8535
  103OSM   H13T10465   0.333   1.559   9.553  1.6949 -0.4639  0.2289
  103OSM   C14S10466   0.253   1.653   9.737 -0.1748  0.1643  0.0227
  103OSM   H14S10467   0.323   1.730   9.776  0.1403  0.4263 -1.0446
  103OSM   H14T10468   0.209   1.618   9.833 -0.4454  1.7561  0.4813
  103OSM   C15S10469   0.154   1.723   9.638 -0.1053 -0.5345  0.3505
  103OSM   H15S10470   0.082   1.648   9.597 -0.2478 -1.1252  1.6478
  103OSM   H15T10471   0.220   1.760   9.558  0.7709 -2.2952  0.2357
  103OSM   C16S10472   0.083   1.844   9.700  0.2534  0.1459  0.1190
  103OSM   H16S10473   0.165   1.906   9.741  0.1175  0.6989 -0.4197
  103OSM   H16T10474   0.024   1.821   9.791  0.6172 -0.4541  0.2016
  103OSM   C17S10475   0.004   1.931   9.602 -0.3929 -0.7191  0.3254
  103OSM   H17S10476  -0.091   1.880   9.575 -2.9580  5.8232 -4.1424
  103OSM   H17T10477   0.067   1.942   9.511  0.0079 -0.2074  0.6656
  103OSM   C18S10478  -0.038   2.073   9.646 -0.4735 -0.3755  0.1129
  103OSM   H18S10479   0.059   2.121   9.669  0.7576 -2.2146 -1.1028
  103OSM   H18T10480  -0.098   2.065   9.739  0.0272 -1.6027  0.3427
  103OSM   H18U10481  -0.096   2.120   9.564  0.5626 -2.2419 -1.7327
  103OSM    C1F10482   0.169   2.094  10.480 -0.1334  0.8384 -0.5883
  103OSM     OF10483   0.205   2.210  10.482 -0.6410  0.8153 -0.3043
  103OSM    C2F10484   0.040   2.045  10.427  0.9092 -0.5443 -0.7262
  103OSM    H2F10485  -0.036   2.125  10.442 -1.1742 -2.7896  1.1415
  103OSM    H2G10486   0.003   1.969  10.499  0.0184 -0.3322 -0.9552
  103OSM    C3F10487   0.056   1.999  10.287  0.0233  0.0578  0.5011
  103OSM    H3F10488  -0.024   1.924  10.270 -0.6668  0.6709  0.9862
  103OSM    H3G10489   0.135   1.923  10.271 -3.0677 -3.0487 -0.5501
  103OSM    C4F10490   0.075   2.110  10.189 -0.4374 -1.0134 -0.3470
  103OSM    H4F10491   0.168   2.167  10.209 -1.2396  0.8113 -1.6399
  103OSM    H4G10492  -0.015   2.176  10.180 -0.0166 -0.5458 -1.2468
  103OSM    C5F10493   0.111   2.048  10.053 -0.1578 -0.1542  0.6232
  103OSM    H5F10494   0.076   2.121   9.976 -0.2462  0.2225  1.0208
  103OSM    H5G10495   0.044   1.962  10.032  1.8926 -1.2873 -1.4837
  103OSM    C6F10496   0.258   2.012  10.034 -0.6009  0.5120  0.1480
  103OSM    H6F10497   0.276   1.923   9.970 -1.8444  0.9057 -0.7747
  103OSM    H6G10498   0.296   1.985  10.134  0.7357 -0.7442 -0.6850
  103OSM    C7F10499   0.338   2.140   9.984 -0.8905  0.1525  0.1959
  103OSM    H7F10500   0.348   2.213  10.067  0.7429  0.7299 -0.4878
  103OSM    H7G10501   0.274   2.175   9.900 -2.4636 -3.0253  0.0139
  103OSM    C8F10502   0.484   2.100   9.954 -0.4084  0.0950 -0.0005
  103OSM    H8F10503   0.485   2.019   9.879  1.9048  0.2317 -0.1493
  103OSM    H8G10504   0.526   2.052  10.045 -1.8798  0.5577  0.9414
  103OSM    C9F10505   0.566   2.216   9.916  0.0005 -0.0510  0.5330
  103OSM    H9F10506   0.586   2.292   9.993 -4.0423 -1.4768  3.1499
  103OSM   C10F10507   0.596   2.246   9.791 -0.3517 -0.6355 -0.3834
  103OSM   H10F10508   0.645   2.343   9.776  0.7132 -1.1641 -0.3358
  103OSM   C11F10509   0.563   2.174   9.664  0.3840  0.3858 -0.0331
  103OSM   H11F10510   0.557   2.065   9.680 -0.2415  0.2651 -1.0246
  103OSM   H11G10511   0.632   2.196   9.580 -1.8746  2.2668 -1.5047
  103OSM   C12F10512   0.418   2.212   9.619  0.3497 -0.0330 -0.4757
  103OSM   H12F10513   0.426   2.304   9.559  0.3094  1.8624  2.3377
  103OSM   H12G10514   0.364   2.239   9.712  0.4726 -2.7035  0.4176
  103OSM   C13F10515   0.346   2.107   9.533 -0.7151 -0.5263  0.8774
  103OSM   H13F10516   0.314   2.025   9.601 -0.9800 -1.6076 -0.5291
  103OSM   H13G10517   0.247   2.147   9.502  0.1078  0.1421 -0.9219
  103OSM   C14F10518   0.424   2.059   9.411 -0.1395  0.1583  0.0241
  103OSM   H14F10519   0.484   1.969   9.439 -1.0856  0.1267  2.0434
  103OSM   H14G10520   0.491   2.139   9.374  2.5706 -0.9589  2.2719
  103OSM   C15F10521   0.327   2.031   9.304 -0.2906 -0.0641 -0.0934
  103OSM   H15F10522   0.265   2.116   9.268  2.1164  0.8410 -2.2541
  103OSM   H15G10523   0.252   1.960   9.346  1.3553 -0.8190  1.6456
  103OSM   C16F10524   0.392   1.958   9.182  0.1408  0.9031 -0.2804
  103OSM   H16F10525   0.467   1.882   9.215 -1.1259  0.1435  0.8687
  103OSM   H16G10526   0.465   2.028   9.135  0.1646  1.6609  0.8728
  103OSM   C17F10527   0.297   1.910   9.069 -0.8891  0.1667  0.0985
  103OSM   H17F10528   0.233   1.825   9.103  2.5155 -3.0655 -1.2529
  103OSM   H17G10529   0.359   1.880   8.983 -2.3066  0.0471 -0.8990
  103OSM   C18F10530   0.209   2.019   9.020  0.4667  0.3516  0.2253
  103OSM   H18F10531   0.141   1.974   8.945  0.7136  1.4051 -0.6325
  103OSM   H18G10532   0.271   2.101   8.980  1.1672  0.8953  2.3292
  103OSM   H18H10533   0.147   2.054   9.105  0.1508  1.8016 -0.5875
  104OSM      N10534   4.728   1.289  11.084 -0.3542  0.4056 -0.1442
  104OSM    C1510535   4.795   1.241  11.207  0.5760  0.4197  0.5365
  104OSM   H15A10536   4.764   1.140  11.232  2.0359 -0.2394 -0.2606
  104OSM   H15B10537   4.785   1.307  11.291 -0.9876  0.7255  0.1316
  104OSM   H15C10538   4.902   1.240  11.194  0.3586 -1.9172 -1.6664
  104OSM    C1410539   4.579   1.322  11.099 -0.2463 -0.1114 -0.0603
  104OSM   H14A10540   4.542   1.355  11.003 -0.2347  1.0406  0.3317
  104OSM   H14B10541   4.549   1.399  11.168  0.8187 -0.6983  1.0789
  104OSM   H14C10542   4.525   1.232  11.124  0.7038  0.2772  3.7117
  104OSM    C1310543   4.805   1.410  11.039  0.0663  0.3646  0.1506
  104OSM   H13A10544   4.742   1.463  10.969 -1.4921 -1.2894  0.2676
  104OSM   H13B10545   4.899   1.388  10.990 -0.1227 -0.7502  0.2805
  104OSM   H13C10546   4.827   1.482  11.117  4.7916  0.2084 -0.8750
  104OSM    C1210547   4.744   1.185  10.977  0.1673  0.2505 -0.3942
  104OSM   H12A10548   4.696   1.098  11.020  0.0648  0.9539  0.9340
  104OSM   H12B10549   4.847   1.160  10.961 -0.4466 -1.9190 -1.1530
  104OSM    C1110550   4.678   1.206  10.833 -0.1283  0.4815 -0.2254
  104OSM   H11A10551   4.571   1.182  10.845 -0.3849  1.9924  0.6340
  104OSM   H11B10552   4.724   1.124  10.773 -2.0927  1.5192 -3.2678
  104OSM      P10553   4.818   1.371  10.674  0.0962  0.1213  0.0129
  104OSM    O1310554   4.858   1.506  10.713  0.0498 -0.3540 -0.3173
  104OSM    O1410555   4.919   1.262  10.663  0.1677 -0.3456  0.3554
  104OSM    O1110556   4.736   1.380  10.542 -0.4962  0.8714  0.1562
  104OSM    O1210557   4.707   1.330  10.778  0.2396  0.3814  0.3952
  104OSM    C1S10558   4.616   1.461  10.531 -0.6404 -0.0868 -0.1831
  104OSM    H1S10559   4.615   1.548  10.601  0.0510 -0.4144  0.2339
  104OSM    H1T10560   4.529   1.398  10.558 -1.7171  0.2779 -2.5910
  104OSM     NF10561   4.500   1.642  10.397 -0.2800  0.3415 -0.3516
  104OSM    HNF10562   4.409   1.637  10.357 -0.2832  0.0049 -0.3083
  104OSM    C2S10563   4.593   1.528  10.385  0.2861  0.2153 -0.1388
  104OSM    H2S10564   4.692   1.567  10.353  0.5720  0.4397  0.9886
  104OSM    C3S10565   4.550   1.424  10.301  0.0496  0.1947  0.2969
  104OSM    H3S10566   4.451   1.382  10.330 -0.5941  0.3710 -1.5379
  104OSM     O310567   4.632   1.309  10.297 -0.3806 -0.4338 -0.4270
  104OSM    HO310568   4.679   1.325  10.379  0.4641 -1.9386 -0.6142
  104OSM    C4S10569   4.531   1.467  10.160  0.0149  0.2691  0.5111
  104OSM    H4S10570   4.631   1.485  10.117 -0.6131  0.9476 -0.6821
  104OSM    C5S10571   4.421   1.482  10.086 -1.2299  0.5812 -0.8981
  104OSM    H5S10572   4.326   1.460  10.137 -0.3222  0.3603  0.7074
  104OSM    C6S10573   4.407   1.514   9.939 -0.7516  0.4964 -0.4550
  104OSM    H6S10574   4.332   1.595   9.921  0.8955  2.0944 -0.3149
  104OSM    H6T10575   4.368   1.421   9.893 -1.1863  1.1937 -1.5342
  104OSM    C7S10576   4.534   1.559   9.867 -0.0421  0.4067 -0.3846
  104OSM    H7S10577   4.608   1.476   9.871 -0.4660  0.0301 -0.2871
  104OSM    H7T10578   4.582   1.639   9.927 -0.3628 -0.7369  1.4360
  104OSM    C8S10579   4.525   1.601   9.713 -0.4534 -0.3792 -0.6525
  104OSM    H8S10580   4.526   1.513   9.645 -0.2226 -1.2717  0.4870
  104OSM    H8T10581   4.625   1.647   9.697  0.2001 -2.3451 -2.3719
  104OSM    C9S10582   4.419   1.706   9.669  0.0195 -0.0287  0.0486
  104OSM    H9S10583   4.428   1.787   9.746  0.8417  2.5832 -2.6929
  104OSM    H9T10584   4.316   1.664   9.673  0.0843 -0.5357 -3.1860
  104OSM   C10S10585   4.429   1.770   9.527  0.2848  0.4568  0.0642
  104OSM   H10S10586   4.516   1.838   9.534 -0.8922  1.9254  0.6084
  104OSM   H10T10587   4.352   1.850   9.520 -1.1406 -1.0344 -1.9980
  104OSM   C11S10588   4.421   1.676   9.412 -0.3221 -0.0354  1.2437
  104OSM   H11S10589   4.332   1.610   9.422 -0.4480 -0.3065 -1.4154
  104OSM   H11T10590   4.507   1.605   9.418  0.3453  0.7100  0.5531
  104OSM   C12S10591   4.414   1.752   9.276 -0.6907  0.5729 -0.1564
  104OSM   H12S10592   4.505   1.814   9.260 -0.5429  0.1486 -0.9706
  104OSM   H12T10593   4.332   1.826   9.287 -2.4973 -1.5247  0.7671
  104OSM   C13S10594   4.386   1.645   9.162 -0.0117  0.1924 -0.2003
  104OSM   H13S10595   4.284   1.606   9.180 -0.0239 -0.2736 -1.2989
  104OSM   H13T10596   4.458   1.562   9.179 -0.3867  0.4400  2.9980
  104OSM   C14S10597   4.393   1.696   9.018 -0.1086 -0.1727  0.6229
  104OSM   H14S10598   4.496   1.731   8.995  0.3432 -1.9804 -0.1169
  104OSM   H14T10599   4.325   1.779   8.991  0.0457 -0.6892 -1.4248
  104OSM   C15S10600   4.354   1.584   8.922 -0.2797  0.0877  0.8117
  104OSM   H15S10601   4.253   1.552   8.955  0.1236 -0.9327  1.0953
  104OSM   H15T10602   4.426   1.502   8.943 -1.3176 -1.1426 -0.3207
  104OSM   C16S10603   4.361   1.622   8.773 -0.0255  0.3030  0.0706
  104OSM   H16S10604   4.462   1.654   8.741 -0.8597  0.9020 -2.1071
  104OSM   H16T10605   4.290   1.704   8.750 -0.0261  0.0053 -1.0563
  104OSM   C17S10606   4.316   1.500   8.684 -0.6887 -0.2870 -0.2851
  104OSM   H17S10607   4.212   1.479   8.718 -0.5213  0.0532  0.4361
  104OSM   H17T10608   4.388   1.417   8.699  2.3904  1.8908 -2.3166
  104OSM   C18S10609   4.309   1.534   8.537 -0.5004 -0.2136 -0.2128
  104OSM   H18S10610   4.257   1.455   8.480 -3.6304  2.1680 -0.7899
  104OSM   H18T10611   4.414   1.557   8.506  0.1085 -1.0284  1.1945
  104OSM   H18U10612   4.262   1.632   8.513 -2.0102 -1.0893 -0.8467
  104OSM    C1F10613   4.524   1.752  10.454 -0.0795  0.9382  0.5013
  104OSM     OF10614   4.629   1.771  10.519 -0.2116  0.6114 -0.7673
  104OSM    C2F10615   4.409   1.849  10.465 -0.2510  0.0347  0.0809
  104OSM    H2F10616   4.393   1.867  10.574  1.0600 -2.9950  0.8515
  104OSM    H2G10617   4.320   1.799  10.420 -1.7938  3.5930 -0.9750
  104OSM    C3F10618   4.435   1.976  10.395  0.2702 -0.6968 -0.2273
  104OSM    H3F10619   4.534   2.018  10.422  0.8351 -2.1589  0.0019
  104OSM    H3G10620   4.347   2.036  10.427 -0.1669 -0.2406 -2.2205
  104OSM    C4F10621   4.429   1.985  10.240  0.3808 -0.1946  0.3229
  104OSM    H4F10622   4.514   1.937  10.187 -0.5211 -2.6455  1.0110
  104OSM    H4G10623   4.440   2.089  10.202 -0.5272 -1.3887 -3.4996
  104OSM    C5F10624   4.294   1.941  10.177  0.7717  0.0037 -0.2036
  104OSM    H5F10625   4.210   2.007  10.210  1.3923  1.3787 -1.3064
  104OSM    H5G10626   4.264   1.837  10.201 -1.5311  0.1140 -2.4260
  104OSM    C6F10627   4.300   1.937  10.030 -0.1892  0.6486  0.8598
  104OSM    H6F10628   4.243   1.849   9.993 -0.0517 -0.1445  2.4693
  104OSM    H6G10629   4.396   1.909   9.982 -1.5464  0.0458 -1.5957
  104OSM    C7F10630   4.251   2.069   9.976  0.1540  0.1495 -0.1373
  104OSM    H7F10631   4.316   2.154  10.005 -0.2998  1.0060 -1.5562
  104OSM    H7G10632   4.150   2.097  10.013  0.3021  1.1001 -0.4364
  104OSM    C8F10633   4.263   2.083   9.823  0.4234 -0.4150  1.2282
  104OSM    H8F10634   4.206   2.173   9.791 -0.0060 -1.4830 -1.0988
  104OSM    H8G10635   4.215   1.991   9.784 -1.0607  0.5914  0.6455
  104OSM    C9F10636   4.400   2.088   9.768  0.5813  0.2746  0.4727
  104OSM    H9F10637   4.477   2.034   9.824 -1.9924 -0.1872  3.6936
  104OSM   C10F10638   4.443   2.139   9.653 -0.1539 -0.1338  0.4672
  104OSM   H10F10639   4.551   2.144   9.632  0.0355  1.2915  1.6627
  104OSM   C11F10640   4.358   2.206   9.544 -0.5167 -0.1301 -0.3499
  104OSM   H11F10641   4.393   2.311   9.543  2.7108 -1.1432 -2.2681
  104OSM   H11G10642   4.251   2.197   9.573 -0.0412 -2.2935  0.8024
  104OSM   C12F10643   4.376   2.158   9.394 -0.9001 -0.0909 -0.3973
  104OSM   H12F10644   4.340   2.053   9.394 -1.4233  0.0676 -2.5110
  104OSM   H12G10645   4.478   2.171   9.353 -0.8466  0.1379 -0.1968
  104OSM   C13F10646   4.303   2.238   9.296  0.9938 -0.0467 -0.0188
  104OSM   H13F10647   4.365   2.329   9.284 -0.7800  1.0285 -1.2897
  104OSM   H13G10648   4.209   2.287   9.328 -0.2483 -1.5638 -1.2572
  104OSM   C14F10649   4.298   2.179   9.153 -0.8238 -0.0378  0.5141
  104OSM   H14F10650   4.254   2.078   9.165  0.0730 -0.3834  0.8905
  104OSM   H14G10651   4.404   2.152   9.134  0.1878  3.2303  1.1917
  104OSM   C15F10652   4.233   2.268   9.049 -0.5442  0.0085  0.0186
  104OSM   H15F10653   4.160   2.326   9.110  0.1324  2.2794 -1.2965
  104OSM   H15G10654   4.194   2.206   8.966 -0.2173 -0.2076  0.0246
  104OSM   C16F10655   4.336   2.370   9.009 -0.2277 -0.0949  1.1865
  104OSM   H16F10656   4.438   2.335   9.037  1.3543  0.6960 -3.1474
  104OSM   H16G10657   4.311   2.473   9.042 -1.2119  0.1438 -0.2652
  104OSM   C17F10658   4.347   2.375   8.862 -0.5519  0.1525  0.2538
  104OSM   H17F10659   4.415   2.451   8.817  1.2928 -1.7908 -0.2927
  104OSM   H17G10660   4.240   2.399   8.843 -0.4643  0.6131  0.3279
  104OSM   C18F10661   4.376   2.243   8.781  0.6175  0.2744  0.6944
  104OSM   H18F10662   4.442   2.265   8.694 -1.1199 -0.2431 -0.7710
  104OSM   H18G10663   4.280   2.201   8.745  2.6945 -2.5729 -1.8498
  104OSM   H18H10664   4.427   2.169   8.847  1.4484 -0.0272 -0.2681
  105OSM      N10665   3.886   1.200  10.574  0.1285 -0.0118  0.8495
  105OSM    C1510666   3.882   1.223  10.428 -1.0196 -0.0565  0.4148
  105OSM   H15A10667   3.877   1.326  10.399  0.8336 -1.0657 -3.8638
  105OSM   H15B10668   3.793   1.179  10.386 -0.3408 -1.7974  0.7477
  105OSM   H15C10669   3.965   1.175  10.378 -0.3286  0.4199  1.0829
  105OSM    C1410670   3.762   1.254  10.644  0.5201 -0.0389  0.1322
  105OSM   H14A10671   3.744   1.359  10.625 -1.4475 -0.5164 -0.7097
  105OSM   H14B10672   3.763   1.244  10.752  3.9244  1.1907  0.2711
  105OSM   H14C10673   3.675   1.198  10.614  1.4114 -1.8965  0.9236
  105OSM    C1310674   3.901   1.052  10.593  0.3276 -0.3455  0.2934
  105OSM   H13A10675   3.897   1.026  10.698 -2.3160 -1.8216 -0.1309
  105OSM   H13B10676   3.997   1.010  10.567  1.4974  1.1151  2.1244
  105OSM   H13C10677   3.824   0.996  10.542 -0.3584  2.7574 -2.1946
  105OSM    C1210678   4.015   1.266  10.616  0.3326  0.3451  0.5996
  105OSM   H12A10679   4.017   1.367  10.577 -0.1255 -0.6858 -2.2157
  105OSM   H12B10680   4.102   1.230  10.563 -1.1082 -0.9297 -0.9521
  105OSM    C1110681   4.043   1.260  10.764 -0.6840 -0.1717 -0.0391
  105OSM   H11A10682   3.956   1.299  10.820  0.8828  1.9749  0.9691
  105OSM   H11B10683   4.119   1.332  10.801  1.7733 -2.8687  0.3291
  105OSM      P10684   4.221   1.080  10.773 -0.0504  0.5138 -0.3567
  105OSM    O1310685   4.315   1.178  10.834  0.1300  0.4777  0.8617
  105OSM    O1410686   4.241   0.942  10.814  0.0063  0.2726 -0.1254
  105OSM    O1110687   4.242   1.085  10.615 -0.4117 -0.2711  0.0299
  105OSM    O1210688   4.078   1.127  10.801 -0.2609  0.0905 -0.2633
  105OSM    C1S10689   4.377   1.097  10.568  0.9351  0.4990  0.2514
  105OSM    H1S10690   4.451   1.045  10.633  1.6640  2.4441  1.0412
  105OSM    H1T10691   4.412   1.202  10.576  0.0416  0.8279 -0.1254
  105OSM     NF10692   4.543   1.069  10.398 -0.1964 -0.7003  0.2709
  105OSM    HNF10693   4.581   1.146  10.347 -1.0660 -0.6839 -0.3652
  105OSM    C2S10694   4.401   1.055  10.422  0.5022  0.1627 -0.4894
  105OSM    H2S10695   4.371   0.948  10.419  2.0664 -0.3360  0.8655
  105OSM    C3S10696   4.309   1.139  10.333  0.0396  0.5429  0.7591
  105OSM    H3S10697   4.327   1.246  10.360  0.0686  0.7249  0.0096
  105OSM     O310698   4.169   1.111  10.349 -0.2930 -0.5744  0.1473
  105OSM    HO310699   4.169   1.066  10.433 -1.3813 -2.4155 -0.8072
  105OSM    C4S10700   4.348   1.118  10.188  0.2473 -0.2672  0.4795
  105OSM    H4S10701   4.419   1.195  10.156 -0.7660  1.0490  1.3345
  105OSM    C5S10702   4.318   1.020  10.099 -0.4256 -0.4626 -0.2930
  105OSM    H5S10703   4.246   0.944  10.133 -1.4403  1.2381  1.4815
  105OSM    C6S10704   4.379   1.014   9.959 -0.5158 -0.2135  0.3457
  105OSM    H6S10705   4.300   1.048   9.889 -2.8954 -4.1429  0.9394
  105OSM    H6T10706   4.386   0.907   9.930  1.7303  0.3345 -1.3245
  105OSM    C7S10707   4.517   1.081   9.931 -0.0948  0.5241  0.2253
  105OSM    H7S10708   4.588   1.054  10.012  1.2683 -0.4711 -1.2639
  105OSM    H7T10709   4.506   1.191   9.940 -1.1104  0.2484  2.6298
  105OSM    C8S10710   4.571   1.039   9.790 -0.2479 -0.5223  0.9428
  105OSM    H8S10711   4.591   0.930   9.794 -0.7674 -0.5848  2.2388
  105OSM    H8T10712   4.668   1.091   9.778 -0.8333  0.0731 -1.4023
  105OSM    C9S10713   4.477   1.069   9.665 -0.0541  0.0313 -0.8908
  105OSM    H9S10714   4.447   1.175   9.678  0.3388  0.1736 -1.1249
  105OSM    H9T10715   4.391   1.005   9.691  0.0575  0.4468  0.5599
  105OSM   C10S10716   4.529   1.048   9.521  0.3027 -0.4711  0.3410
  105OSM   H10S10717   4.588   0.953   9.525 -0.5116 -1.0407 -0.6662
  105OSM   H10T10718   4.599   1.128   9.490 -1.5998  0.3966 -1.8844
  105OSM   C11S10719   4.414   1.039   9.415  0.2587 -0.5816 -0.7962
  105OSM   H11S10720   4.360   1.135   9.413 -0.0064 -0.7069  0.2309
  105OSM   H11T10721   4.346   0.961   9.455  1.0393 -0.4417  0.8476
  105OSM   C12S10722   4.458   0.989   9.277 -0.5949 -0.6469 -0.1914
  105OSM   H12S10723   4.508   0.890   9.283 -0.3096 -0.4334  1.0462
  105OSM   H12T10724   4.537   1.063   9.250 -2.2509  1.8716  1.7018
  105OSM   C13S10725   4.351   0.993   9.171  0.7092  0.8958  0.1915
  105OSM   H13S10726   4.325   1.101   9.162 -1.4538  0.5736  2.0365
  105OSM   H13T10727   4.253   0.950   9.203 -0.6456  1.4608 -2.9481
  105OSM   C14S10728   4.396   0.947   9.029  0.0938 -0.5267  0.1633
  105OSM   H14S10729   4.429   0.841   9.038 -0.0174 -0.5912 -0.1748
  105OSM   H14T10730   4.485   1.008   9.004 -0.5987  0.0886 -0.8455
  105OSM   C15S10731   4.287   0.967   8.928  0.2271  0.0168  0.6163
  105OSM   H15S10732   4.242   1.065   8.953 -0.7973 -0.0629 -0.8368
  105OSM   H15T10733   4.207   0.890   8.923  2.2043 -2.0548 -0.0198
  105OSM   C16S10734   4.337   0.976   8.788 -0.1089 -0.1251  0.2034
  105OSM   H16S10735   4.420   1.046   8.812  1.3069 -1.1065 -1.7406
  105OSM   H16T10736   4.269   1.031   8.719  0.8286  1.5326  0.5711
  105OSM   C17S10737   4.404   0.851   8.733 -0.4957  0.2175  0.2569
  105OSM   H17S10738   4.329   0.769   8.731  0.6952 -0.9100  0.8684
  105OSM   H17T10739   4.479   0.826   8.811 -0.1334  1.6923  0.4017
  105OSM   C18S10740   4.463   0.873   8.592 -0.4163  0.0520 -0.5556
  105OSM   H18S10741   4.530   0.789   8.565  0.3049  0.6157 -0.5173
  105OSM   H18T10742   4.516   0.969   8.577  0.1500 -0.3274 -1.0080
  105OSM   H18U10743   4.378   0.862   8.521  0.9823 -0.6624 -2.1579
  105OSM    C1F10744   4.639   0.998  10.449 -0.6476  0.8556  0.2558
  105OSM     OF10745   4.618   0.902  10.524 -0.0953 -0.6257  0.3513
  105OSM    C2F10746   4.778   1.034  10.417 -0.2965 -0.3229  1.2398
  105OSM    H2F10747   4.817   1.093  10.503 -1.2928  2.8390 -0.3965
  105OSM    H2G10748   4.793   1.101  10.329 -0.0804 -1.8583  0.0817
  105OSM    C3F10749   4.861   0.911  10.374  0.8028 -0.0371  0.1893
  105OSM    H3F10750   4.870   0.834  10.454  1.0978  0.6162  0.7865
  105OSM    H3G10751   4.957   0.957  10.341 -0.3272  1.8485 -0.5968
  105OSM    C4F10752   4.814   0.831  10.245  0.5884  0.7610  0.7724
  105OSM    H4F10753   4.705   0.815  10.256  0.5022  1.0910  0.4203
  105OSM    H4G10754   4.860   0.731  10.259  3.0801  1.7243 -0.1571
  105OSM    C5F10755   4.861   0.922  10.123  0.1192  0.7947 -0.1693
  105OSM    H5F10756   4.969   0.945  10.130  0.8475 -2.0474 -1.2399
  105OSM    H5G10757   4.804   1.017  10.127  2.3364  2.2054 -1.4624
  105OSM    C6F10758   4.823   0.851   9.992  0.5320  0.3781  0.8668
  105OSM    H6F10759   4.830   0.924   9.909 -0.2297  4.2927  4.1095
  105OSM    H6G10760   4.717   0.818   9.990 -0.2205  2.7860 -1.3255
  105OSM    C7F10761   4.910   0.726   9.976  0.0500 -0.0534  0.2655
  105OSM    H7F10762   4.918   0.660  10.065 -0.5815 -2.5841 -1.5110
  105OSM    H7G10763   5.008   0.775   9.954 -1.3641  2.8199  0.0736
  105OSM    C8F10764   4.848   0.632   9.862  0.1755 -0.5093 -0.0975
  105OSM    H8F10765   4.838   0.695   9.771 -0.0382  0.3328  0.5008
  105OSM    H8G10766   4.751   0.594   9.900  0.7300 -1.5627  0.2808
  105OSM    C9F10767   4.947   0.522   9.825 -0.1376  0.3943 -0.5649
  105OSM    H9F10768   4.964   0.447   9.904 -0.1045 -0.4187 -1.3423
  105OSM   C10F10769   4.999   0.504   9.696 -0.4293 -0.8466  0.1423
  105OSM   H10F10770   5.087   0.439   9.689  0.2739 -0.3595  3.4778
  105OSM   C11F10771   4.976   0.583   9.568 -0.1632  0.2161 -0.2037
  105OSM   H11F10772   5.057   0.659   9.558  0.9945 -1.0563 -0.6688
  105OSM   H11G10773   4.880   0.635   9.590 -0.0739 -0.1349  1.0631
  105OSM   C12F10774   4.971   0.494   9.440  0.0429 -0.6240  0.3071
  105OSM   H12F10775   4.877   0.438   9.453 -1.0610  1.4473  1.4758
  105OSM   H12G10776   5.060   0.427   9.436  0.7469  0.3185 -0.2551
  105OSM   C13F10777   4.971   0.593   9.322 -0.0966 -0.6782  0.5969
  105OSM   H13F10778   5.077   0.614   9.299 -0.2126  0.1201  0.7686
  105OSM   H13G10779   4.924   0.689   9.352 -0.1489 -1.0144  1.6028
  105OSM   C14F10780   4.895   0.540   9.198 -0.0834 -0.0565  0.3069
  105OSM   H14F10781   4.904   0.624   9.125 -1.3074  0.1448  0.3672
  105OSM   H14G10782   4.787   0.516   9.215 -0.1669 -1.1019 -1.5166
  105OSM   C15F10783   4.961   0.410   9.135  0.0294 -1.0284 -0.2163
  105OSM   H15F10784   4.895   0.374   9.053 -3.3053 -1.1092  2.3646
  105OSM   H15G10785   4.975   0.327   9.207 -0.8418 -0.4983  0.5927
  105OSM   C16F10786   5.101   0.431   9.076 -0.2677 -0.0507  0.6953
  105OSM   H16F10787   5.135   0.326   9.061  0.8388  0.5111 -0.7790
  105OSM   H16G10788   5.170   0.493   9.137  0.4470  0.2676 -0.4188
  105OSM   C17F10789   5.099   0.489   8.931 -0.0364 -0.1569  0.5741
  105OSM   H17F10790   5.103   0.599   8.946 -0.0135 -0.0848  0.0577
  105OSM   H17G10791   5.003   0.474   8.877  0.0186 -0.2804  0.5090
  105OSM   C18F10792   5.219   0.445   8.852  0.2837  0.1502  0.1559
  105OSM   H18F10793   5.220   0.495   8.752 -0.5682  1.9619  1.0383
  105OSM   H18G10794   5.208   0.339   8.822  0.1605 -0.2782  1.6722
  105OSM   H18H10795   5.320   0.462   8.896  0.2687  3.2488 -0.8381
  106OSM      N10796   5.345   6.242  10.768 -0.1668  0.6365 -0.2739
  106OSM    C1510797   5.391   6.377  10.822  0.0682  0.3659  0.0106
  106OSM   H15A10798   5.360   6.387  10.926  1.3819  2.2616  0.2483
  106OSM   H15B10799   5.359   6.464  10.766  1.7083  0.7730 -0.3218
  106OSM   H15C10800   5.498   6.375  10.812  0.1592 -0.0410  0.9531
  106OSM    C1410801   5.200   6.270  10.727  0.6548 -1.2613 -0.0067
  106OSM   H14A10802   5.148   6.313  10.811  2.2546  0.1860  0.2636
  106OSM   H14B10803   5.140   6.184  10.699 -3.0413  0.7833  1.3325
  106OSM   H14C10804   5.189   6.327  10.636 -2.2480 -0.0840  1.0417
  106OSM    C1310805   5.427   6.207  10.653  0.3584 -0.1187  0.7569
  106OSM   H13A10806   5.391   6.112  10.616 -0.3830  0.7126 -0.7104
  106OSM   H13B10807   5.532   6.195  10.676  0.6542  1.7373  0.4291
  106OSM   H13C10808   5.424   6.286  10.580 -0.6469 -0.0669  0.8418
  106OSM    C1210809   5.356   6.127  10.869  0.0656 -0.2562 -0.1874
  106OSM   H12A10810   5.304   6.154  10.960  1.5565  1.4831  0.1646
  106OSM   H12B10811   5.460   6.111  10.892 -0.1065 -2.0373 -0.5441
  106OSM    C1110812   5.298   5.989  10.817  0.1096  0.6531 -0.8652
  106OSM   H11A10813   5.193   6.014  10.788 -0.8621 -0.5039  1.4936
  106OSM   H11B10814   5.298   5.928  10.909  0.6445  2.2449  0.2066
  106OSM      P10815   5.466   5.806  10.736  0.0100 -0.3039  0.1600
  106OSM    O1310816   5.582   5.851  10.807 -0.8355 -0.0070  0.4427
  106OSM    O1410817   5.380   5.712  10.805  0.0218 -0.2526 -0.2930
  106OSM    O1110818   5.512   5.750  10.597 -0.2214  0.2726  0.4368
  106OSM    O1210819   5.373   5.925  10.700  0.5118 -0.4720 -0.3206
  106OSM    C1S10820   5.505   5.820  10.478 -0.7022 -0.3156  0.1295
  106OSM    H1S10821   5.569   5.909  10.495  0.9548 -1.7478  1.6129
  106OSM    H1T10822   5.403   5.852  10.448 -0.2884 -0.0536 -1.0238
  106OSM     NF10823   5.550   5.824  10.238  0.0324  0.2912  0.6749
  106OSM    HNF10824   5.474   5.809  10.175  0.8383  1.3935 -0.5808
  106OSM    C2S10825   5.565   5.742  10.357 -0.0501  0.1844  0.1470
  106OSM    H2S10826   5.674   5.730  10.375 -0.1610  1.3286  1.6830
  106OSM    C3S10827   5.510   5.601  10.332  0.3108  0.1265 -0.2626
  106OSM    H3S10828   5.400   5.613  10.334  0.2209 -0.7185  0.0703
  106OSM     O310829   5.543   5.509  10.440 -0.0310  0.0215 -0.7866
  106OSM    HO310830   5.581   5.568  10.506 -0.2519 -1.4048  0.6626
  106OSM    C4S10831   5.568   5.538  10.206 -0.6970  0.2091  0.7539
  106OSM    H4S10832   5.678   5.540  10.198 -0.6514 -4.0643 -0.7556
  106OSM    C5S10833   5.501   5.486  10.107 -1.2610 -0.5224  0.2596
  106OSM    H5S10834   5.391   5.484  10.106 -1.2471 -1.4590 -0.2477
  106OSM    C6S10835   5.564   5.422   9.984  0.2315 -0.8294  0.3483
  106OSM    H6S10836   5.546   5.313   9.972  0.0695 -0.9362  1.4743
  106OSM    H6T10837   5.675   5.432   9.985  0.4401 -2.5482 -1.7871
  106OSM    C7S10838   5.513   5.507   9.864  0.5797 -0.4811 -0.1503
  106OSM    H7S10839   5.527   5.617   9.875  1.6254 -0.5094 -1.2037
  106OSM    H7T10840   5.405   5.487   9.846  1.2002  0.3493 -5.6149
  106OSM    C8S10841   5.581   5.458   9.738  0.1179  0.7824 -0.1751
  106OSM    H8S10842   5.587   5.347   9.739 -1.5274  0.6765  1.9098
  106OSM    H8T10843   5.688   5.485   9.748  0.6158 -0.3794 -2.1457
  106OSM    C9S10844   5.515   5.519   9.617 -0.4429  0.3437 -0.0777
  106OSM    H9S10845   5.489   5.625   9.640  1.5780  1.3722 -2.3588
  106OSM    H9T10846   5.420   5.462   9.607 -0.3844  0.2260  0.0342
  106OSM   C10S10847   5.594   5.493   9.492  0.5947 -0.3032 -0.0499
  106OSM   H10S10848   5.638   5.391   9.488  1.2584 -0.1385  2.1989
  106OSM   H10T10849   5.682   5.560   9.501  0.4585 -0.2421  0.9630
  106OSM   C11S10850   5.519   5.518   9.366 -0.1832  0.3017 -0.6868
  106OSM   H11S10851   5.486   5.624   9.364  1.0820  0.7047 -0.3339
  106OSM   H11T10852   5.420   5.468   9.374 -0.0982  0.3964  1.2311
  106OSM   C12S10853   5.589   5.451   9.247  0.3228 -0.2267 -0.5405
  106OSM   H12S10854   5.579   5.341   9.258 -1.8569  0.2461  3.1613
  106OSM   H12T10855   5.693   5.489   9.248 -0.3052  1.6212 -2.0361
  106OSM   C13S10856   5.522   5.494   9.110 -0.3111  0.4063  0.4006
  106OSM   H13S10857   5.497   5.602   9.120 -0.4553  0.4734 -0.7101
  106OSM   H13T10858   5.435   5.426   9.100  1.1565 -1.2469 -1.5342
  106OSM   C14S10859   5.621   5.481   8.992 -0.1246  0.1020  0.7503
  106OSM   H14S10860   5.627   5.372   8.969  0.1921  0.4474 -0.9074
  106OSM   H14T10861   5.720   5.518   9.025  0.6285 -2.9388  2.0785
  106OSM   C15S10862   5.577   5.550   8.864 -1.2753  0.0399  0.5519
  106OSM   H15S10863   5.590   5.660   8.875 -0.2716  0.2686 -2.5080
  106OSM   H15T10864   5.470   5.524   8.848 -1.6832  1.6054  0.5931
  106OSM   C16S10865   5.663   5.501   8.745 -0.1409  0.4421 -0.4264
  106OSM   H16S10866   5.633   5.395   8.731 -1.7426  0.6442  1.3186
  106OSM   H16T10867   5.768   5.503   8.784 -0.3777 -1.8812  0.3882
  106OSM   C17S10868   5.635   5.576   8.622 -0.0360  0.5576  0.1851
  106OSM   H17S10869   5.731   5.574   8.566  0.8449  1.5261  1.6136
  106OSM   H17T10870   5.628   5.684   8.646  1.5255  0.5520  0.7174
  106OSM   C18S10871   5.518   5.527   8.532  0.3360 -0.1007 -0.8495
  106OSM   H18S10872   5.532   5.421   8.504  0.5510 -0.2873 -0.0447
  106OSM   H18T10873   5.508   5.591   8.442 -1.7858  1.2073  0.2834
  106OSM   H18U10874   5.426   5.549   8.591  0.4179 -1.3470 -0.2396
  106OSM    C1F10875   5.602   5.944  10.222  0.2384  0.6252 -0.3764
  106OSM     OF10876   5.690   5.995  10.298 -0.3179  0.3296  0.0167
  106OSM    C2F10877   5.567   6.018  10.095  0.0323 -0.0818  0.2022
  106OSM    H2F10878   5.655   6.081  10.069 -0.7844  0.2393 -1.8712
  106OSM    H2G10879   5.472   6.074  10.109  0.0591 -0.2403  1.0582
  106OSM    C3F10880   5.558   5.931   9.970  0.7834  0.4256  0.4473
  106OSM    H3F10881   5.479   5.856   9.989 -0.6632  1.3538 -1.6646
  106OSM    H3G10882   5.651   5.872   9.955 -0.0006 -0.2275 -2.3088
  106OSM    C4F10883   5.518   6.002   9.845 -0.2924 -0.4741 -0.0954
  106OSM    H4F10884   5.582   6.089   9.819 -0.1257  0.0727  2.0583
  106OSM    H4G10885   5.419   6.048   9.867 -0.3785 -0.4998 -0.4270
  106OSM    C5F10886   5.511   5.915   9.727  0.0834  0.7850 -0.4372
  106OSM    H5F10887   5.437   5.834   9.746  2.0864 -0.8591  0.5748
  106OSM    H5G10888   5.606   5.857   9.723 -1.3122 -1.6122  0.2405
  106OSM    C6F10889   5.476   5.987   9.590  0.1466  0.4793 -0.0008
  106OSM    H6F10890   5.553   6.067   9.586  0.1180  0.5674  1.0263
  106OSM    H6G10891   5.376   6.034   9.592 -0.1551 -0.1869  1.6018
  106OSM    C7F10892   5.464   5.897   9.466 -0.6017 -0.3987  0.9619
  106OSM    H7F10893   5.388   5.819   9.490 -0.5974 -0.3417  1.1616
  106OSM    H7G10894   5.559   5.852   9.432  1.2712  4.2166 -0.3146
  106OSM    C8F10895   5.419   5.983   9.349  0.2314  0.1217 -0.3903
  106OSM    H8F10896   5.499   6.061   9.342  0.6921 -0.3795 -0.7173
  106OSM    H8G10897   5.325   6.039   9.370  0.0502  0.2882 -1.6283
  106OSM    C9F10898   5.429   5.907   9.222 -0.5807  0.2526  0.7800
  106OSM    H9F10899   5.471   5.807   9.235 -1.0769  0.1787  1.8380
  106OSM   C10F10900   5.415   5.959   9.098 -0.1735  0.6026 -0.0825
  106OSM   H10F10901   5.450   5.899   9.012 -1.1321 -0.1187  0.0269
  106OSM   C11F10902   5.373   6.097   9.061  0.2973  0.2476  0.0281
  106OSM   H11F10903   5.398   6.163   9.147  0.0937  0.2017  0.1224
  106OSM   H11G10904   5.262   6.101   9.055  0.1569  0.1765  2.1157
  106OSM   C12F10905   5.444   6.143   8.936  0.2035 -0.1722 -0.3898
  106OSM   H12F10906   5.426   6.088   8.841 -0.7711  2.7065 -1.9313
  106OSM   H12G10907   5.555   6.140   8.944  0.1393  1.4158  1.5756
  106OSM   C13F10908   5.401   6.283   8.889 -0.0721  0.3190 -0.5585
  106OSM   H13F10909   5.457   6.347   8.961  0.6344 -0.6413 -0.2564
  106OSM   H13G10910   5.295   6.309   8.906 -0.0851 -0.5268  0.7343
  106OSM   C14F10911   5.445   6.324   8.741 -0.2123  0.4208  0.1754
  106OSM   H14F10912   5.383   6.265   8.670 -0.0898  0.9064 -0.3397
  106OSM   H14G10913   5.547   6.282   8.730 -0.8279 -1.0304 -0.0762
  106OSM   C15F10914   5.430   6.476   8.724  1.0994  0.3856 -0.2171
  106OSM   H15F10915   5.495   6.539   8.789 -1.6749  0.0121  3.0811
  106OSM   H15G10916   5.326   6.511   8.741  0.4045 -1.0206 -1.4843
  106OSM   C16F10917   5.473   6.512   8.581  0.5821  0.1587 -0.5238
  106OSM   H16F10918   5.401   6.471   8.506 -0.0932 -0.8396  0.6570
  106OSM   H16G10919   5.564   6.455   8.552 -0.6957 -2.4607  0.5203
  106OSM   C17F10920   5.497   6.663   8.559  0.0996  0.4062  0.6839
  106OSM   H17F10921   5.504   6.687   8.451 -0.6599  3.1354  1.2024
  106OSM   H17G10922   5.589   6.687   8.616 -0.4806 -2.5141  2.9715
  106OSM   C18F10923   5.393   6.756   8.619  0.4641  0.1411  0.8154
  106OSM   H18F10924   5.422   6.863   8.619 -1.1517  0.6090 -0.4789
  106OSM   H18G10925   5.379   6.728   8.725 -0.2419 -1.5022  0.3040
  106OSM   H18H10926   5.299   6.729   8.566  1.2673 -2.5203  0.6597
  107OSM      N10927   6.449   4.159  10.917  0.0439  0.3676 -0.0153
  107OSM    C1510928   6.348   4.221  11.007 -0.2595 -0.4755 -0.3015
  107OSM   H15A10929   6.287   4.138  11.038 -2.1836  1.1973  0.5794
  107OSM   H15B10930   6.294   4.297  10.951 -1.1232 -0.9018 -0.0487
  107OSM   H15C10931   6.390   4.266  11.095 -1.5352 -1.3209  0.7542
  107OSM    C1410932   6.540   4.263  10.852 -0.0065 -0.2044  0.0165
  107OSM   H14A10933   6.577   4.335  10.924 -0.6006  0.0426  0.0721
  107OSM   H14B10934   6.488   4.314  10.773  0.5610  0.5283  0.1084
  107OSM   H14C10935   6.631   4.226  10.806 -0.3391 -1.8489  0.6453
  107OSM    C1310936   6.534   4.065  10.999  0.2974  0.1053  0.5090
  107OSM   H13A10937   6.638   4.068  10.970  0.1060 -0.2276 -0.2254
  107OSM   H13B10938   6.489   3.967  11.006 -0.3906  0.4691  1.3654
  107OSM   H13C10939   6.528   4.102  11.100 -2.0957 -0.2209  0.5174
  107OSM    C1210940   6.381   4.075  10.812 -0.9538  0.1697  0.0075
  107OSM   H12A10941   6.450   4.019  10.751 -2.1115 -1.3728  0.0856
  107OSM   H12B10942   6.330   4.140  10.742  0.7519  1.2179 -0.2882
  107OSM    C1110943   6.265   3.974  10.854  0.0330  0.7682  0.4329
  107OSM   H11A10944   6.237   3.933  10.754 -1.1942  0.9567  0.6882
  107OSM   H11B10945   6.182   4.041  10.887  0.8471  2.8733 -1.5852
  107OSM      P10946   6.370   3.741  10.906  0.8864  0.3062 -0.3697
  107OSM    O1310947   6.516   3.755  10.937  0.1323 -0.2101  0.1504
  107OSM    O1410948   6.299   3.620  10.954  0.2369  0.2997  0.5722
  107OSM    O1110949   6.358   3.734  10.751  0.4653 -0.1930  0.6490
  107OSM    O1210950   6.297   3.871  10.951 -0.0861 -0.5424  0.3223
  107OSM    C1S10951   6.379   3.609  10.682  1.0928 -0.6689 -0.4079
  107OSM    H1S10952   6.291   3.544  10.702 -2.7164  3.6812 -2.2554
  107OSM    H1T10953   6.470   3.561  10.725  0.3772 -0.4335  1.3787
  107OSM     NF10954   6.401   3.500  10.472  0.2010  0.2490 -0.3585
  107OSM    HNF10955   6.481   3.440  10.478  0.7043  0.5760 -3.1077
  107OSM    C2S10956   6.400   3.632  10.529 -0.0657  0.0987  0.1155
  107OSM    H2S10957   6.314   3.687  10.484 -0.8110  0.8519  2.3880
  107OSM    C3S10958   6.529   3.719  10.501  0.6136 -0.8069  0.4043
  107OSM    H3S10959   6.621   3.660  10.522  0.6539 -0.2423  1.8236
  107OSM     O310960   6.534   3.840  10.575 -0.0565 -0.3578 -0.1748
  107OSM    HO310961   6.474   3.828  10.649 -1.5012  3.4593 -0.6231
  107OSM    C4S10962   6.543   3.747  10.354  0.0232 -0.2876  0.1849
  107OSM    H4S10963   6.606   3.670  10.306 -0.8694  0.8499 -2.9736
  107OSM    C5S10964   6.481   3.840  10.274  0.5394 -0.0571 -0.1435
  107OSM    H5S10965   6.420   3.917  10.323 -0.3648 -0.6352 -0.3404
  107OSM    C6S10966   6.516   3.864  10.128  0.3018  0.0729  0.1292
  107OSM    H6S10967   6.583   3.952  10.119  0.5593 -0.2575 -1.2518
  107OSM    H6T10968   6.419   3.895  10.083 -0.9340  1.0940  3.3657
  107OSM    C7S10969   6.581   3.745  10.054 -0.4070 -0.0550 -0.2325
  107OSM    H7S10970   6.509   3.660  10.060  0.1455 -0.5062  0.0973
  107OSM    H7T10971   6.672   3.714  10.109 -1.6853  0.4071  2.2219
  107OSM    C8S10972   6.596   3.777   9.904  0.1119  0.4631  0.1820
  107OSM    H8S10973   6.509   3.839   9.873  0.2181  0.0217 -1.0283
  107OSM    H8T10974   6.603   3.687   9.840  0.5176  0.0960  0.7349
  107OSM    C9S10975   6.735   3.849   9.876  0.1023 -0.4647 -0.3380
  107OSM    H9S10976   6.822   3.784   9.900  0.6938  0.3157 -0.3764
  107OSM    H9T10977   6.733   3.938   9.943  0.1556 -0.9387  0.3055
  107OSM   C10S10978   6.738   3.874   9.728 -0.5621  0.3102  0.4969
  107OSM   H10S10979   6.649   3.917   9.676  0.8704 -0.3157 -2.6205
  107OSM   H10T10980   6.767   3.781   9.674  2.8472  1.4869  0.2264
  107OSM   C11S10981   6.855   3.973   9.697 -0.0292 -0.1424  0.5620
  107OSM   H11S10982   6.953   3.925   9.719 -0.1401 -0.8550 -0.4503
  107OSM   H11T10983   6.846   4.069   9.752  2.3207  0.6271 -0.3183
  107OSM   C12S10984   6.861   4.033   9.557 -0.1478 -0.1931  0.6205
  107OSM   H12S10985   6.762   4.072   9.525 -0.4299 -1.5688 -0.2708
  107OSM   H12T10986   6.887   3.958   9.479 -0.0100  0.6075 -0.1215
  107OSM   C13S10987   6.959   4.150   9.552  0.1750 -0.2703 -0.1836
  107OSM   H13S10988   7.049   4.121   9.610  0.3402  2.3808  1.0103
  107OSM   H13T10989   6.922   4.243   9.602  2.5582  1.1138 -0.9227
  107OSM   C14S10990   6.991   4.189   9.407 -0.5052  0.3478  0.5191
  107OSM   H14S10991   7.010   4.104   9.337 -3.4781  0.3063 -0.3410
  107OSM   H14T10992   7.085   4.247   9.393  0.1796 -1.3096 -2.2876
  107OSM   C15S10993   6.870   4.266   9.340 -0.4926  0.2245 -0.1783
  107OSM   H15S10994   6.845   4.349   9.410 -1.8778 -0.8682  0.6526
  107OSM   H15T10995   6.783   4.197   9.340 -1.4624  1.4259  0.4827
  107OSM   C16S10996   6.902   4.313   9.195  0.3632 -0.0239 -0.1775
  107OSM   H16S10997   6.944   4.224   9.144  0.4898  0.1206 -0.3268
  107OSM   H16T10998   6.969   4.401   9.205 -0.2127  0.4831 -0.7255
  107OSM   C17S10999   6.783   4.359   9.113 -0.3433 -0.1642  0.1330
  107OSM   H17S11000   6.727   4.441   9.162  0.3113  0.7005 -0.5431
  107OSM   H17T11001   6.723   4.266   9.104 -0.0167 -0.4042  0.4236
  107OSM   C18S11002   6.828   4.396   8.967 -0.5282  1.0050  0.8977
  107OSM   H18S11003   6.912   4.468   8.964  0.3459 -0.0695 -1.1019
  107OSM   H18T11004   6.743   4.428   8.904 -1.1819  2.9470  2.7040
  107OSM   H18U11005   6.882   4.310   8.921  0.0943  1.0320  1.5576
  107OSM    C1F11006   6.292   3.433  10.438  0.7032 -0.6875 -0.1246
  107OSM     OF11007   6.174   3.467  10.458  0.1900 -0.3563 -0.0360
  107OSM    C2F11008   6.316   3.312  10.356 -0.1194  0.3828  0.2430
  107OSM    H2F11009   6.370   3.233  10.412 -0.7382 -0.2407 -0.0212
  107OSM    H2G11010   6.372   3.349  10.268  0.5507  0.0902  0.5429
  107OSM    C3F11011   6.185   3.248  10.303  0.3390  0.7078 -0.3038
  107OSM    H3F11012   6.127   3.329  10.253  2.0445  2.4984  0.5340
  107OSM    H3G11013   6.119   3.214  10.386  0.9173  1.9255  0.6738
  107OSM    C4F11014   6.198   3.145  10.192 -0.1370  0.8786  0.2264
  107OSM    H4F11015   6.259   3.188  10.110  0.0578 -0.4378 -0.3356
  107OSM    H4G11016   6.099   3.116  10.150 -0.9575  0.6071  2.2711
  107OSM    C5F11017   6.275   3.021  10.242  0.1977 -0.1851 -0.5703
  107OSM    H5F11018   6.217   2.973  10.324 -0.8707  1.4926 -0.3143
  107OSM    H5G11019   6.374   3.044  10.286  0.5756 -0.4880 -1.2541
  107OSM    C6F11020   6.301   2.918  10.132 -0.2455  0.0081 -0.3262
  107OSM    H6F11021   6.205   2.906  10.078  0.3275 -0.9567 -1.1409
  107OSM    H6G11022   6.330   2.823  10.180 -0.2888 -0.5709 -1.4229
  107OSM    C7F11023   6.411   2.952  10.037  0.1693 -0.0596 -0.8603
  107OSM    H7F11024   6.508   2.964  10.090 -0.6711 -0.6508  0.8562
  107OSM    H7G11025   6.387   3.055  10.002  1.2739  1.2320  1.9655
  107OSM    C8F11026   6.425   2.847   9.924  0.7197  0.7729 -0.3530
  107OSM    H8F11027   6.329   2.850   9.867  0.6507  0.0357 -0.2820
  107OSM    H8G11028   6.449   2.756   9.982  1.1127  1.1861  0.1331
  107OSM    C9F11029   6.538   2.882   9.829  0.5656  0.1691 -0.4688
  107OSM    H9F11030   6.595   2.972   9.858 -1.9009  1.2144  1.2422
  107OSM   C10F11031   6.584   2.811   9.722  1.0640 -0.0752 -0.2325
  107OSM   H10F11032   6.670   2.854   9.670  1.1187  1.0454  0.7557
  107OSM   C11F11033   6.512   2.688   9.672  0.1602  0.3170  0.6446
  107OSM   H11F11034   6.428   2.650   9.734  0.9936  1.6390  2.6009
  107OSM   H11G11035   6.591   2.610   9.669 -0.3215 -0.2771  2.9641
  107OSM   C12F11036   6.448   2.714   9.531 -0.4749 -0.3319  0.4908
  107OSM   H12F11037   6.373   2.796   9.542  0.0839  0.2574 -0.0195
  107OSM   H12G11038   6.395   2.621   9.501 -1.5038 -0.0991  1.5608
  107OSM   C13F11039   6.552   2.762   9.422  1.3101 -0.2808  0.1665
  107OSM   H13F11040   6.621   2.676   9.424  1.8305  0.1745  3.8009
  107OSM   H13G11041   6.607   2.852   9.455 -1.1569  1.4081 -0.1127
  107OSM   C14F11042   6.500   2.773   9.280  0.0158  0.0941  0.3227
  107OSM   H14F11043   6.419   2.849   9.289  0.1467  0.1755  0.8475
  107OSM   H14G11044   6.439   2.688   9.243 -1.5223  2.2768 -2.2969
  107OSM   C15F11045   6.599   2.823   9.184 -0.1268  0.2420 -0.0375
  107OSM   H15F11046   6.683   2.751   9.191 -1.3026 -1.1073  0.6092
  107OSM   H15G11047   6.634   2.925   9.212  0.9681 -0.5642  1.6427
  107OSM   C16F11048   6.536   2.807   9.042  0.2673 -0.6591 -0.3068
  107OSM   H16F11049   6.434   2.850   9.035  0.4732 -0.0003  0.6930
  107OSM   H16G11050   6.525   2.699   9.021  0.7180 -0.9549  0.9233
  107OSM   C17F11051   6.622   2.878   8.932 -0.4923  0.1748 -0.5082
  107OSM   H17F11052   6.593   2.848   8.829 -0.4892  2.2961 -1.1365
  107OSM   H17G11053   6.727   2.846   8.951 -0.0826  1.4158 -0.6372
  107OSM   C18F11054   6.616   3.035   8.949  0.7892 -0.8895 -0.1706
  107OSM   H18F11055   6.653   3.068   9.048 -1.5055 -2.3175  1.1994
  107OSM   H18G11056   6.513   3.075   8.950 -0.5183 -4.0368 -1.9675
  107OSM   H18H11057   6.680   3.081   8.871 -0.3655 -0.3600 -0.8227
  108OSM      N11058   3.041   6.775  11.072  0.3483 -0.3719 -0.9897
  108OSM    C1511059   3.122   6.659  11.122 -0.6640  0.9844  0.1042
  108OSM   H15A11060   3.126   6.660  11.230 -0.1126  1.1118  0.0833
  108OSM   H15B11061   3.220   6.667  11.076 -0.3683  0.0743  0.5461
  108OSM   H15C11062   3.076   6.564  11.097 -1.7925  0.8701  2.5275
  108OSM    C1411063   3.013   6.759  10.924  0.1219 -0.0025  0.2645
  108OSM   H14A11064   3.106   6.736  10.872 -1.0773  1.5449 -2.7077
  108OSM   H14B11065   2.976   6.852  10.885 -0.6270 -0.6983 -0.7165
  108OSM   H14C11066   2.949   6.673  10.907 -0.6441  0.6370 -0.1380
  108OSM    C1311067   2.908   6.762  11.136 -0.1481  0.3574  0.1383
  108OSM   H13A11068   2.909   6.780  11.243  1.2719 -0.3858  0.2645
  108OSM   H13B11069   2.858   6.670  11.110  0.1974 -0.0965  1.0543
  108OSM   H13C11070   2.840   6.833  11.091  2.0834  1.9357 -0.8149
  108OSM    C1211071   3.106   6.906  11.105 -0.4955 -0.6021  0.3191
  108OSM   H12A11072   3.195   6.922  11.046 -0.1575  1.4299  1.3415
  108OSM   H12B11073   3.123   6.904  11.211 -5.1009 -0.4177  1.1759
  108OSM    C1111074   3.020   7.030  11.071  0.3830 -0.4255  0.0970
  108OSM   H11A11075   2.923   7.019  11.124  1.2661  0.0412  1.8289
  108OSM   H11B11076   3.006   7.034  10.961  0.7083 -1.2559  0.0257
  108OSM      P11077   3.184   7.229  11.040 -0.1169 -0.0353 -0.0439
  108OSM    O1311078   3.175   7.361  11.104 -0.4072 -0.1197 -0.5550
  108OSM    O1411079   3.312   7.160  11.034 -0.4743 -0.6851  0.5335
  108OSM    O1111080   3.105   7.241  10.901  0.0813  0.5414  0.1183
  108OSM    O1211081   3.085   7.142  11.122 -0.3847 -0.2981  0.0186
  108OSM    C1S11082   3.147   7.335  10.805 -0.3425  0.4479  0.1363
  108OSM    H1S11083   3.256   7.324  10.783 -0.1729  1.7276  0.2893
  108OSM    H1T11084   3.128   7.441  10.832  0.1419  0.4559  0.4511
  108OSM     NF11085   3.104   7.428  10.577 -0.8018 -0.5111 -0.5601
  108OSM    HNF11086   3.026   7.491  10.576 -1.8957 -1.8265 -0.3851
  108OSM    C2S11087   3.080   7.315  10.665  0.2231 -0.4025  0.5222
  108OSM    H2S11088   3.126   7.221  10.629  2.5112  1.2944 -1.0923
  108OSM    C3S11089   2.930   7.287  10.670 -0.3914  0.6761 -0.0949
  108OSM    H3S11090   2.874   7.377  10.704  1.1964  1.5376  0.2556
  108OSM     O311091   2.895   7.179  10.757  0.4264 -0.1374  0.2576
  108OSM    HO311092   2.963   7.190  10.825  0.0370 -2.9719  1.1745
  108OSM    C4S11093   2.880   7.267  10.532  0.1383 -0.0619 -0.0897
  108OSM    H4S11094   2.821   7.352  10.494  1.7584  0.5806 -1.2233
  108OSM    C5S11095   2.898   7.160  10.450  0.3574  0.5275  0.3024
  108OSM    H5S11096   2.955   7.075  10.489 -1.7059 -1.2214 -0.4467
  108OSM    C6S11097   2.829   7.143  10.312 -0.2850 -0.6172  0.0675
  108OSM    H6S11098   2.719   7.151  10.321 -0.1042  2.9215 -0.0264
  108OSM    H6T11099   2.838   7.040  10.270 -0.5477 -0.2655 -0.8753
  108OSM    C7S11100   2.887   7.238  10.209 -0.3392 -0.5395  0.4350
  108OSM    H7S11101   2.989   7.199  10.193  0.4947  0.4466  3.0047
  108OSM    H7T11102   2.888   7.341  10.253 -1.4193  0.4849 -1.8693
  108OSM    C8S11103   2.808   7.243  10.073 -0.1491  0.0140  0.1800
  108OSM    H8S11104   2.699   7.258  10.086 -0.2164  0.2838 -0.6916
  108OSM    H8T11105   2.829   7.150  10.016  0.5704  0.0890  0.3224
  108OSM    C9S11106   2.870   7.350   9.986  0.7148 -0.3969  0.4543
  108OSM    H9S11107   2.968   7.306   9.960  0.7978 -0.6078  1.1206
  108OSM    H9T11108   2.894   7.440  10.045 -3.0315  0.0213  1.4985
  108OSM   C10S11109   2.785   7.391   9.855 -0.7816  0.4923  0.2161
  108OSM   H10S11110   2.834   7.488   9.831 -1.0036  0.8234  1.0758
  108OSM   H10T11111   2.678   7.407   9.879 -0.8719  1.0765 -0.5706
  108OSM   C11S11112   2.800   7.309   9.730 -0.4089  0.5787  0.4009
  108OSM   H11S11113   2.760   7.209   9.756  3.7512 -1.0928  0.7408
  108OSM   H11T11114   2.905   7.293   9.698 -0.3168 -0.7557  1.3614
  108OSM   C12S11115   2.721   7.377   9.616 -0.7662  0.7704  0.2447
  108OSM   H12S11116   2.765   7.475   9.587  1.9217 -0.8316 -1.2377
  108OSM   H12T11117   2.622   7.399   9.661 -1.8267 -2.7496 -0.2123
  108OSM   C13S11118   2.720   7.286   9.496 -0.2707  0.1139 -0.3857
  108OSM   H13S11119   2.659   7.197   9.524  0.6705 -0.1984  0.6944
  108OSM   H13T11120   2.822   7.264   9.459 -0.4153 -0.1521 -0.6285
  108OSM   C14S11121   2.650   7.354   9.374  0.5677 -0.0368  0.9820
  108OSM   H14S11122   2.696   7.455   9.366 -1.4372  0.7838 -0.6055
  108OSM   H14T11123   2.541   7.356   9.397  0.4693  1.2581  0.4627
  108OSM   C15S11124   2.656   7.268   9.246  0.7363  0.3327 -0.1889
  108OSM   H15S11125   2.641   7.160   9.266  1.7650  0.2493  0.1854
  108OSM   H15T11126   2.760   7.280   9.207  1.3763  1.3905  1.7597
  108OSM   C16S11127   2.571   7.323   9.131 -0.1096 -0.5108 -0.4659
  108OSM   H16S11128   2.572   7.434   9.121 -0.8075 -0.4462  0.1069
  108OSM   H16T11129   2.465   7.293   9.148  0.3451 -1.0852  1.4789
  108OSM   C17S11130   2.619   7.264   8.995 -0.2463 -0.4907 -0.6348
  108OSM   H17S11131   2.615   7.154   9.008 -2.5031  0.0329  3.6929
  108OSM   H17T11132   2.726   7.294   8.984 -0.5927  1.4479  0.9444
  108OSM   C18S11133   2.538   7.298   8.865 -0.1198  0.4981 -0.3697
  108OSM   H18S11134   2.587   7.247   8.779 -0.9363 -1.4935  0.3272
  108OSM   H18T11135   2.544   7.409   8.856 -2.0175  0.5758 -0.9773
  108OSM   H18U11136   2.433   7.263   8.873 -0.6067  1.5600 -1.7819
  108OSM    C1F11137   3.210   7.466  10.523  0.1213  0.2996 -0.4381
  108OSM     OF11138   3.301   7.389  10.512 -0.3186 -0.1598  0.2242
  108OSM    C2F11139   3.224   7.607  10.466  0.1307 -0.1764 -0.2601
  108OSM    H2F11140   3.298   7.662  10.527  0.4238 -1.0519  0.1740
  108OSM    H2G11141   3.130   7.667  10.466  0.4700  0.3956 -1.6909
  108OSM    C3F11142   3.260   7.602  10.314 -0.1100  0.3960 -0.4402
  108OSM    H3F11143   3.347   7.540  10.282 -0.3923  0.8246 -2.0738
  108OSM    H3G11144   3.301   7.701  10.285 -1.1081  0.5676 -1.2789
  108OSM    C4F11145   3.135   7.573  10.234 -0.3806 -0.0416 -0.3310
  108OSM    H4F11146   3.055   7.643  10.265  0.4490  0.9742 -0.4532
  108OSM    H4G11147   3.103   7.468  10.251 -1.5526  0.4055  0.2538
  108OSM    C5F11148   3.141   7.600  10.080  0.9131 -0.6221  0.3263
  108OSM    H5F11149   3.184   7.702  10.075  2.0660 -1.0967  0.4152
  108OSM    H5G11150   3.036   7.598  10.042  0.5893 -1.4464  1.2419
  108OSM    C6F11151   3.233   7.510  10.002 -0.2863 -0.7097  0.1970
  108OSM    H6F11152   3.187   7.416   9.966  1.2202 -1.6071  0.5635
  108OSM    H6G11153   3.316   7.489  10.073 -2.0708  0.6490  2.7337
  108OSM    C7F11154   3.294   7.569   9.871 -0.5783  0.4236 -0.1311
  108OSM    H7F11155   3.363   7.498   9.820  3.5640  0.9508  4.2651
  108OSM    H7G11156   3.368   7.649   9.896 -0.9409  1.1444 -1.3156
  108OSM    C8F11157   3.190   7.633   9.774  0.2643 -0.7677  0.6003
  108OSM    H8F11158   3.230   7.716   9.713 -1.3178  1.0242  1.9334
  108OSM    H8G11159   3.111   7.679   9.837 -1.0600  0.9598 -2.2324
  108OSM    C9F11160   3.125   7.531   9.686  0.1964  0.3824  0.2102
  108OSM    H9F11161   3.038   7.479   9.729 -0.0320  1.2420  0.7913
  108OSM   C10F11162   3.145   7.523   9.555  0.1217  1.0284  0.1246
  108OSM   H10F11163   3.087   7.441   9.511  1.2887  0.3625 -0.1948
  108OSM   C11F11164   3.254   7.593   9.484  0.0829 -0.0386  0.6073
  108OSM   H11F11165   3.346   7.551   9.531 -0.9680 -1.4103  1.4697
  108OSM   H11G11166   3.247   7.701   9.509 -1.2823 -0.9869  4.8054
  108OSM   C12F11167   3.263   7.568   9.334 -0.2884  0.1639 -0.0437
  108OSM   H12F11168   3.243   7.461   9.310 -1.4219  0.1879  0.7587
  108OSM   H12G11169   3.364   7.588   9.293 -1.0577  0.0967 -2.0168
  108OSM   C13F11170   3.173   7.660   9.251  0.1096  0.0968  1.1918
  108OSM   H13F11171   3.196   7.768   9.253 -0.9950  0.4042 -1.1299
  108OSM   H13G11172   3.075   7.637   9.299  0.1365 -2.7589  0.0160
  108OSM   C14F11173   3.164   7.610   9.103 -0.1685  0.0824  0.3740
  108OSM   H14F11174   3.131   7.504   9.092 -0.1090 -0.1114  1.9355
  108OSM   H14G11175   3.264   7.622   9.057 -0.7810  2.2209 -0.4519
  108OSM   C15F11176   3.079   7.704   9.013  0.3784 -0.4718 -0.2141
  108OSM   H15F11177   3.111   7.701   8.906 -0.5073 -0.7213 -0.4727
  108OSM   H15G11178   3.105   7.808   9.042  2.3354 -0.9128 -0.2989
  108OSM   C16F11179   2.929   7.696   9.030  0.1302  0.6779 -0.7562
  108OSM   H16F11180   2.891   7.776   8.963  0.3526  0.3486 -1.2768
  108OSM   H16G11181   2.887   7.719   9.131  0.8781  0.0305 -0.2893
  108OSM   C17F11182   2.876   7.562   8.976 -0.1942  0.1933 -0.0445
  108OSM   H17F11183   2.772   7.545   9.010 -0.4970  1.3784 -0.3663
  108OSM   H17G11184   2.931   7.472   9.012 -2.4234 -1.1563  0.0836
  108OSM   C18F11185   2.863   7.565   8.821  0.4658 -0.0717  0.4570
  108OSM   H18F11186   2.971   7.554   8.794  0.2324 -1.7881  0.1525
  108OSM   H18G11187   2.825   7.663   8.786  1.9827 -0.3905 -2.2791
  108OSM   H18H11188   2.807   7.478   8.780  0.7780  0.7580 -1.8319
  109OSM      N11189   4.043   2.131  11.008 -0.3590  0.0227 -0.3288
  109OSM    C1511190   4.191   2.102  11.001 -0.0086  0.4056 -0.1126
  109OSM   H15A11191   4.251   2.191  10.991 -0.8754  1.0705  0.5106
  109OSM   H15B11192   4.207   2.043  10.912  1.6398 -1.3687  1.2907
  109OSM   H15C11193   4.221   2.037  11.082  0.8304 -0.6813 -1.2666
  109OSM    C1411194   4.008   2.226  11.118  0.4404  0.1681 -0.5766
  109OSM   H14A11195   4.047   2.326  11.114 -1.0840  0.9196  2.2512
  109OSM   H14B11196   4.052   2.193  11.211  2.3898  0.2872 -1.4226
  109OSM   H14C11197   3.903   2.229  11.140  1.1065  2.2335  2.6355
  109OSM    C1311198   3.999   2.192  10.886  0.0254  0.3860  0.0985
  109OSM   H13A11199   3.976   2.122  10.807  1.5493 -1.0713  0.9076
  109OSM   H13B11200   4.070   2.261  10.841 -0.0499 -0.1627 -0.8880
  109OSM   H13C11201   3.904   2.241  10.896 -1.2520 -1.1715 -3.5414
  109OSM    C1211202   3.972   2.007  11.037  0.0063  0.3596 -0.5286
  109OSM   H12A11203   3.867   2.033  11.029 -0.3118 -0.7421 -0.0558
  109OSM   H12B11204   3.974   1.972  11.139  1.1900 -0.6904 -0.8958
  109OSM    C1111205   4.012   1.879  10.951  0.5725 -0.2080 -0.3415
  109OSM   H11A11206   3.945   1.798  10.986  0.0997 -0.2144 -1.2448
  109OSM   H11B11207   4.119   1.853  10.964  0.0889 -1.7832  0.5973
  109OSM      P11208   4.092   1.872  10.702 -0.0073 -0.4330 -0.2420
  109OSM    O1311209   4.180   1.990  10.668 -0.0105  0.8438  0.6561
  109OSM    O1411210   4.158   1.748  10.747 -0.2740  0.1649  0.0184
  109OSM    O1111211   4.010   1.845  10.569  0.1369 -0.4931 -0.0162
  109OSM    O1211212   3.985   1.906  10.816 -0.1033 -0.2679 -0.6275
  109OSM    C1S11213   3.884   1.906  10.546 -0.3191  0.3551  0.5819
  109OSM    H1S11214   3.859   1.980  10.624 -2.6195  0.0748  0.1268
  109OSM    H1T11215   3.811   1.823  10.540  0.6693 -0.3937 -1.5757
  109OSM     NF11216   3.785   2.100  10.412 -0.3367  0.8372 -0.1275
  109OSM    HNF11217   3.719   2.114  10.339 -0.4419 -2.5950 -0.7651
  109OSM    C2S11218   3.884   1.991  10.412 -0.7938 -0.4771 -0.7762
  109OSM    H2S11219   3.983   2.041  10.405  0.4813 -2.9804 -1.0145
  109OSM    C3S11220   3.865   1.895  10.294  1.1048 -0.1702  0.8201
  109OSM    H3S11221   3.757   1.869  10.294  0.5930  1.8949  1.0717
  109OSM     O311222   3.928   1.763  10.302 -0.8783 -0.0824 -0.0195
  109OSM    HO311223   4.007   1.783  10.353 -1.3432  0.9124  0.3205
  109OSM    C4S11224   3.893   1.965  10.162  0.1432 -0.1537 -0.2955
  109OSM    H4S11225   3.990   2.012  10.143 -0.0542 -1.2742 -4.7959
  109OSM    C5S11226   3.794   1.990  10.075 -0.3179  0.2749 -0.0842
  109OSM    H5S11227   3.690   1.958  10.090 -0.0793 -0.6514 -0.3725
  109OSM    C6S11228   3.820   2.075   9.951 -0.1635 -0.0416  0.4061
  109OSM    H6S11229   3.885   2.161   9.976  0.6185 -0.9030  1.3786
  109OSM    H6T11230   3.723   2.114   9.912 -0.3806  0.7109  1.6937
  109OSM    C7S11231   3.879   2.010   9.830  0.7785 -0.3839  0.5450
  109OSM    H7S11232   3.837   1.909   9.812 -1.1009 -0.1554  3.3747
  109OSM    H7T11233   3.986   1.982   9.839  0.8593 -0.0851  0.5306
  109OSM    C8S11234   3.863   2.091   9.705 -0.7076  0.6619  0.2665
  109OSM    H8S11235   3.909   2.190   9.726 -1.9195  1.1277  0.8283
  109OSM    H8T11236   3.753   2.104   9.695 -0.6642  2.2804  1.6774
  109OSM    C9S11237   3.913   2.019   9.588 -0.6596 -0.0687 -0.1684
  109OSM    H9S11238   3.850   1.933   9.560 -4.6726  2.4154  0.8550
  109OSM    H9T11239   4.005   1.966   9.620  0.1046  1.3378  0.0081
  109OSM   C10S11240   3.926   2.113   9.467 -0.2364  0.6026 -0.6796
  109OSM   H10S11241   3.979   2.202   9.508 -0.4054  1.8183 -3.0592
  109OSM   H10T11242   3.819   2.137   9.448 -1.0251 -1.1382  1.3317
  109OSM   C11S11243   4.001   2.053   9.350 -0.3499 -0.1138  0.1798
  109OSM   H11S11244   4.089   2.005   9.396 -0.3020  0.1036  0.3147
  109OSM   H11T11245   4.024   2.132   9.275  0.1677  0.6891  1.1872
  109OSM   C12S11246   3.916   1.951   9.274  0.8288 -0.5112 -0.0505
  109OSM   H12S11247   3.825   2.002   9.236 -0.0697 -0.0557  2.6011
  109OSM   H12T11248   3.893   1.873   9.350  0.2292  1.5721  1.9792
  109OSM   C13S11249   3.998   1.906   9.151 -0.1283 -0.3172  0.3339
  109OSM   H13S11250   4.087   1.846   9.178 -1.2736 -1.2592  2.0771
  109OSM   H13T11251   4.033   1.990   9.086  0.4618 -0.8750 -0.0714
  109OSM   C14S11252   3.906   1.824   9.059 -0.1925  0.3689 -0.3543
  109OSM   H14S11253   3.814   1.877   9.026  0.3022  0.4222 -1.6914
  109OSM   H14T11254   3.864   1.743   9.123  0.3524 -0.9256 -1.5928
  109OSM   C15S11255   3.975   1.780   8.931 -0.0690 -0.4405 -0.2181
  109OSM   H15S11256   4.060   1.710   8.945  0.6868  0.1362 -1.7779
  109OSM   H15T11257   4.019   1.864   8.873  0.9465 -0.6752  0.1942
  109OSM   C16S11258   3.865   1.721   8.834 -0.3199 -0.5015 -0.0111
  109OSM   H16S11259   3.779   1.790   8.819 -1.3174 -2.0817 -1.8238
  109OSM   H16T11260   3.816   1.632   8.879 -0.3080 -0.4348  0.1367
  109OSM   C17S11261   3.925   1.684   8.693  0.2796  0.0350  0.1375
  109OSM   H17S11262   3.989   1.593   8.693 -0.2331 -0.3421  1.9220
  109OSM   H17T11263   3.986   1.770   8.658  1.0961  0.1670  1.8269
  109OSM   C18S11264   3.821   1.677   8.584 -0.9175  0.3542  0.0963
  109OSM   H18S11265   3.876   1.668   8.488  1.4866 -1.2921  1.5667
  109OSM   H18T11266   3.753   1.765   8.580 -3.1863 -1.2832  1.3870
  109OSM   H18U11267   3.763   1.585   8.604  0.6696 -0.2180  2.3676
  109OSM    C1F11268   3.785   2.198  10.493  0.4077  0.2818  0.2163
  109OSM     OF11269   3.873   2.209  10.579 -0.3394 -0.0140  0.4903
  109OSM    C2F11270   3.679   2.306  10.482 -0.7830 -0.4913 -0.5052
  109OSM    H2F11271   3.737   2.401  10.490  0.1432 -1.2480  2.9465
  109OSM    H2G11272   3.619   2.300  10.576 -0.1534 -1.2139 -0.1443
  109OSM    C3F11273   3.586   2.299  10.361 -0.5859  0.1936 -0.7084
  109OSM    H3F11274   3.498   2.362  10.385 -2.1959 -1.9488 -0.8603
  109OSM    H3G11275   3.561   2.191  10.350 -0.0003 -0.2235  1.7741
  109OSM    C4F11276   3.655   2.344  10.233  0.2277 -0.0100 -0.2022
  109OSM    H4F11277   3.720   2.263  10.193  0.8904  1.2738 -1.7659
  109OSM    H4G11278   3.710   2.439  10.250  0.1362 -0.1204  0.7033
  109OSM    C5F11279   3.542   2.377  10.126  0.2560  0.6163  0.2070
  109OSM    H5F11280   3.605   2.415  10.042  0.2364  0.4542  0.1188
  109OSM    H5G11281   3.476   2.462  10.156 -1.2728 -0.0131 -1.2339
  109OSM    C6F11282   3.477   2.250  10.065  0.5222  0.1031  0.3816
  109OSM    H6F11283   3.430   2.196  10.150  2.3321 -0.6393  0.9478
  109OSM    H6G11284   3.550   2.194  10.004 -0.4571 -1.3183  0.5001
  109OSM    C7F11285   3.365   2.287   9.971 -0.7555  0.0186  0.1488
  109OSM    H7F11286   3.294   2.360  10.014  3.4171  3.3984  1.6412
  109OSM    H7G11287   3.313   2.189   9.958 -0.6168 -0.4126  2.5391
  109OSM    C8F11288   3.414   2.340   9.825 -0.0042 -0.6600  0.2516
  109OSM    H8F11289   3.462   2.255   9.772 -0.8140 -0.6157 -0.5657
  109OSM    H8G11290   3.486   2.424   9.838  1.1794 -1.2804 -1.8873
  109OSM    C9F11291   3.304   2.393   9.740  0.7336 -0.4926 -0.0918
  109OSM    H9F11292   3.223   2.433   9.802 -0.5201 -0.9645 -1.4096
  109OSM   C10F11293   3.283   2.384   9.610 -0.1758  0.0548 -0.3891
  109OSM   H10F11294   3.193   2.431   9.567 -1.1052 -1.9555 -0.7134
  109OSM   C11F11295   3.373   2.326   9.506 -0.2742  0.4943  0.3611
  109OSM   H11F11296   3.327   2.234   9.463 -0.6458  1.2509 -0.8765
  109OSM   H11G11297   3.466   2.288   9.553  1.2311  0.1572 -2.7209
  109OSM   C12F11298   3.411   2.430   9.401  0.1219  0.2186  0.0304
  109OSM   H12F11299   3.449   2.520   9.453  1.5758 -0.0190 -0.6066
  109OSM   H12G11300   3.323   2.470   9.345  2.3179  1.0767 -2.9493
  109OSM   C13F11301   3.515   2.363   9.303  0.9077 -0.8546 -0.8677
  109OSM   H13F11302   3.468   2.275   9.254 -0.7492 -0.1091 -0.6619
  109OSM   H13G11303   3.596   2.322   9.366 -1.7043 -2.2622  1.7254
  109OSM   C14F11304   3.564   2.472   9.202  0.5792  0.0343  0.6784
  109OSM   H14F11305   3.560   2.572   9.251 -0.1679  0.8137 -0.9217
  109OSM   H14G11306   3.493   2.486   9.117 -0.6437  1.9202  1.9718
  109OSM   C15F11307   3.699   2.432   9.140 -0.2635  0.1077 -0.7352
  109OSM   H15F11308   3.773   2.417   9.221 -0.7735  3.9585  0.5462
  109OSM   H15G11309   3.741   2.510   9.074  0.4482  0.3728  0.0238
  109OSM   C16F11310   3.692   2.296   9.067  0.0619  0.1361  0.5459
  109OSM   H16F11311   3.622   2.297   8.981  0.0501  2.9840  0.5547
  109OSM   H16G11312   3.655   2.217   9.136 -0.0682  1.0095  1.4963
  109OSM   C17F11313   3.828   2.248   9.021 -0.4961  0.3842  0.4333
  109OSM   H17F11314   3.832   2.139   9.002  0.6965  0.4995  0.0036
  109OSM   H17G11315   3.902   2.266   9.102  0.1913  0.2721 -0.1742
  109OSM   C18F11316   3.872   2.307   8.885 -0.3323  0.1039 -0.1706
  109OSM   H18F11317   3.970   2.268   8.852 -1.0637  0.3591 -2.7423
  109OSM   H18G11318   3.861   2.418   8.880  1.3276  0.2168 -1.7240
  109OSM   H18H11319   3.797   2.268   8.813  0.9362  0.1652 -1.5606
  110OSM      N11320   5.155   1.700  10.820  0.1411  0.2784  0.1566
  110OSM    C1511321   5.035   1.681  10.904 -0.2465 -0.9942  0.2122
  110OSM   H15A11322   5.020   1.768  10.967 -1.9708 -0.9396 -0.2430
  110OSM   H15B11323   5.050   1.600  10.974  1.7914  0.8127  1.9558
  110OSM   H15C11324   4.947   1.649  10.851 -0.7176 -0.8689  0.9007
  110OSM    C1411325   5.174   1.581  10.738  1.1134 -0.6553  0.5112
  110OSM   H14A11326   5.111   1.587  10.650  0.2348 -0.7254  1.1192
  110OSM   H14B11327   5.155   1.494  10.800  2.1707 -1.8035 -0.7474
  110OSM   H14C11328   5.275   1.577  10.701  0.6375  1.3968 -1.0953
  110OSM    C1311329   5.151   1.824  10.739 -0.3632 -0.6040  0.0142
  110OSM   H13A11330   5.067   1.823  10.671 -0.4815  0.9081  0.1086
  110OSM   H13B11331   5.230   1.843  10.668  0.6612  0.3586  1.3723
  110OSM   H13C11332   5.137   1.906  10.809  0.1886 -0.3415 -0.1795
  110OSM    C1211333   5.274   1.706  10.921  0.4649 -0.4411  0.0850
  110OSM   H12A11334   5.258   1.637  11.003 -2.4751 -1.3447 -1.2099
  110OSM   H12B11335   5.277   1.808  10.958  0.3038 -0.5794  0.4864
  110OSM    C1111336   5.407   1.691  10.853  0.3234 -0.5884 -0.3460
  110OSM   H11A11337   5.481   1.731  10.926 -1.3442  1.4647  0.2519
  110OSM   H11B11338   5.418   1.757  10.765 -0.1479 -0.4999 -0.3369
  110OSM      P11339   5.509   1.459  10.919 -0.0593 -0.0733 -0.8570
  110OSM    O1311340   5.645   1.502  10.942  0.1387  0.6470  0.0213
  110OSM    O1411341   5.415   1.440  11.034  0.3786 -0.2201  0.1077
  110OSM    O1111342   5.510   1.323  10.838  0.7818 -0.1213  0.1217
  110OSM    O1211343   5.439   1.559  10.817  0.1411 -0.3106  0.0853
  110OSM    C1S11344   5.429   1.293  10.734 -0.0117 -0.1322 -0.6779
  110OSM    H1S11345   5.360   1.377  10.713 -0.2330 -0.0386  0.4301
  110OSM    H1T11346   5.367   1.203  10.755 -0.6735  0.3234 -0.6953
  110OSM     NF11347   5.414   1.219  10.499 -0.5446  0.3191  0.8712
  110OSM    HNF11348   5.399   1.127  10.464 -0.3635  0.6618 -0.1010
  110OSM    C2S11349   5.507   1.257  10.604 -0.2200  0.0527  0.7498
  110OSM    H2S11350   5.563   1.347  10.573  1.6675 -0.7032  1.9225
  110OSM    C3S11351   5.612   1.144  10.630 -0.6828 -0.3963  0.4981
  110OSM    H3S11352   5.556   1.055  10.667  0.9925  0.0895  4.4106
  110OSM     O311353   5.703   1.162  10.746  0.2525 -0.2666 -0.5173
  110OSM    HO311354   5.655   1.233  10.792  0.2389  0.8350 -2.2011
  110OSM    C4S11355   5.701   1.120  10.508 -0.4377 -0.3076 -0.0931
  110OSM    H4S11356   5.746   1.214  10.471 -2.2858 -0.0913 -1.8844
  110OSM    C5S11357   5.733   1.007  10.435  0.3578 -0.7348 -0.0043
  110OSM    H5S11358   5.666   0.919  10.432  0.9976 -1.2528  0.9138
  110OSM    C6S11359   5.822   1.038  10.310  0.5763  0.3266  0.3674
  110OSM    H6S11360   5.903   0.963  10.299  0.3142 -0.1442  1.5488
  110OSM    H6T11361   5.876   1.134  10.323  1.9858 -0.2376 -1.1419
  110OSM    C7S11362   5.738   1.022  10.184 -0.3315 -0.3349 -0.4568
  110OSM    H7S11363   5.643   1.079  10.181  0.7523  1.5154 -0.2140
  110OSM    H7T11364   5.714   0.916  10.159 -0.4530  0.1680 -2.5127
  110OSM    C8S11365   5.817   1.068  10.063  0.8192  0.4242 -0.2135
  110OSM    H8S11366   5.904   1.000  10.052  0.1616 -0.2253 -1.4796
  110OSM    H8T11367   5.862   1.168  10.080 -0.5024  0.8960  0.5984
  110OSM    C9S11368   5.732   1.059   9.937 -0.1915  0.1223  0.8999
  110OSM    H9S11369   5.629   1.099   9.951  0.0617  0.4301  1.8740
  110OSM    H9T11370   5.719   0.955   9.900 -1.0588  0.4252  0.3245
  110OSM   C10S11371   5.803   1.149   9.832 -0.1797 -0.5506 -0.1244
  110OSM   H10S11372   5.900   1.103   9.806  1.2351  2.5720 -0.5314
  110OSM   H10T11373   5.827   1.250   9.871  4.2518 -2.4778  2.5048
  110OSM   C11S11374   5.710   1.157   9.697  0.0507  0.0283 -0.4558
  110OSM   H11S11375   5.621   1.217   9.725  2.0394  1.6724  2.7197
  110OSM   H11T11376   5.680   1.052   9.678  1.7642 -0.4825 -0.4167
  110OSM   C12S11377   5.790   1.200   9.580 -0.0955 -0.1392 -0.0590
  110OSM   H12S11378   5.883   1.139   9.574 -1.2686 -1.9314 -0.4807
  110OSM   H12T11379   5.815   1.308   9.587  0.0150 -0.1885  0.3674
  110OSM   C13S11380   5.708   1.197   9.456 -0.4496 -0.1762  0.3191
  110OSM   H13S11381   5.603   1.228   9.471 -0.3254 -0.1710  1.1887
  110OSM   H13T11382   5.701   1.089   9.431  0.7394 -0.0912 -0.4289
  110OSM   C14S11383   5.771   1.258   9.337 -0.0568 -0.5507  0.2762
  110OSM   H14S11384   5.881   1.250   9.337 -0.0857 -0.9820 -0.7442
  110OSM   H14T11385   5.749   1.367   9.336  0.9331 -0.3360  1.0946
  110OSM   C15S11386   5.725   1.201   9.201 -0.7032 -0.1015  0.1124
  110OSM   H15S11387   5.747   1.093   9.194 -1.9970 -0.3004 -0.9614
  110OSM   H15T11388   5.794   1.252   9.131  1.3527 -0.7779  1.5994
  110OSM   C16S11389   5.586   1.237   9.155  0.0538 -0.1525  0.9047
  110OSM   H16S11390   5.583   1.348   9.143  0.8442 -0.3499 -1.4558
  110OSM   H16T11391   5.503   1.207   9.222 -0.7738  1.1325  0.4723
  110OSM   C17S11392   5.549   1.179   9.019  0.4471  0.7188 -0.2956
  110OSM   H17S11393   5.547   1.069   9.035  0.7614  0.8123  0.4240
  110OSM   H17T11394   5.634   1.205   8.953 -0.3021  2.4188 -0.6212
  110OSM   C18S11395   5.414   1.220   8.958 -0.3162 -0.7326 -0.2480
  110OSM   H18S11396   5.326   1.179   9.012 -0.8702  0.8723  0.1152
  110OSM   H18T11397   5.401   1.201   8.849 -0.3138  0.2967 -0.4370
  110OSM   H18U11398   5.405   1.329   8.976 -0.6996 -0.4517 -2.0267
  110OSM    C1F11399   5.326   1.312  10.449 -0.5497  0.8501  0.2414
  110OSM     OF11400   5.337   1.431  10.476  0.3083 -0.4131  0.1357
  110OSM    C2F11401   5.209   1.263  10.366 -0.1671  0.4200 -0.0131
  110OSM    H2F11402   5.164   1.176  10.419  0.1789  0.8102  0.9384
  110OSM    H2G11403   5.238   1.227  10.265  1.2107 -0.1832  0.5922
  110OSM    C3F11404   5.109   1.382  10.355 -0.2106  0.4642 -0.1385
  110OSM    H3F11405   5.160   1.465  10.302  1.0190 -0.0268  0.2625
  110OSM    H3G11406   5.099   1.422  10.458  2.0772 -1.8167  1.0115
  110OSM    C4F11407   4.981   1.362  10.277  0.3630  0.6161  0.0090
  110OSM    H4F11408   4.931   1.459  10.258 -1.0066 -0.0170  0.3414
  110OSM    H4G11409   4.907   1.304  10.336  0.3579  0.4122 -0.1960
  110OSM    C5F11410   4.997   1.295  10.134  0.1892 -0.5718  0.1280
  110OSM    H5F11411   5.002   1.188  10.161 -3.6750 -1.5728 -2.6012
  110OSM    H5G11412   5.086   1.333  10.080 -1.8511  4.0080 -0.3152
  110OSM    C6F11413   4.868   1.324  10.049 -0.2357  0.9740  0.1676
  110OSM    H6F11414   4.845   1.432  10.034  1.6306  1.7101  2.4075
  110OSM    H6G11415   4.776   1.286  10.098  2.3799 -3.3659  1.9990
  110OSM    C7F11416   4.881   1.243   9.921 -0.1097  0.2059 -0.5938
  110OSM    H7F11417   4.789   1.251   9.860 -2.4264 -2.6481  2.3085
  110OSM    H7G11418   4.900   1.136   9.945  1.2420  0.6931  0.5617
  110OSM    C8F11419   4.996   1.290   9.823 -0.2786 -0.4671 -0.7605
  110OSM    H8F11420   4.996   1.216   9.741 -0.7428 -2.8968  1.3731
  110OSM    H8G11421   5.087   1.289   9.887 -1.5552  1.6857  1.2130
  110OSM    C9F11422   4.976   1.434   9.777  0.1455  0.2748 -0.4453
  110OSM    H9F11423   5.038   1.506   9.832  0.2305  0.8041 -1.2172
  110OSM   C10F11424   4.899   1.474   9.675 -0.5773 -0.3996  0.9278
  110OSM   H10F11425   4.892   1.581   9.649  0.6765 -0.3866  0.6037
  110OSM   C11F11426   4.821   1.392   9.584  0.0794  0.7777 -0.0439
  110OSM   H11F11427   4.723   1.374   9.632 -0.1910 -1.0000 -1.2350
  110OSM   H11G11428   4.859   1.288   9.572  1.4052  1.1848  0.5288
  110OSM   C12F11429   4.794   1.463   9.449  0.0304  1.1873 -0.9597
  110OSM   H12F11430   4.888   1.468   9.389  1.0868  0.7757  0.6403
  110OSM   H12G11431   4.756   1.566   9.464  1.1027  1.5578 -0.7487
  110OSM   C13F11432   4.699   1.380   9.356  0.2722  0.3649 -0.5255
  110OSM   H13F11433   4.598   1.417   9.385  1.2337  0.9911  2.1663
  110OSM   H13G11434   4.704   1.271   9.378 -0.8423  0.0580 -1.7140
  110OSM   C14F11435   4.735   1.420   9.208  0.5289  0.1243 -0.6128
  110OSM   H14F11436   4.842   1.404   9.185  0.7713  1.3520 -0.3355
  110OSM   H14G11437   4.711   1.525   9.184  1.9322  0.8562  1.1221
  110OSM   C15F11438   4.661   1.331   9.114 -1.1117  0.6785 -0.3608
  110OSM   H15F11439   4.552   1.353   9.112 -1.2121  0.3773  1.3133
  110OSM   H15G11440   4.662   1.225   9.144 -1.4771  1.3091  1.9418
  110OSM   C16F11441   4.714   1.343   8.968  0.1740  0.5777 -0.4180
  110OSM   H16F11442   4.820   1.311   8.953  0.3510  0.1099  1.6874
  110OSM   H16G11443   4.709   1.451   8.943 -2.0184  0.8907  1.1869
  110OSM   C17F11444   4.628   1.272   8.865  0.8034  0.2798 -0.2834
  110OSM   H17F11445   4.526   1.316   8.864  0.4689 -0.4882 -0.7005
  110OSM   H17G11446   4.617   1.172   8.913  4.2335  1.2147  2.6702
  110OSM   C18F11447   4.682   1.263   8.725  0.0480 -0.0477  0.3302
  110OSM   H18F11448   4.720   1.364   8.696 -0.7753 -0.3544 -1.9230
  110OSM   H18G11449   4.611   1.235   8.645  0.1998 -3.1895  1.2388
  110OSM   H18H11450   4.756   1.181   8.715 -0.0799 -0.0834 -0.3924
  111OSM      N11451   5.719   4.371  11.017 -0.0871  0.3381  0.5727
  111OSM    C1511452   5.656   4.377  11.152  0.5135  0.1358 -0.3619
  111OSM   H15A11453   5.704   4.305  11.217  1.1609 -1.0404 -2.1072
  111OSM   H15B11454   5.555   4.340  11.143  1.3645 -2.6369  0.8075
  111OSM   H15C11455   5.661   4.466  11.213  0.0424 -0.8822  1.1931
  111OSM    C1411456   5.870   4.393  11.031  0.5070 -0.2100  0.5305
  111OSM   H14A11457   5.913   4.303  11.073 -0.3943 -0.2533  1.3949
  111OSM   H14B11458   5.898   4.472  11.100 -3.0814  1.0155  0.7042
  111OSM   H14C11459   5.906   4.410  10.931 -1.0857  2.9152  0.4136
  111OSM    C1311460   5.699   4.229  10.961 -0.0815 -0.7185 -0.7803
  111OSM   H13A11461   5.723   4.156  11.037  0.2800 -0.9539 -1.1175
  111OSM   H13B11462   5.758   4.215  10.871  1.1847  0.3278 -0.1236
  111OSM   H13C11463   5.601   4.212  10.919  0.4210 -0.7805 -1.9516
  111OSM    C1211464   5.654   4.479  10.931  0.1714 -1.0603  0.8341
  111OSM   H12A11465   5.693   4.572  10.968 -0.2502 -0.4236 -0.2829
  111OSM   H12B11466   5.547   4.485  10.941  0.2299 -0.8546  1.3492
  111OSM    C1111467   5.683   4.490  10.779 -0.0843 -0.2127 -0.0292
  111OSM   H11A11468   5.625   4.572  10.733  0.7684  0.3676 -0.0674
  111OSM   H11B11469   5.648   4.403  10.719 -1.5029  1.0901 -1.1025
  111OSM      P11470   5.885   4.654  10.767  0.3552 -0.8047  0.5552
  111OSM    O1311471   5.805   4.744  10.858  0.1701  0.0091  0.5159
  111OSM    O1411472   6.032   4.632  10.781  0.2751  0.1877  0.0978
  111OSM    O1111473   5.870   4.703  10.615 -0.2236 -0.3230  1.1674
  111OSM    O1211474   5.821   4.513  10.761 -0.0980  0.2260  0.3141
  111OSM    C1S11475   5.910   4.624  10.499 -0.5689 -0.9236  0.2476
  111OSM    H1S11476   5.907   4.515  10.516  0.7181 -1.1580 -0.9180
  111OSM    H1T11477   6.017   4.649  10.479 -0.8966 -0.9829 -1.6622
  111OSM     NF11478   5.861   4.567  10.262  0.1837 -0.1365 -0.0059
  111OSM    HNF11479   5.940   4.603  10.213  2.5184 -0.7262  3.1609
  111OSM    C2S11480   5.826   4.655  10.372 -0.1190 -0.1321  0.7625
  111OSM    H2S11481   5.717   4.637  10.388 -0.0214 -1.3648  0.1501
  111OSM    C3S11482   5.853   4.802  10.337  0.2500 -0.1887 -0.2210
  111OSM    H3S11483   5.961   4.816  10.318 -0.0455  0.7724 -1.3086
  111OSM     O311484   5.826   4.888  10.447  0.3403 -0.1838  0.4540
  111OSM    HO311485   5.812   4.822  10.514 -0.1439 -0.5815 -0.0313
  111OSM    C4S11486   5.783   4.856  10.216 -0.3218  0.1336  0.1052
  111OSM    H4S11487   5.835   4.836  10.122 -0.3316  1.1789 -0.1318
  111OSM    C5S11488   5.672   4.940  10.215 -0.8430  0.5724  0.1245
  111OSM    H5S11489   5.629   4.973  10.310 -1.4643 -1.2664  0.5025
  111OSM    C6S11490   5.611   5.002  10.097 -0.9600 -0.4156 -0.1851
  111OSM    H6S11491   5.624   5.111  10.113  0.4611 -0.7240  0.7957
  111OSM    H6T11492   5.504   4.973  10.087 -0.5359 -2.3556  0.7545
  111OSM    C7S11493   5.673   4.972   9.960  0.2071  0.2255 -0.5815
  111OSM    H7S11494   5.655   4.867   9.929  1.4921 -0.0796 -0.3168
  111OSM    H7T11495   5.782   4.987   9.972 -0.0002  0.0706  1.8006
  111OSM    C8S11496   5.604   5.047   9.845 -0.1318  0.3798  0.2199
  111OSM    H8S11497   5.614   5.157   9.861  0.2079  0.4270 -0.3129
  111OSM    H8T11498   5.497   5.016   9.847 -0.1423  0.3934 -0.1195
  111OSM    C9S11499   5.679   5.002   9.718  0.2596  0.9854  0.1977
  111OSM    H9S11500   5.666   4.892   9.709  0.7290  1.0227 -1.0262
  111OSM    H9T11501   5.786   5.028   9.722  0.6393 -0.3401 -1.0142
  111OSM   C10S11502   5.609   5.067   9.601 -0.3294  0.1352 -0.0645
  111OSM   H10S11503   5.622   5.178   9.602 -4.7091  0.7240  0.8297
  111OSM   H10T11504   5.499   5.053   9.603 -0.3447  0.1521 -0.7349
  111OSM   C11S11505   5.669   5.007   9.468  0.0315 -0.4623  0.4923
  111OSM   H11S11506   5.659   4.896   9.463 -1.1837 -0.3038 -1.1764
  111OSM   H11T11507   5.777   5.031   9.467 -0.1100  0.2096  1.2056
  111OSM   C12S11508   5.609   5.067   9.339  0.0393 -0.1599  0.4103
  111OSM   H12S11509   5.651   5.168   9.323 -1.1154  0.2087 -0.3102
  111OSM   H12T11510   5.498   5.068   9.340  0.0093 -1.5629  0.0251
  111OSM   C13S11511   5.663   4.997   9.217  0.3279  0.0496  0.1498
  111OSM   H13S11512   5.618   4.896   9.206  0.1486  0.2986 -1.5661
  111OSM   H13T11513   5.772   4.980   9.236  0.0223 -1.8441  0.3085
  111OSM   C14S11514   5.629   5.071   9.090 -0.0627  0.3884 -0.2803
  111OSM   H14S11515   5.667   5.174   9.103 -2.6081  1.4657 -1.0881
  111OSM   H14T11516   5.518   5.068   9.081  0.0193  1.4368 -1.8808
  111OSM   C15S11517   5.680   5.004   8.957 -0.0940  0.1451  0.4453
  111OSM   H15S11518   5.606   4.927   8.929  0.7614 -0.2867 -0.6323
  111OSM   H15T11519   5.778   4.963   8.989  0.5261  0.2947 -1.2358
  111OSM   C16S11520   5.675   5.105   8.839 -0.0521  0.1917  0.1720
  111OSM   H16S11521   5.774   5.155   8.832 -0.0949  0.3546  0.7073
  111OSM   H16T11522   5.607   5.191   8.854 -0.2827  0.0997 -0.3325
  111OSM   C17S11523   5.653   5.047   8.697 -0.9787  0.0609  0.3279
  111OSM   H17S11524   5.545   5.042   8.672 -1.0155 -3.2505  0.9006
  111OSM   H17T11525   5.690   4.942   8.695  0.9726  0.7654 -2.8337
  111OSM   C18S11526   5.729   5.132   8.586  0.6561 -0.4761  0.2412
  111OSM   H18S11527   5.718   5.072   8.493  0.0871  1.5637 -1.0408
  111OSM   H18T11528   5.837   5.140   8.609  0.6935 -0.3007  0.0020
  111OSM   H18U11529   5.677   5.228   8.564  0.4677 -0.8439 -0.9579
  111OSM    C1F11530   5.831   4.442  10.261  0.2503  0.2361  0.2834
  111OSM     OF11531   5.762   4.397  10.352 -0.2347 -0.4581 -0.6376
  111OSM    C2F11532   5.888   4.353  10.156  0.7487 -0.0016  0.1110
  111OSM    H2F11533   5.983   4.318  10.202  0.2418 -1.7588 -0.1300
  111OSM    H2G11534   5.908   4.410  10.063  0.1521 -0.3368 -0.2226
  111OSM    C3F11535   5.799   4.237  10.112 -0.4862  0.0412  0.6315
  111OSM    H3F11536   5.709   4.278  10.060  0.2509 -0.7868 -1.3726
  111OSM    H3G11537   5.778   4.179  10.204  2.1826  0.9356  1.8438
  111OSM    C4F11538   5.866   4.141  10.011 -0.4535  0.8065  0.3356
  111OSM    H4F11539   5.801   4.051  10.004 -0.9946  1.2060  0.1723
  111OSM    H4G11540   5.958   4.102  10.058 -1.2289 -1.8248 -0.2287
  111OSM    C5F11541   5.884   4.193   9.865 -0.1086 -0.5773 -0.4677
  111OSM    H5F11542   5.936   4.291   9.866  1.2657 -1.2868  0.4761
  111OSM    H5G11543   5.783   4.213   9.824 -0.8891 -1.0637  1.1639
  111OSM    C6F11544   5.952   4.100   9.767  0.4307 -0.5543  0.4362
  111OSM    H6F11545   5.916   3.995   9.777  0.0466 -0.6149 -1.3740
  111OSM    H6G11546   6.061   4.096   9.790  1.1115 -0.9694 -2.5736
  111OSM    C7F11547   5.933   4.149   9.627 -0.0151  0.0171 -0.5936
  111OSM    H7F11548   5.963   4.256   9.629  1.0280 -0.2584 -0.6997
  111OSM    H7G11549   5.826   4.138   9.602  0.0669 -1.8939 -0.2114
  111OSM    C8F11550   6.013   4.065   9.527 -0.2568  0.3254 -0.2949
  111OSM    H8F11551   5.985   3.958   9.542  0.3340  0.1696 -0.2643
  111OSM    H8G11552   6.119   4.077   9.558  0.1181 -0.8166 -1.0729
  111OSM    C9F11553   5.995   4.124   9.391 -0.0161 -0.7496 -0.4897
  111OSM    H9F11554   6.024   4.229   9.376 -0.2144 -0.6807 -0.3913
  111OSM   C10F11555   5.961   4.066   9.276 -0.6974  0.4712  0.4644
  111OSM   H10F11556   5.952   4.126   9.184  0.8790 -0.6344 -0.4386
  111OSM   C11F11557   5.932   3.919   9.254 -0.2390 -0.3288  0.3315
  111OSM   H11F11558   5.884   3.898   9.156 -0.9460 -1.2327  0.8636
  111OSM   H11G11559   5.859   3.902   9.336  0.1337  1.7102  1.1070
  111OSM   C12F11560   6.053   3.834   9.265  0.0916  0.6039 -0.0202
  111OSM   H12F11561   6.022   3.728   9.261  1.2179  0.2481  0.3343
  111OSM   H12G11562   6.107   3.865   9.358  1.7692  1.2818 -1.2013
  111OSM   C13F11563   6.140   3.859   9.140  1.0528 -0.3157  0.8268
  111OSM   H13F11564   6.221   3.935   9.149 -0.4381  1.6116 -1.2904
  111OSM   H13G11565   6.068   3.882   9.058  0.6367 -1.8550  0.7554
  111OSM   C14F11566   6.216   3.726   9.093  0.3050  0.5817 -0.8854
  111OSM   H14F11567   6.138   3.647   9.095  0.5249  0.3343 -1.9827
  111OSM   H14G11568   6.278   3.691   9.178 -1.2991  1.0416  0.5013
  111OSM   C15F11569   6.296   3.725   8.966 -0.0468 -0.5708  0.5350
  111OSM   H15F11570   6.361   3.637   8.947  1.1000  0.3194  0.2223
  111OSM   H15G11571   6.369   3.806   8.989  0.4119 -1.0987  0.9383
  111OSM   C16F11572   6.218   3.775   8.843 -0.7759 -0.0946  0.1873
  111OSM   H16F11573   6.288   3.771   8.756  0.2661 -0.0588  1.0089
  111OSM   H16G11574   6.189   3.882   8.856  0.7394  0.3745 -0.1771
  111OSM   C17F11575   6.105   3.686   8.803  0.4936  0.3343  0.3139
  111OSM   H17F11576   6.020   3.688   8.876  0.4861  1.5056  0.2775
  111OSM   H17G11577   6.151   3.587   8.826  1.6540  1.2572  2.0501
  111OSM   C18F11578   6.065   3.703   8.661 -0.3777 -0.0799  0.0304
  111OSM   H18F11579   5.958   3.678   8.644  0.2047 -1.4097 -1.8480
  111OSM   H18G11580   6.110   3.624   8.597  1.2344 -0.1334  1.2125
  111OSM   H18H11581   6.090   3.805   8.627  0.2654  0.7916  3.0114
  112OSM      N11582   6.577   1.963  11.196 -0.0588 -0.4521  0.3302
  112OSM    C1511583   6.561   2.036  11.319  0.1572 -0.0357  0.0224
  112OSM   H15A11584   6.463   2.077  11.337  0.8041  1.2834  0.6722
  112OSM   H15B11585   6.622   2.125  11.322  0.0329  0.0829 -0.8582
  112OSM   H15C11586   6.591   1.989  11.412 -1.5316  1.8434  1.5696
  112OSM    C1411587   6.726   1.939  11.188 -0.3569 -0.1910  0.1385
  112OSM   H14A11588   6.761   1.876  11.268 -0.9719  1.8958  2.1208
  112OSM   H14B11589   6.779   2.033  11.185  4.0008 -2.5500 -0.6039
  112OSM   H14C11590   6.749   1.893  11.093 -0.6244  0.3930 -0.2170
  112OSM    C1311591   6.514   1.831  11.203 -0.0964 -0.4716  0.4405
  112OSM   H13A11592   6.562   1.769  11.278  2.4986  1.8687  0.7862
  112OSM   H13B11593   6.539   1.764  11.122  1.3083 -0.5428  0.9163
  112OSM   H13C11594   6.409   1.840  11.224 -0.2285  0.0913 -0.4134
  112OSM    C1211595   6.544   2.040  11.068  0.1367  0.0558 -0.3272
  112OSM   H12A11596   6.590   1.978  10.992  0.3415  0.0763 -0.2215
  112OSM   H12B11597   6.597   2.134  11.056 -0.5686  0.2256 -2.1796
  112OSM    C1111598   6.396   2.061  11.043 -0.4930 -0.2857  0.4475
  112OSM   H11A11599   6.336   1.969  11.060  0.7555 -0.9970  1.0929
  112OSM   H11B11600   6.378   2.083  10.935 -0.2098  0.5233  0.5627
  112OSM      P11601   6.206   2.215  11.123 -0.3143 -0.3022  0.3006
  112OSM    O1311602   6.120   2.098  11.131 -0.4889 -0.6695  0.2226
  112OSM    O1411603   6.178   2.312  11.226  0.2782 -0.3733 -0.0501
  112OSM    O1111604   6.192   2.282  10.980 -0.1523  0.0975 -0.6189
  112OSM    O1211605   6.353   2.175  11.118  0.0583 -0.4051 -0.4560
  112OSM    C1S11606   6.272   2.390  10.935 -0.0025 -0.2218 -0.8117
  112OSM    H1S11607   6.379   2.379  10.963  0.3761  2.7654 -0.9633
  112OSM    H1T11608   6.254   2.489  10.981  2.4573  0.4898 -1.2862
  112OSM     NF11609   6.375   2.481  10.721 -0.0237 -0.3579 -0.2522
  112OSM    HNF11610   6.349   2.570  10.685  2.3021  1.0552  1.3609
  112OSM    C2S11611   6.267   2.406  10.780 -0.6206  0.7091 -0.2402
  112OSM    H2S11612   6.267   2.301  10.743 -1.6072  0.5905  0.0800
  112OSM    C3S11613   6.121   2.454  10.756 -0.4223 -0.5429  0.2533
  112OSM    H3S11614   6.108   2.550  10.812  1.2134 -0.6832  0.8861
  112OSM     O311615   6.015   2.372  10.805 -0.2951  0.0725  0.0616
  112OSM    HO311616   6.064   2.311  10.860 -0.2824  0.2034  0.1967
  112OSM    C4S11617   6.106   2.474  10.608  0.2317 -0.2874  0.1418
  112OSM    H4S11618   6.126   2.388  10.542 -1.2982  0.7827 -1.8000
  112OSM    C5S11619   6.068   2.592  10.547 -0.6501 -0.7882  0.1299
  112OSM    H5S11620   6.069   2.687  10.603  1.4299 -1.6771  1.6836
  112OSM    C6S11621   6.072   2.618  10.398  1.2538  0.5348 -0.5356
  112OSM    H6S11622   6.137   2.704  10.370  2.0597  0.1058 -0.0019
  112OSM    H6T11623   5.971   2.647  10.362  0.1767 -2.5843 -0.1587
  112OSM    C7S11624   6.115   2.506  10.305 -0.2571 -0.2396 -0.5417
  112OSM    H7S11625   6.059   2.410  10.297 -0.9572  0.2173 -1.1875
  112OSM    H7T11626   6.218   2.477  10.335 -0.0865  1.0161  0.0905
  112OSM    C8S11627   6.118   2.554  10.160  0.6923  0.3516  0.0502
  112OSM    H8S11628   6.157   2.658  10.153  1.5746 -0.0084 -0.3919
  112OSM    H8T11629   6.012   2.552  10.126  0.4456 -0.0679  0.8455
  112OSM    C9S11630   6.202   2.468  10.064 -0.3506  1.0293 -0.6428
  112OSM    H9S11631   6.165   2.367  10.091 -1.9094  1.4233 -1.2235
  112OSM    H9T11632   6.312   2.458  10.075 -0.2332  0.3941 -2.3006
  112OSM   C10S11633   6.164   2.500   9.924 -0.7798  0.1133 -0.0046
  112OSM   H10S11634   6.213   2.599   9.909  1.3980 -1.0596 -0.7205
  112OSM   H10T11635   6.053   2.496   9.926 -0.7568 -0.3015  0.5174
  112OSM   C11S11636   6.223   2.396   9.832  0.2743  0.4452  0.3469
  112OSM   H11S11637   6.189   2.291   9.847 -1.1349  0.6633 -1.1689
  112OSM   H11T11638   6.334   2.390   9.828  0.2865  0.4751  0.6167
  112OSM   C12S11639   6.172   2.424   9.690 -0.6128 -1.0404  0.4127
  112OSM   H12S11640   6.205   2.524   9.654 -0.8959 -1.6049 -1.4962
  112OSM   H12T11641   6.060   2.423   9.691 -0.6689  1.9118 -0.1128
  112OSM   C13S11642   6.210   2.316   9.580 -0.0611  0.1001  0.1761
  112OSM   H13S11643   6.138   2.235   9.606  1.4021 -1.4970 -0.6464
  112OSM   H13T11644   6.316   2.286   9.573  0.5392  2.0571  0.4428
  112OSM   C14S11645   6.166   2.363   9.441  0.1482 -0.1748 -0.0034
  112OSM   H14S11646   6.223   2.447   9.397 -1.2526  0.4553 -0.6534
  112OSM   H14T11647   6.059   2.393   9.450  0.2582 -0.3400  2.1246
  112OSM   C15S11648   6.183   2.250   9.337  0.0947 -0.0643 -0.0399
  112OSM   H15S11649   6.135   2.156   9.372  0.7580  0.0292  1.1431
  112OSM   H15T11650   6.291   2.225   9.327 -0.2826 -1.4721 -0.8541
  112OSM   C16S11651   6.138   2.271   9.192  0.4831  0.3412  0.4317
  112OSM   H16S11652   6.027   2.270   9.190  0.4592  2.6621 -0.6188
  112OSM   H16T11653   6.173   2.184   9.131 -1.9687 -0.0809 -0.4208
  112OSM   C17S11654   6.201   2.391   9.126  0.3782 -0.5725  0.4329
  112OSM   H17S11655   6.170   2.478   9.189  1.9141 -0.0318  0.4685
  112OSM   H17T11656   6.159   2.396   9.024  2.0201 -1.2734 -0.2875
  112OSM   C18S11657   6.350   2.393   9.114  0.5077  0.6321 -0.1218
  112OSM   H18S11658   6.379   2.465   9.035 -1.3229 -0.6351 -2.0118
  112OSM   H18T11659   6.395   2.296   9.083  0.4358  0.0424  1.5325
  112OSM   H18U11660   6.392   2.413   9.215 -1.5884  2.1719  0.4747
  112OSM    C1F11661   6.502   2.433  10.710  0.8718 -0.5223  0.3802
  112OSM     OF11662   6.525   2.318  10.747  0.1569  0.3901 -0.4212
  112OSM    C2F11663   6.610   2.522  10.649 -0.0155  0.9395 -0.0914
  112OSM    H2F11664   6.701   2.503  10.711 -0.2330  2.9366  0.8822
  112OSM    H2G11665   6.584   2.628  10.669 -1.0215  0.4377  1.3784
  112OSM    C3F11666   6.628   2.507  10.489  0.0094  0.4483 -0.1604
  112OSM    H3F11667   6.637   2.400  10.461 -1.2124  0.8112 -1.9651
  112OSM    H3G11668   6.726   2.553  10.461  0.0788  0.8597  0.7399
  112OSM    C4F11669   6.516   2.569  10.397 -0.4106 -0.0139  0.0353
  112OSM    H4F11670   6.469   2.667  10.421  1.6652  1.2299 -0.8173
  112OSM    H4G11671   6.432   2.498  10.389 -2.2550  1.9630  1.2020
  112OSM    C5F11672   6.575   2.596  10.253 -0.8416 -0.2079  0.0290
  112OSM    H5F11673   6.640   2.686  10.261 -1.1498 -0.0367  0.6271
  112OSM    H5G11674   6.492   2.634  10.191 -0.2109  0.1873 -0.5760
  112OSM    C6F11675   6.648   2.486  10.176  0.6077  0.3268  0.2113
  112OSM    H6F11676   6.607   2.385  10.199 -0.0996  0.4036 -0.6825
  112OSM    H6G11677   6.751   2.478  10.215  0.8411 -1.1962 -0.6598
  112OSM    C7F11678   6.643   2.514  10.026 -0.3466  0.3445 -0.4053
  112OSM    H7F11679   6.672   2.619  10.002  1.1432 -0.3985 -2.0013
  112OSM    H7G11680   6.540   2.499   9.986 -0.5663 -0.6518  0.5124
  112OSM    C8F11681   6.724   2.412   9.949 -0.1585  0.3122  0.5142
  112OSM    H8F11682   6.708   2.434   9.841 -0.2514  2.7113  0.9927
  112OSM    H8G11683   6.690   2.309   9.975 -2.3853  0.4907 -1.5254
  112OSM    C9F11684   6.872   2.413   9.970  0.2769  0.1708 -0.5377
  112OSM    H9F11685   6.916   2.347  10.046 -0.5779 -1.9597 -1.8523
  112OSM   C10F11686   6.960   2.476   9.886  0.2943  0.8934 -0.2137
  112OSM   H10F11687   7.068   2.469   9.905  0.2688 -1.2157 -0.6859
  112OSM   C11F11688   6.929   2.553   9.758  0.8312  0.0734  0.3379
  112OSM   H11F11689   7.016   2.615   9.730 -0.2444  0.6474 -1.8080
  112OSM   H11G11690   6.853   2.628   9.788 -0.3289 -1.1639  0.5770
  112OSM   C12F11691   6.930   2.456   9.647  0.1702  0.2218 -0.1355
  112OSM   H12F11692   6.861   2.370   9.664  1.3018 -0.4340  1.2232
  112OSM   H12G11693   7.028   2.406   9.633 -0.3085 -1.1062  1.0823
  112OSM   C13F11694   6.885   2.529   9.520 -0.4793  0.3267 -0.1254
  112OSM   H13F11695   6.944   2.622   9.506  0.7067 -0.1582  1.5107
  112OSM   H13G11696   6.781   2.565   9.533 -0.9288 -1.5253  1.4793
  112OSM   C14F11697   6.891   2.448   9.391  0.3114  0.8553 -0.4664
  112OSM   H14F11698   6.826   2.358   9.405 -0.8813  1.7934  0.1641
  112OSM   H14G11699   6.998   2.421   9.376  0.4444  1.9011 -1.4617
  112OSM   C15F11700   6.848   2.512   9.253  0.0268 -0.4477  0.3957
  112OSM   H15F11701   6.905   2.605   9.232  0.4602 -0.8965 -0.4227
  112OSM   H15G11702   6.744   2.550   9.262  0.2384  0.4160 -0.6861
  112OSM   C16F11703   6.852   2.422   9.130 -0.2782 -0.2148 -0.3425
  112OSM   H16F11704   6.817   2.317   9.139 -0.6003  0.0106  1.3379
  112OSM   H16G11705   6.960   2.420   9.105 -0.0919  0.7792  0.3433
  112OSM   C17F11706   6.791   2.496   9.005  0.2168  0.1559 -0.0150
  112OSM   H17F11707   6.778   2.603   9.032 -2.2770  0.4948 -2.2924
  112OSM   H17G11708   6.688   2.463   8.981  0.7238 -1.0927 -0.5778
  112OSM   C18F11709   6.891   2.483   8.890 -0.0896  0.0832  0.6479
  112OSM   H18F11710   6.858   2.544   8.803 -1.1595 -0.7001  0.4992
  112OSM   H18G11711   6.892   2.381   8.845  0.2570  0.8739 -1.2076
  112OSM   H18H11712   6.992   2.520   8.920  0.5074  0.9657 -2.2864
  113OSM      N11713   3.342   5.433  11.139 -0.2257  0.5210  0.3997
  113OSM    C1511714   3.487   5.445  11.163  0.3480  0.5152  0.4325
  113OSM   H15A11715   3.539   5.353  11.183  1.3377  1.0253  0.2090
  113OSM   H15B11716   3.511   5.513  11.243  1.5027  1.0871 -0.3871
  113OSM   H15C11717   3.530   5.479  11.070 -1.8461 -1.9272 -1.5691
  113OSM    C1411718   3.317   5.328  11.039  0.4289 -0.1067 -0.0846
  113OSM   H14A11719   3.213   5.340  11.011  0.0747 -0.0553  1.2173
  113OSM   H14B11720   3.313   5.231  11.088  3.0289 -0.0295  0.3495
  113OSM   H14C11721   3.382   5.328  10.953  0.7752  0.9421  0.1755
  113OSM    C1311722   3.273   5.394  11.266  0.0394 -0.5501 -0.0810
  113OSM   H13A11723   3.167   5.385  11.248  0.1559 -1.4266 -0.3473
  113OSM   H13B11724   3.292   5.467  11.343  3.0626 -2.8312  1.4289
  113OSM   H13C11725   3.309   5.298  11.299  0.0324 -1.3519 -2.2916
  113OSM    C1211726   3.281   5.568  11.086 -0.5077  0.1585 -0.8125
  113OSM   H12A11727   3.314   5.640  11.160  1.2155 -0.4696 -0.9251
  113OSM   H12B11728   3.174   5.559  11.078 -0.4489  1.1354 -2.8588
  113OSM    C1111729   3.325   5.628  10.951 -0.2085 -0.1337 -0.1608
  113OSM   H11A11730   3.254   5.700  10.904  2.1013  2.3498  0.0199
  113OSM   H11B11731   3.332   5.543  10.880  1.1867 -0.8272  0.7827
  113OSM      P11732   3.454   5.841  11.006 -0.2072 -0.1326  0.1635
  113OSM    O1311733   3.397   5.854  11.140 -0.3182 -0.3462 -0.5676
  113OSM    O1411734   3.586   5.896  10.996 -0.1092 -0.0914  0.1698
  113OSM    O1111735   3.352   5.916  10.901  0.8690 -0.8428 -0.2789
  113OSM    O1211736   3.453   5.693  10.953 -0.0217  0.1517  0.5870
  113OSM    C1S11737   3.402   5.939  10.764  0.3851  0.9690 -0.4029
  113OSM    H1S11738   3.388   5.852  10.697  0.4228  0.6781 -0.0338
  113OSM    H1T11739   3.510   5.964  10.767  0.6735 -0.4065  1.5595
  113OSM     NF11740   3.402   6.057  10.543 -0.1881 -0.3363  0.0817
  113OSM    HNF11741   3.478   6.121  10.538  1.6184 -2.2896  1.8860
  113OSM    C2S11742   3.335   6.053  10.678 -0.1624  0.2569  0.8029
  113OSM    H2S11743   3.226   6.031  10.673 -0.3419  1.2176  0.4915
  113OSM    C3S11744   3.359   6.179  10.760 -0.1216 -0.9027  0.5019
  113OSM    H3S11745   3.467   6.204  10.762 -0.2718 -0.2839  1.4967
  113OSM     O311746   3.321   6.176  10.899  0.1451  0.0215  0.5503
  113OSM    HO311747   3.304   6.083  10.913  0.5222 -0.0180  0.7643
  113OSM    C4S11748   3.282   6.291  10.701 -0.2935 -0.0961  0.7226
  113OSM    H4S11749   3.182   6.255  10.671 -1.0789  0.6587  2.3501
  113OSM    C5S11750   3.330   6.407  10.657 -0.2535 -0.4234 -0.5298
  113OSM    H5S11751   3.438   6.427  10.654 -0.3969  1.2703  3.2011
  113OSM    C6S11752   3.252   6.508  10.583  0.1555  0.4033 -0.0001
  113OSM    H6S11753   3.242   6.602  10.641  0.1919  0.3526  0.0882
  113OSM    H6T11754   3.150   6.487  10.544  0.3849 -0.8919  0.0615
  113OSM    C7S11755   3.324   6.541  10.447  0.3445  0.5943 -0.5189
  113OSM    H7S11756   3.404   6.611  10.480  0.5683  0.8567 -1.5753
  113OSM    H7T11757   3.254   6.611  10.397  0.0261  1.6214  1.3286
  113OSM    C8S11758   3.365   6.421  10.373 -0.7845 -0.0594  0.0045
  113OSM    H8S11759   3.283   6.352  10.342 -0.8471  0.3564 -0.7709
  113OSM    H8T11760   3.439   6.361  10.430 -1.0420  0.7838  1.2436
  113OSM    C9S11761   3.443   6.458  10.239 -0.4189  0.5723  0.3025
  113OSM    H9S11762   3.546   6.492  10.263  0.2873 -1.2670 -0.0308
  113OSM    H9T11763   3.403   6.550  10.191  0.6163  0.1469 -1.4604
  113OSM   C10S11764   3.444   6.335  10.145 -0.3253 -0.8368  0.4218
  113OSM   H10S11765   3.343   6.291  10.156  1.3598 -4.1905  3.9677
  113OSM   H10T11766   3.520   6.260  10.178  0.3996  0.1603  1.0660
  113OSM   C11S11767   3.458   6.378   9.998  0.7522 -0.1550  0.1975
  113OSM   H11S11768   3.554   6.433   9.987  0.4429  0.1935 -0.9328
  113OSM   H11T11769   3.381   6.451   9.964  0.9294 -0.0394  0.0408
  113OSM   C12S11770   3.455   6.258   9.898  0.3099  0.3222  0.1009
  113OSM   H12S11771   3.368   6.193   9.919  1.4558 -0.9061  1.1197
  113OSM   H12T11772   3.553   6.209   9.918 -0.0775 -0.1260  0.9121
  113OSM   C13S11773   3.469   6.292   9.749  0.8311 -0.3886  1.0234
  113OSM   H13S11774   3.570   6.335   9.729  0.6206 -0.3354  0.0490
  113OSM   H13T11775   3.395   6.371   9.725  2.3892  1.0254  0.6902
  113OSM   C14S11776   3.462   6.174   9.648 -0.4434  0.1324 -0.1283
  113OSM   H14S11777   3.367   6.121   9.669 -0.3317 -0.0637 -0.1249
  113OSM   H14T11778   3.549   6.108   9.664 -0.4823 -0.3335 -1.7404
  113OSM   C15S11779   3.461   6.228   9.502 -0.6093  0.7669  0.2680
  113OSM   H15S11780   3.537   6.309   9.492  1.3605 -0.9033  1.2623
  113OSM   H15T11781   3.360   6.265   9.476 -0.5309  0.8393  0.0650
  113OSM   C16S11782   3.503   6.118   9.401 -0.1166 -0.8643 -0.8913
  113OSM   H16S11783   3.430   6.035   9.409  1.3273 -2.1808 -1.0481
  113OSM   H16T11784   3.599   6.076   9.440  0.7850  0.5221 -1.5931
  113OSM   C17S11785   3.498   6.161   9.253  0.1843 -0.2363  0.2557
  113OSM   H17S11786   3.398   6.204   9.230  0.9459  0.3288 -2.0329
  113OSM   H17T11787   3.506   6.081   9.178 -0.8172  0.8266 -1.0055
  113OSM   C18S11788   3.605   6.271   9.223  0.9545 -0.3625 -0.0699
  113OSM   H18S11789   3.579   6.362   9.282 -0.7405 -1.5363  1.0733
  113OSM   H18T11790   3.613   6.295   9.115  0.2977 -2.0344 -0.5160
  113OSM   H18U11791   3.703   6.231   9.254 -0.4654 -2.2938  2.1514
  113OSM    C1F11792   3.389   5.963  10.452 -0.2337  0.4167  0.1338
  113OSM     OF11793   3.305   5.877  10.467  0.2238 -0.3879  0.1981
  113OSM    C2F11794   3.485   5.966  10.334  0.4932  0.2710 -0.5996
  113OSM    H2F11795   3.574   5.919  10.381 -1.0711  1.1053  3.4056
  113OSM    H2G11796   3.513   6.068  10.301 -0.3958  0.8288  0.3545
  113OSM    C3F11797   3.427   5.889  10.208  0.4434 -0.1499  0.4105
  113OSM    H3F11798   3.337   5.949  10.180 -0.3926 -1.7070 -0.2883
  113OSM    H3G11799   3.397   5.786  10.237  0.3975 -0.1659  0.3070
  113OSM    C4F11800   3.517   5.889  10.083 -0.2358  0.2356  0.2487
  113OSM    H4F11801   3.617   5.849  10.108 -1.1592 -2.2326  0.0458
  113OSM    H4G11802   3.536   5.995  10.054  0.6987  1.6123  5.3298
  113OSM    C5F11803   3.456   5.801   9.972  0.5228 -0.4265 -0.1584
  113OSM    H5F11804   3.402   5.715  10.016  0.1861  0.4394  1.1203
  113OSM    H5G11805   3.540   5.751   9.919  1.2635 -0.9401  1.4816
  113OSM    C6F11806   3.368   5.881   9.876 -0.0238  0.8903  0.4604
  113OSM    H6F11807   3.428   5.944   9.806 -1.0864 -0.9159 -2.1475
  113OSM    H6G11808   3.302   5.951   9.932 -0.1266  2.0122 -1.0297
  113OSM    C7F11809   3.267   5.797   9.786 -0.7066 -0.2919  0.0889
  113OSM    H7F11810   3.167   5.822   9.828 -0.4266 -0.8388  1.1003
  113OSM    H7G11811   3.282   5.687   9.785  2.3822  0.0541  1.4877
  113OSM    C8F11812   3.268   5.841   9.632 -0.2285  0.8986 -0.1045
  113OSM    H8F11813   3.371   5.840   9.589 -0.1203  0.5802  0.1631
  113OSM    H8G11814   3.222   5.941   9.624  0.9355  1.5354  0.9538
  113OSM    C9F11815   3.186   5.743   9.556  0.3485  1.2731  0.1867
  113OSM    H9F11816   3.182   5.643   9.603  0.5036  0.2814 -1.8406
  113OSM   C10F11817   3.112   5.762   9.444  0.1147  0.7318 -0.5612
  113OSM   H10F11818   3.049   5.675   9.421  2.4563 -2.1652  3.1682
  113OSM   C11F11819   3.103   5.878   9.355  0.4285  0.4225 -0.2176
  113OSM   H11F11820   3.148   5.969   9.401  1.4791  0.0004 -0.3938
  113OSM   H11G11821   2.994   5.896   9.346 -0.0187 -1.3724  1.2669
  113OSM   C12F11822   3.155   5.856   9.216 -0.0551  0.4612 -0.7989
  113OSM   H12F11823   3.264   5.836   9.220  0.2253  1.7476 -1.6485
  113OSM   H12G11824   3.153   5.952   9.160 -1.1400  0.3426 -0.9723
  113OSM   C13F11825   3.084   5.741   9.139  0.2432 -0.4525  0.4148
  113OSM   H13F11826   3.080   5.643   9.192  0.2442  0.2707  1.7634
  113OSM   H13G11827   3.135   5.733   9.040 -1.5803  0.4672 -0.6215
  113OSM   C14F11828   2.945   5.776   9.104  0.3953  0.4672 -0.6521
  113OSM   H14F11829   2.879   5.784   9.193 -1.6424 -1.5592 -1.9178
  113OSM   H14G11830   2.898   5.692   9.048  1.4822  0.1700 -1.1334
  113OSM   C15F11831   2.927   5.893   9.007  0.1578 -0.3316  0.3256
  113OSM   H15F11832   2.992   5.864   8.922  0.4566 -1.6988  1.0015
  113OSM   H15G11833   2.968   5.991   9.041  0.1309  0.3037 -1.4408
  113OSM   C16F11834   2.787   5.922   8.963 -0.5102 -0.3493  0.4509
  113OSM   H16F11835   2.759   5.844   8.889  1.2072  0.7642 -1.3991
  113OSM   H16G11836   2.781   6.019   8.909 -0.6014  1.4629  3.5961
  113OSM   C17F11837   2.689   5.928   9.078  0.4760  0.1474 -0.3239
  113OSM   H17F11838   2.728   5.973   9.172  1.0101 -2.1442  0.5814
  113OSM   H17G11839   2.665   5.822   9.102  1.3720  0.1389  0.5755
  113OSM   C18F11840   2.571   6.003   9.039  0.3276 -0.0666 -0.5391
  113OSM   H18F11841   2.598   6.107   9.011  0.1309  0.1668  0.1298
  113OSM   H18G11842   2.507   5.998   9.130  0.3869 -3.0429 -0.6197
  113OSM   H18H11843   2.518   5.965   8.949 -1.9971  0.9942  0.3453
  114OSM      N11844   5.176   2.329  11.260  0.5388 -0.1040  0.2346
  114OSM    C1511845   5.095   2.436  11.326 -0.6966  0.5972 -0.1022
  114OSM   H15A11846   5.098   2.428  11.433  2.8328  0.5781 -0.1578
  114OSM   H15B11847   4.991   2.418  11.301 -0.0980  0.4902 -2.6805
  114OSM   H15C11848   5.113   2.539  11.297  0.5658  0.3536 -0.1884
  114OSM    C1411849   5.313   2.348  11.317  0.3815  0.0881  0.0056
  114OSM   H14A11850   5.379   2.310  11.240 -0.4676 -0.4477 -0.4723
  114OSM   H14B11851   5.341   2.309  11.413  5.4686 -0.8445 -1.7032
  114OSM   H14C11852   5.338   2.453  11.322  1.4667 -0.1463 -0.3446
  114OSM    C1311853   5.140   2.192  11.296  0.4598 -0.1797 -0.4562
  114OSM   H13A11854   5.036   2.171  11.275  0.0517  1.8916 -0.6393
  114OSM   H13B11855   5.175   2.179  11.398 -0.8406  3.1309  0.4907
  114OSM   H13C11856   5.188   2.122  11.230  1.2315 -1.3222  1.2806
  114OSM    C1211857   5.179   2.327  11.106  0.1502 -0.0864  0.3217
  114OSM   H12A11858   5.172   2.431  11.080  0.0603  0.6593  3.1581
  114OSM   H12B11859   5.082   2.287  11.081  0.5822 -2.8023  2.6808
  114OSM    C1111860   5.301   2.250  11.039  0.6995  0.1832 -0.7134
  114OSM   H11A11861   5.392   2.310  11.059  0.0983  0.1024  2.4368
  114OSM   H11B11862   5.275   2.263  10.932  0.8209  0.7390 -0.6774
  114OSM      P11863   5.453   2.051  11.099 -0.0187 -0.1936  0.6425
  114OSM    O1311864   5.515   2.119  11.212 -0.1901  0.1311 -0.4211
  114OSM    O1411865   5.460   1.903  11.104  0.5882 -0.0512  0.7672
  114OSM    O1111866   5.526   2.097  10.966  0.3051 -0.2617  0.2512
  114OSM    O1211867   5.307   2.114  11.071 -0.6830  0.3080 -0.0669
  114OSM    C1S11868   5.496   2.037  10.841  0.3770 -0.5824 -0.2492
  114OSM    H1S11869   5.387   2.022  10.828  0.2289 -0.2888  0.6313
  114OSM    H1T11870   5.536   1.934  10.840 -0.0422 -0.7531  0.5607
  114OSM     NF11871   5.535   2.007  10.594 -0.5869 -0.8736 -0.0967
  114OSM    HNF11872   5.615   1.955  10.565  0.1555 -0.4488  1.1947
  114OSM    C2S11873   5.563   2.086  10.713 -0.5465 -0.1766  0.2725
  114OSM    H2S11874   5.532   2.191  10.697 -1.5045 -0.4105  0.5611
  114OSM    C3S11875   5.717   2.102  10.739  0.1072  0.7592  0.6682
  114OSM    H3S11876   5.763   2.008  10.777  1.5194  1.1538 -0.0737
  114OSM     O311877   5.743   2.200  10.834 -0.1583 -0.3732 -0.0652
  114OSM    HO311878   5.658   2.217  10.875  0.3600  0.8521  0.5235
  114OSM    C4S11879   5.775   2.157  10.619 -0.1914 -0.1801  0.8967
  114OSM    H4S11880   5.756   2.263  10.600 -1.2248 -0.8287 -1.8633
  114OSM    C5S11881   5.845   2.095  10.523 -0.1934 -0.5515 -0.4410
  114OSM    H5S11882   5.862   1.986  10.526  2.2566 -0.1538  2.2499
  114OSM    C6S11883   5.901   2.160  10.402 -0.2031 -0.3033  0.3065
  114OSM    H6S11884   6.011   2.146  10.408 -0.2605 -2.2841 -2.3918
  114OSM    H6T11885   5.880   2.269  10.397 -2.2463 -0.6321  1.2397
  114OSM    C7S11886   5.849   2.088  10.282  0.3244 -0.0497 -0.6927
  114OSM    H7S11887   5.738   2.093  10.279  0.3639  1.3400  0.0063
  114OSM    H7T11888   5.897   1.988  10.285  2.0160  0.6214 -3.7472
  114OSM    C8S11889   5.900   2.154  10.149 -0.1492  0.0990 -0.0645
  114OSM    H8S11890   6.008   2.178  10.155 -0.5013  1.4088  1.2741
  114OSM    H8T11891   5.854   2.255  10.154  1.9453  1.0562  0.1183
  114OSM    C9S11892   5.855   2.084  10.028 -0.8371 -0.5008  0.1803
  114OSM    H9S11893   5.746   2.102  10.014 -0.9400 -2.6575 -2.2552
  114OSM    H9T11894   5.872   1.975  10.032 -1.2349 -0.5427  0.8774
  114OSM   C10S11895   5.914   2.135   9.893  0.2609 -0.3383  0.1168
  114OSM   H10S11896   6.025   2.135   9.889  0.3106 -2.2142  1.2683
  114OSM   H10T11897   5.876   2.237   9.870 -1.8439 -1.1093  0.0286
  114OSM   C11S11898   5.857   2.044   9.779 -0.3303  0.2807 -0.8558
  114OSM   H11S11899   5.747   2.059   9.771 -0.4289  1.4996  2.1814
  114OSM   H11T11900   5.869   1.937   9.805 -3.3832  0.1427  0.3038
  114OSM   C12S11901   5.906   2.061   9.635  0.4035  1.7248  0.2417
  114OSM   H12S11902   6.009   2.020   9.624  0.0445  0.8453  0.1350
  114OSM   H12T11903   5.914   2.171   9.618  1.6887  1.3524 -1.7745
  114OSM   C13S11904   5.808   2.007   9.525  0.0551 -0.4181  0.3680
  114OSM   H13S11905   5.698   2.024   9.529 -0.1595 -1.3490 -1.0624
  114OSM   H13T11906   5.817   1.896   9.533  0.6461 -0.4321 -0.3903
  114OSM   C14S11907   5.853   2.055   9.387  0.4802 -0.1277 -0.1724
  114OSM   H14S11908   5.960   2.079   9.406  0.1677 -0.1648  1.7353
  114OSM   H14T11909   5.806   2.148   9.351 -3.4989 -1.2980  1.7648
  114OSM   C15S11910   5.840   1.951   9.280  0.1800  0.2866  0.0820
  114OSM   H15S11911   5.737   1.910   9.281  0.8291 -1.3874  0.5095
  114OSM   H15T11912   5.910   1.867   9.302  0.2154  0.0226 -1.0384
  114OSM   C16S11913   5.857   2.004   9.134 -0.4510  0.3988  0.8534
  114OSM   H16S11914   5.962   2.024   9.105 -0.2817 -0.3978  0.9148
  114OSM   H16T11915   5.787   2.090   9.123 -0.2307  0.3869 -0.8291
  114OSM   C17S11916   5.814   1.898   9.027 -0.0402  0.1616 -0.3012
  114OSM   H17S11917   5.735   1.832   9.069  0.8083 -1.6033 -1.4617
  114OSM   H17T11918   5.900   1.836   8.995  1.4909  1.9900  0.1710
  114OSM   C18S11919   5.757   1.964   8.903 -0.1259 -0.7257  0.3828
  114OSM   H18S11920   5.828   2.037   8.857 -1.1262  2.6081  3.8856
  114OSM   H18T11921   5.665   2.019   8.931  0.7881  1.7057 -1.2692
  114OSM   H18U11922   5.747   1.892   8.819 -1.1823  0.1239 -0.2262
  114OSM    C1F11923   5.412   2.013  10.539  0.7080  0.2803  0.1402
  114OSM     OF11924   5.315   2.074  10.585  0.3396 -0.2516  0.0574
  114OSM    C2F11925   5.396   1.926  10.419 -0.1194 -0.0662  0.2302
  114OSM    H2F11926   5.433   1.829  10.458  0.6822  1.1219  2.5277
  114OSM    H2G11927   5.475   1.965  10.352  0.2568 -1.1303  0.0393
  114OSM    C3F11928   5.255   1.920  10.349 -0.5472 -0.5261 -0.3721
  114OSM    H3F11929   5.246   2.009  10.284  2.3729  0.0473 -0.0658
  114OSM    H3G11930   5.185   1.917  10.436 -0.2740  1.9652 -0.0364
  114OSM    C4F11931   5.225   1.787  10.266 -0.7827  0.2678 -0.0537
  114OSM    H4F11932   5.257   1.702  10.330 -0.7290 -2.5154 -3.6500
  114OSM    H4G11933   5.296   1.793  10.181  0.0747 -2.6481  0.4051
  114OSM    C5F11934   5.081   1.779  10.230  0.4734  0.0423 -0.3203
  114OSM    H5F11935   5.050   1.882  10.202 -0.6791 -0.7175 -1.9044
  114OSM    H5G11936   5.019   1.749  10.317 -1.8608  1.8692 -1.3143
  114OSM    C6F11937   5.033   1.699  10.112 -0.4374 -0.5051  0.1798
  114OSM    H6F11938   5.038   1.589  10.130 -1.9257 -0.6476 -0.2463
  114OSM    H6G11939   5.105   1.719  10.029 -0.2218 -1.7799  0.0476
  114OSM    C7F11940   4.891   1.748  10.075 -0.6315  0.3590  0.4098
  114OSM    H7F11941   4.859   1.817  10.156  1.0344 -0.5586  1.8874
  114OSM    H7G11942   4.825   1.660  10.085  0.9697 -0.9710 -0.5051
  114OSM    C8F11943   4.893   1.805   9.931  0.7758 -0.0454 -0.6465
  114OSM    H8F11944   4.789   1.805   9.890  1.0148  1.1926 -1.2853
  114OSM    H8G11945   4.944   1.723   9.876  3.4595  0.3142  1.2141
  114OSM    C9F11946   4.961   1.941   9.914  0.0960 -0.3038 -0.9422
  114OSM    H9F11947   5.022   1.975   9.999 -0.4743  1.1506 -1.1055
  114OSM   C10F11948   4.959   2.017   9.804  0.4370  0.2501  0.2694
  114OSM   H10F11949   5.009   2.115   9.804  0.7186  0.1149  2.5569
  114OSM   C11F11950   4.873   1.989   9.678 -0.2268  0.4756  0.6554
  114OSM   H11F11951   4.849   2.081   9.620  2.6545  1.3904  0.8661
  114OSM   H11G11952   4.777   1.942   9.708 -0.3616  1.7686  2.3033
  114OSM   C12F11953   4.944   1.894   9.582  0.2133  0.9957 -0.0965
  114OSM   H12F11954   4.966   1.795   9.626 -0.5563  1.6304  1.7596
  114OSM   H12G11955   5.041   1.942   9.553 -0.4141  1.6095 -1.2346
  114OSM   C13F11956   4.869   1.867   9.450  0.4012  0.8394 -0.5103
  114OSM   H13F11957   4.825   1.966   9.422 -2.3216 -0.8224 -2.3295
  114OSM   H13G11958   4.785   1.798   9.472  1.0548  0.3068  0.3363
  114OSM   C14F11959   4.962   1.814   9.341  0.4106  0.3838  0.8485
  114OSM   H14F11960   5.007   1.716   9.366 -1.1625 -0.0584  2.0747
  114OSM   H14G11961   5.044   1.889   9.336 -0.0258  0.7716 -1.0944
  114OSM   C15F11962   4.898   1.797   9.205 -0.5048 -0.4713  0.3450
  114OSM   H15F11963   4.829   1.710   9.207 -0.6751 -0.4223 -1.8968
  114OSM   H15G11964   4.973   1.776   9.125 -2.5283  0.6139 -1.8988
  114OSM   C16F11965   4.816   1.920   9.160 -0.8978 -0.4651  0.4149
  114OSM   H16F11966   4.892   2.001   9.152 -0.4839 -0.5876  2.7168
  114OSM   H16G11967   4.732   1.942   9.229  0.4286  0.2276  1.8371
  114OSM   C17F11968   4.752   1.894   9.022 -0.0566  0.4345 -0.3822
  114OSM   H17F11969   4.685   1.805   9.018  2.1140 -1.3793  1.7643
  114OSM   H17G11970   4.834   1.870   8.951  0.9487  2.0102  0.2089
  114OSM   C18F11971   4.670   2.007   8.954 -0.8737  0.3215 -0.3582
  114OSM   H18F11972   4.624   1.966   8.862 -0.8245 -1.4540  0.3899
  114OSM   H18G11973   4.742   2.087   8.924  1.5117 -0.9194  1.8456
  114OSM   H18H11974   4.598   2.052   9.025  1.8027  0.2767  2.4785
  115OSM      N11975   2.440   1.315  11.004 -0.4586 -0.3179 -0.7310
  115OSM    C1511976   2.548   1.211  11.028 -0.1648  0.8886 -0.5786
  115OSM   H15A11977   2.584   1.163  10.939  1.1889 -0.0862  0.4760
  115OSM   H15B11978   2.514   1.143  11.104 -0.9292  2.0231  0.1223
  115OSM   H15C11979   2.632   1.265  11.069  0.6467 -0.6894 -0.1545
  115OSM    C1411980   2.323   1.245  10.935  0.1431  0.3098 -0.0865
  115OSM   H14A11981   2.280   1.172  11.003  1.1459  1.9113  2.3686
  115OSM   H14B11982   2.369   1.187  10.856 -0.5955 -1.3994  0.7054
  115OSM   H14C11983   2.246   1.314  10.905  0.9731  0.0298 -2.9656
  115OSM    C1311984   2.385   1.364  11.131  0.2640 -0.4856 -0.3327
  115OSM   H13A11985   2.361   1.281  11.197  0.1545 -1.7665 -1.9576
  115OSM   H13B11986   2.300   1.429  11.118  1.7350  1.4126 -0.6478
  115OSM   H13C11987   2.453   1.428  11.185 -1.3441  0.7154  0.3395
  115OSM    C1211988   2.499   1.429  10.922 -0.1881  0.3552 -0.7157
  115OSM   H12A11989   2.559   1.390  10.841 -1.0972 -1.5770 -0.4960
  115OSM   H12B11990   2.565   1.488  10.983 -1.4218  0.0390  0.9672
  115OSM    C1111991   2.392   1.538  10.862 -0.1454  0.6072  0.5805
  115OSM   H11A11992   2.313   1.487  10.803 -1.9450  0.3912  3.0961
  115OSM   H11B11993   2.451   1.595  10.788 -2.4655  1.0545 -0.9974
  115OSM      P11994   2.208   1.661  11.014 -0.1714  0.5609  0.1014
  115OSM    O1311995   2.167   1.586  11.135 -0.2307 -0.5456 -0.2873
  115OSM    O1411996   2.215   1.805  11.020  0.5369 -0.1570 -0.1969
  115OSM    O1111997   2.117   1.606  10.895 -0.4181  0.0707  0.4528
  115OSM    O1211998   2.351   1.622  10.966  0.6044  0.2580 -0.2522
  115OSM    C1S11999   2.062   1.694  10.793 -0.3805  0.6907 -0.1487
  115OSM    H1S12000   2.139   1.759  10.746 -0.3846 -0.6860 -2.1216
  115OSM    H1T12001   1.981   1.758  10.835 -0.7507 -0.6125  1.2073
  115OSM     NF12002   1.971   1.691  10.571  0.2252  0.1545  0.2213
  115OSM    HNF12003   1.879   1.712  10.541 -0.3563  0.9887  2.5124
  115OSM    C2S12004   1.998   1.601  10.681 -0.6419 -0.1533 -0.1361
  115OSM    H2S12005   2.076   1.530  10.648  0.6491  1.8537 -1.5582
  115OSM    C3S12006   1.878   1.524  10.726 -0.2698 -0.0357  0.1976
  115OSM    H3S12007   1.797   1.595  10.754  0.5131  0.8879  0.1572
  115OSM     O312008   1.906   1.450  10.847  0.2549 -0.3625  0.1926
  115OSM    HO312009   1.998   1.470  10.867  0.5786 -2.3912  0.8767
  115OSM    C4S12010   1.828   1.428  10.615 -0.4453 -0.1381  0.6397
  115OSM    H4S12011   1.890   1.402  10.528  0.2395  0.5475  0.9193
  115OSM    C5S12012   1.708   1.371  10.620 -0.8274  0.7289 -0.2520
  115OSM    H5S12013   1.637   1.393  10.702 -0.8936  0.7746 -0.3217
  115OSM    C6S12014   1.648   1.279  10.511 -0.0626 -0.2654  0.1663
  115OSM    H6S12015   1.549   1.323  10.487  0.2234  0.8297  0.9329
  115OSM    H6T12016   1.639   1.179  10.557  1.0902  0.0690  1.1412
  115OSM    C7S12017   1.726   1.264  10.379 -0.4845  0.0765 -0.2879
  115OSM    H7S12018   1.827   1.233  10.412  0.0752  0.7125 -1.3839
  115OSM    H7T12019   1.743   1.365  10.336 -0.1623  0.2787  0.3047
  115OSM    C8S12020   1.655   1.177  10.269  0.6105  0.6892  0.0655
  115OSM    H8S12021   1.645   1.233  10.173  1.4897  2.4581  0.9787
  115OSM    H8T12022   1.549   1.167  10.301  0.8128  2.7598  1.4795
  115OSM    C9S12023   1.706   1.033  10.255  0.5390  0.0756  0.0440
  115OSM    H9S12024   1.678   0.980  10.349  1.0356 -0.5718 -0.1662
  115OSM    H9T12025   1.815   1.045  10.238 -0.1504  3.0959 -2.7318
  115OSM   C10S12026   1.658   0.945  10.132  0.0560 -0.3271  0.7217
  115OSM   H10S12027   1.552   0.926  10.156 -0.0861 -0.8899 -0.3544
  115OSM   H10T12028   1.704   0.845  10.119 -0.0296 -0.1989 -0.5938
  115OSM   C11S12029   1.678   1.014   9.994  0.0337 -0.9780 -0.2774
  115OSM   H11S12030   1.772   1.072   9.990 -1.4230  1.5250  0.8215
  115OSM   H11T12031   1.597   1.089   9.984  0.0463 -1.2158 -2.2788
  115OSM   C12S12032   1.687   0.917   9.879 -0.0943  0.4000 -0.2112
  115OSM   H12S12033   1.601   0.847   9.887  1.8876 -2.0626  0.1907
  115OSM   H12T12034   1.780   0.861   9.902 -0.2328  0.5153  0.6585
  115OSM   C13S12035   1.699   0.983   9.736  0.4596  0.2735  0.1871
  115OSM   H13S12036   1.797   1.035   9.729  1.5708 -1.4952  2.0979
  115OSM   H13T12037   1.610   1.049   9.732  0.7423  0.5984 -1.1376
  115OSM   C14S12038   1.700   0.889   9.620 -0.9102  0.6748 -0.2391
  115OSM   H14S12039   1.611   0.824   9.607  0.3735 -1.5336  1.7718
  115OSM   H14T12040   1.783   0.818   9.637 -1.5221 -0.1261 -0.5836
  115OSM   C15S12041   1.731   0.953   9.484 -0.0677 -0.3187  0.1382
  115OSM   H15S12042   1.821   1.018   9.494 -0.3062  0.0816 -0.2889
  115OSM   H15T12043   1.652   1.025   9.451 -0.1706  0.5963  2.2694
  115OSM   C16S12044   1.759   0.859   9.368 -0.2399  0.5966 -0.6484
  115OSM   H16S12045   1.676   0.786   9.360 -0.2278  0.6593 -1.3766
  115OSM   H16T12046   1.849   0.798   9.389  1.0273  2.3101 -1.0044
  115OSM   C17S12047   1.787   0.936   9.234  0.2952  0.1912  0.0244
  115OSM   H17S12048   1.865   1.010   9.259 -0.6760  1.1039  0.4094
  115OSM   H17T12049   1.693   0.994   9.216 -0.4743 -1.0523 -0.0506
  115OSM   C18S12050   1.836   0.839   9.129  0.8659 -0.2245  0.5130
  115OSM   H18S12051   1.917   0.775   9.169  0.2118 -0.6709  1.1386
  115OSM   H18T12052   1.875   0.893   9.040  3.3036  3.7281  3.8384
  115OSM   H18U12053   1.759   0.766   9.094  0.2260  0.9473 -0.5887
  115OSM    C1F12054   2.057   1.758  10.502 -0.3905  0.0931 -0.7826
  115OSM     OF12055   2.174   1.716  10.501  0.1842  0.7691 -0.0745
  115OSM    C2F12056   2.016   1.890  10.438  0.8550  0.9641 -0.3698
  115OSM    H2F12057   1.932   1.934  10.496  1.6060 -0.3593  1.8007
  115OSM    H2G12058   1.972   1.859  10.341 -0.4896 -1.2056  0.8895
  115OSM    C3F12059   2.134   1.987  10.403  0.1329 -0.5302 -0.3361
  115OSM    H3F12060   2.221   1.926  10.370  1.1079 -0.5309  2.0717
  115OSM    H3G12061   2.161   2.033  10.501 -0.0313 -0.8104 -0.1555
  115OSM    C4F12062   2.091   2.098  10.303  0.2469  0.8014  0.4876
  115OSM    H4F12063   2.183   2.159  10.293 -0.1154  0.8260 -3.7568
  115OSM    H4G12064   2.006   2.160  10.338  0.5938  2.3078 -1.2605
  115OSM    C5F12065   2.077   2.049  10.155  0.7041  0.4309  0.3789
  115OSM    H5F12066   1.983   1.993  10.137 -0.6223  2.2398  1.5628
  115OSM    H5G12067   2.164   1.984  10.130  1.1966  1.0079  0.5639
  115OSM    C6F12068   2.095   2.162  10.058  0.7847 -0.5669  0.7132
  115OSM    H6F12069   2.198   2.202  10.065  1.1029 -0.9299 -1.4384
  115OSM    H6G12070   2.016   2.238  10.078 -0.3389 -1.4578 -0.3037
  115OSM    C7F12071   2.088   2.110   9.908  0.1579  0.0368 -0.7655
  115OSM    H7F12072   2.073   2.000   9.918  1.0903 -0.1120 -0.9535
  115OSM    H7G12073   2.191   2.122   9.867  0.0098  0.6317 -0.9657
  115OSM    C8F12074   1.991   2.189   9.819 -0.6347  0.6490  0.1857
  115OSM    H8F12075   1.886   2.172   9.850 -1.1986 -0.6518 -2.2728
  115OSM    H8G12076   1.996   2.122   9.731 -2.3862  1.9178 -0.9131
  115OSM    C9F12077   2.043   2.328   9.794 -0.6735 -0.5070  0.3448
  115OSM    H9F12078   2.152   2.343   9.798 -0.9493  1.4616  1.3080
  115OSM   C10F12079   1.969   2.437   9.765  0.0833 -0.2535 -0.2346
  115OSM   H10F12080   2.008   2.531   9.723 -0.2224  0.3298  0.7834
  115OSM   C11F12081   1.816   2.429   9.754 -0.2615 -0.2627  0.2359
  115OSM   H11F12082   1.787   2.504   9.831  2.8183  0.1404  1.0636
  115OSM   H11G12083   1.778   2.326   9.770  0.5852 -0.8052 -1.1638
  115OSM   C12F12084   1.768   2.475   9.620  0.4056 -0.2676  0.0325
  115OSM   H12F12085   1.803   2.580   9.607 -0.6901  0.2706  1.2241
  115OSM   H12G12086   1.659   2.496   9.623  0.5876  0.7003  0.1697
  115OSM   C13F12087   1.813   2.388   9.502  0.5856 -0.2292  0.1441
  115OSM   H13F12088   1.737   2.308   9.490 -0.2141  0.2064  2.2388
  115OSM   H13G12089   1.907   2.336   9.528  0.4684  1.1451  3.5002
  115OSM   C14F12090   1.822   2.453   9.368 -0.7390 -0.6928 -0.3947
  115OSM   H14F12091   1.885   2.544   9.379 -1.9894  0.2864 -1.2166
  115OSM   H14G12092   1.712   2.461   9.352 -1.0421 -2.5313  0.6942
  115OSM   C15F12093   1.878   2.358   9.265 -0.4090  0.1051 -0.2628
  115OSM   H15F12094   1.818   2.265   9.265 -2.1044  1.1932 -0.8598
  115OSM   H15G12095   1.977   2.315   9.293 -1.3016 -1.4828  0.4898
  115OSM   C16F12096   1.883   2.423   9.127 -0.1039 -0.7218 -0.3832
  115OSM   H16F12097   1.947   2.361   9.062  1.5401 -0.0425  0.5622
  115OSM   H16G12098   1.926   2.524   9.144 -4.1303  1.0494  0.0207
  115OSM   C17F12099   1.744   2.438   9.067 -0.0484 -0.5109  0.2121
  115OSM   H17F12100   1.661   2.454   9.138  0.8345 -1.1995  1.4126
  115OSM   H17G12101   1.713   2.348   9.009  0.2103  0.5842 -1.6613
  115OSM   C18F12102   1.742   2.545   8.969 -0.1154  0.5871 -0.3988
  115OSM   H18F12103   1.801   2.531   8.876  1.4089  0.6672  0.5292
  115OSM   H18G12104   1.769   2.648   9.003  2.1289  0.1130 -0.6706
  115OSM   H18H12105   1.639   2.553   8.930 -1.0813  1.8710  2.2677
  116OSM      N12106   5.059   4.594  11.075 -0.5864 -0.5005 -0.3476
  116OSM    C1512107   4.979   4.485  11.142  0.2918  0.2455 -0.3510
  116OSM   H15A12108   4.949   4.501  11.245 -1.2330 -0.9339 -0.6046
  116OSM   H15B12109   5.025   4.387  11.139  0.0335  0.1475 -0.9825
  116OSM   H15C12110   4.887   4.459  11.093 -0.3472 -1.8104  1.8206
  116OSM    C1412111   4.990   4.723  11.123 -0.2378 -0.2140  0.0416
  116OSM   H14A12112   4.900   4.739  11.065 -1.7351 -0.9774  2.0669
  116OSM   H14B12113   5.054   4.807  11.100 -1.1589  0.4193 -0.2530
  116OSM   H14C12114   4.967   4.714  11.228 -0.9245 -2.1517 -0.2678
  116OSM    C1312115   5.197   4.596  11.121 -0.0244  0.0142  0.4499
  116OSM   H13A12116   5.262   4.666  11.071  0.6500 -2.0246 -1.5733
  116OSM   H13B12117   5.241   4.498  11.113 -0.0988  0.0179 -0.0347
  116OSM   H13C12118   5.196   4.626  11.225  0.0406 -2.3954  1.1672
  116OSM    C1212119   5.051   4.583  10.926  0.6801 -0.2547  0.2330
  116OSM   H12A12120   4.956   4.552  10.885  2.0777 -0.2724 -3.1695
  116OSM   H12B12121   5.127   4.508  10.907  1.2164  0.5635 -0.9436
  116OSM    C1112122   5.092   4.707  10.836 -0.1285  0.3144  0.2457
  116OSM   H11A12123   5.020   4.790  10.850 -1.5898 -0.4204 -2.4510
  116OSM   H11B12124   5.080   4.673  10.731  0.4716 -2.6403  1.0707
  116OSM      P12125   5.263   4.902  10.886 -0.1432 -0.1918  0.2515
  116OSM    O1312126   5.175   4.967  10.987 -0.6068  0.1249  0.7897
  116OSM    O1412127   5.409   4.916  10.907 -0.4543 -0.8395  0.6628
  116OSM    O1112128   5.224   4.964  10.739 -0.2239  0.2572 -0.2510
  116OSM    O1212129   5.221   4.752  10.868 -0.3496  0.2653  0.4516
  116OSM    C1S12130   5.309   4.944  10.623 -0.1194  0.2150 -0.5827
  116OSM    H1S12131   5.324   4.834  10.616 -2.9776 -0.3081  0.8128
  116OSM    H1T12132   5.410   4.990  10.628 -0.5719  1.2519 -0.8177
  116OSM     NF12133   5.311   4.917  10.375  0.4827 -0.3006 -1.2584
  116OSM    HNF12134   5.374   4.977  10.327 -2.0753  2.2467 -1.5978
  116OSM    C2S12135   5.242   4.981  10.486 -0.3150  0.2823  0.2667
  116OSM    H2S12136   5.141   4.935  10.489  0.3733 -1.1775  1.5620
  116OSM    C3S12137   5.225   5.131  10.469 -0.4759  0.0727  0.3575
  116OSM    H3S12138   5.321   5.184  10.455 -0.6610  0.1003 -0.8965
  116OSM     O312139   5.156   5.192  10.577  0.0223 -0.1014 -0.1019
  116OSM    HO312140   5.155   5.126  10.647  2.0709 -1.8216 -1.6468
  116OSM    C4S12141   5.144   5.160  10.342  0.3459 -1.1311  0.6965
  116OSM    H4S12142   5.040   5.125  10.341  0.4911 -1.5270 -0.1972
  116OSM    C5S12143   5.197   5.229  10.236  0.9810  0.0640 -0.3411
  116OSM    H5S12144   5.302   5.264  10.240  0.9537 -0.0621  2.2599
  116OSM    C6S12145   5.105   5.262  10.115 -0.5416  0.2585  0.6268
  116OSM    H6S12146   5.089   5.371  10.107  0.9794  0.4785  0.4917
  116OSM    H6T12147   5.005   5.214  10.125 -1.4281  1.6243 -1.4568
  116OSM    C7S12148   5.184   5.224   9.987  0.5624  0.2941  0.1958
  116OSM    H7S12149   5.222   5.120   9.984 -0.1198  0.0657 -1.7302
  116OSM    H7T12150   5.273   5.289   9.974  0.2826  1.0618  1.9746
  116OSM    C8S12151   5.107   5.238   9.853  0.7074  0.5420 -0.2119
  116OSM    H8S12152   5.052   5.334   9.856 -2.6783 -1.3435  1.4021
  116OSM    H8T12153   5.029   5.159   9.845  1.0920 -0.2231  2.8875
  116OSM    C9S12154   5.201   5.230   9.736 -0.6680  1.0232 -0.5350
  116OSM    H9S12155   5.263   5.138   9.732 -3.7839 -1.1277 -0.8220
  116OSM    H9T12156   5.270   5.313   9.706 -1.6957  1.5107 -1.5818
  116OSM   C10S12157   5.125   5.206   9.608 -0.4644  0.4374  0.0938
  116OSM   H10S12158   5.043   5.281   9.604  0.3457  1.6393  3.8672
  116OSM   H10T12159   5.095   5.100   9.616 -1.3701  0.5642 -1.4690
  116OSM   C11S12160   5.216   5.213   9.490 -0.0401 -0.3257 -0.1040
  116OSM   H11S12161   5.298   5.140   9.506  1.5562  1.2180 -1.0664
  116OSM   H11T12162   5.267   5.311   9.479  0.9104 -0.9098 -0.9854
  116OSM   C12S12163   5.151   5.178   9.353 -0.2858  0.4953  0.8812
  116OSM   H12S12164   5.048   5.219   9.346 -0.1155  0.8211  0.2367
  116OSM   H12T12165   5.135   5.069   9.338  3.1651 -0.1986  1.8458
  116OSM   C13S12166   5.230   5.216   9.230 -0.8108  0.4938  0.1005
  116OSM   H13S12167   5.310   5.139   9.226 -2.3444 -1.1151 -0.7413
  116OSM   H13T12168   5.281   5.314   9.235 -1.1013  0.6606 -0.1622
  116OSM   C14S12169   5.158   5.233   9.096 -0.1788 -0.0687 -0.4293
  116OSM   H14S12170   5.081   5.313   9.103  0.2876  0.3991 -0.6809
  116OSM   H14T12171   5.100   5.140   9.078 -1.6936  0.8572 -0.4062
  116OSM   C15S12172   5.259   5.257   8.977 -0.6506 -0.4144 -0.2404
  116OSM   H15S12173   5.348   5.192   8.982 -1.5155 -1.5710  0.4158
  116OSM   H15T12174   5.292   5.363   8.977  1.0651 -0.9122 -3.4351
  116OSM   C16S12175   5.188   5.228   8.845 -0.1745  0.0990  0.8133
  116OSM   H16S12176   5.112   5.303   8.813  0.8215  0.0282 -1.8415
  116OSM   H16T12177   5.139   5.128   8.854 -0.7544  0.4115  1.1429
  116OSM   C17S12178   5.279   5.222   8.722 -0.2228 -0.8080  0.1814
  116OSM   H17S12179   5.349   5.135   8.722  0.5869 -0.2160 -2.2953
  116OSM   H17T12180   5.354   5.304   8.716  0.7249 -1.7479 -1.5917
  116OSM   C18S12181   5.215   5.230   8.581  1.0100  0.2205  0.9910
  116OSM   H18S12182   5.144   5.145   8.577  0.6216  0.5803  0.1319
  116OSM   H18T12183   5.294   5.224   8.504 -0.3594 -0.3766 -0.3853
  116OSM   H18U12184   5.157   5.325   8.576  0.2715 -0.2570  0.3712
  116OSM    C1F12185   5.305   4.787  10.360 -0.5782 -0.2045 -0.4612
  116OSM     OF12186   5.245   4.714  10.437 -0.3749 -0.0954 -1.0237
  116OSM    C2F12187   5.392   4.725  10.248  0.2101  0.5537 -0.0628
  116OSM    H2F12188   5.493   4.714  10.294  0.4207  2.6198  0.0295
  116OSM    H2G12189   5.403   4.804  10.171 -0.0822  0.1893 -0.4740
  116OSM    C3F12190   5.347   4.592  10.202 -0.8186  0.8401 -0.3117
  116OSM    H3F12191   5.249   4.595  10.150 -1.2438  0.7511  0.4658
  116OSM    H3G12192   5.318   4.538  10.295  0.9306  0.8279  0.2499
  116OSM    C4F12193   5.462   4.519  10.122 -0.3765 -0.5428  0.1904
  116OSM    H4F12194   5.447   4.409  10.134 -0.4136 -0.3875  1.6245
  116OSM    H4G12195   5.561   4.529  10.169 -1.1776  0.1107  1.7668
  116OSM    C5F12196   5.458   4.558   9.979  0.2338  0.2737  1.1631
  116OSM    H5F12197   5.442   4.668   9.968 -0.3028 -0.0735 -1.9877
  116OSM    H5G12198   5.373   4.513   9.923  0.5001  2.4355 -1.0649
  116OSM    C6F12199   5.588   4.506   9.909  0.2015  0.5909 -0.1416
  116OSM    H6F12200   5.593   4.397   9.927 -1.0608  0.1682 -2.2268
  116OSM    H6G12201   5.676   4.551   9.959 -0.1397  0.9023  0.1835
  116OSM    C7F12202   5.584   4.540   9.760 -0.0510  0.3122 -0.1190
  116OSM    H7F12203   5.614   4.646   9.745  0.5452  0.5390  2.5218
  116OSM    H7G12204   5.483   4.522   9.716  0.1577 -0.9912 -0.0700
  116OSM    C8F12205   5.701   4.462   9.684  0.2773 -0.0037 -0.3655
  116OSM    H8F12206   5.666   4.358   9.665  1.5580 -0.1050 -2.3168
  116OSM    H8G12207   5.783   4.436   9.754 -0.3125 -0.4309  0.1831
  116OSM    C9F12208   5.746   4.537   9.564 -1.1096  0.6443 -0.0679
  116OSM    H9F12209   5.815   4.623   9.574 -0.2021  0.1451 -1.7795
  116OSM   C10F12210   5.692   4.513   9.443 -0.2843  0.3227 -0.7187
  116OSM   H10F12211   5.726   4.576   9.360  0.1892  0.0238 -0.7530
  116OSM   C11F12212   5.583   4.414   9.407 -0.0028  0.3803 -0.3530
  116OSM   H11F12213   5.486   4.450   9.447  0.1498  1.1290 -0.6395
  116OSM   H11G12214   5.602   4.312   9.446  1.7677  1.3065  1.3355
  116OSM   C12F12215   5.559   4.415   9.252 -0.3280  0.1199 -0.5007
  116OSM   H12F12216   5.544   4.523   9.227  1.0574  0.0402 -1.7201
  116OSM   H12G12217   5.467   4.360   9.222  0.4498 -1.4614 -0.0042
  116OSM   C13F12218   5.677   4.367   9.170  0.5633  0.1376 -0.4814
  116OSM   H13F12219   5.713   4.272   9.216 -0.5645  0.7144  1.6439
  116OSM   H13G12220   5.760   4.441   9.167  1.1773 -0.6054 -2.5033
  116OSM   C14F12221   5.635   4.336   9.020 -0.1182  0.1956  0.2206
  116OSM   H14F12222   5.609   4.430   8.966 -0.4151 -0.3274 -0.5580
  116OSM   H14G12223   5.536   4.286   9.015 -2.2408  4.0538  1.2513
  116OSM   C15F12224   5.741   4.272   8.928 -0.5666  0.7286 -0.1877
  116OSM   H15F12225   5.685   4.242   8.836 -1.7581  1.1066  0.3998
  116OSM   H15G12226   5.773   4.174   8.971 -1.1896 -0.0720 -1.4976
  116OSM   C16F12227   5.868   4.351   8.908 -0.2068  0.5880 -0.0729
  116OSM   H16F12228   5.933   4.279   8.853 -4.8137 -1.5606 -3.0125
  116OSM   H16G12229   5.924   4.385   8.998  1.3401 -0.6898 -0.5358
  116OSM   C17F12230   5.862   4.466   8.807  0.0748  0.3746 -0.0123
  116OSM   H17F12231   5.804   4.550   8.849 -2.1495 -0.4736 -1.2913
  116OSM   H17G12232   5.813   4.427   8.715  0.4408  0.9995 -0.4779
  116OSM   C18F12233   6.004   4.521   8.775 -0.0279  0.0419  0.1732
  116OSM   H18F12234   6.062   4.439   8.728  1.7667  1.3441  0.0878
  116OSM   H18G12235   6.062   4.556   8.863 -0.5363 -1.9512  1.3436
  116OSM   H18H12236   5.995   4.611   8.711 -0.2356  1.1300  1.7220
  117OSM      N12237   2.763   5.660  11.236  0.2144 -0.0879 -0.7730
  117OSM    C1512238   2.897   5.601  11.273  0.2896  0.0509  0.4956
  117OSM   H15A12239   2.927   5.622  11.374  0.4861  0.1745  0.4120
  117OSM   H15B12240   2.967   5.651  11.208 -1.4503  0.6957 -0.9308
  117OSM   H15C12241   2.902   5.494  11.264 -0.1742  0.0412  0.3240
  117OSM    C1412242   2.669   5.598  11.330 -0.3009 -0.0784 -0.1662
  117OSM   H14A12243   2.687   5.492  11.323  2.1415  0.3492 -0.7791
  117OSM   H14B12244   2.564   5.621  11.314 -0.2438 -0.1137 -0.6224
  117OSM   H14C12245   2.698   5.633  11.427  2.5943 -0.3571 -0.9055
  117OSM    C1312246   2.767   5.807  11.267 -0.4591  0.2786 -0.1118
  117OSM   H13A12247   2.831   5.856  11.195  0.7504 -0.1955  0.6293
  117OSM   H13B12248   2.809   5.828  11.364 -0.1847 -0.0716 -0.1574
  117OSM   H13C12249   2.670   5.853  11.254 -0.9365 -0.5155  0.6143
  117OSM    C1212250   2.735   5.644  11.094 -0.4958 -0.8164 -0.0743
  117OSM   H12A12251   2.638   5.687  11.077 -0.4907 -0.7645  0.0281
  117OSM   H12B12252   2.730   5.538  11.071 -1.6062 -0.8775  0.4026
  117OSM    C1112253   2.838   5.706  10.997  0.1738 -0.3172 -0.2031
  117OSM   H11A12254   2.865   5.810  11.025 -2.8416 -0.2908  2.9379
  117OSM   H11B12255   2.783   5.723  10.902 -0.1255 -1.0827 -0.1747
  117OSM      P12256   2.930   5.491  10.886  0.1409  0.0245  0.1325
  117OSM    O1312257   3.026   5.389  10.936  0.0592 -0.1750 -0.4741
  117OSM    O1412258   2.790   5.448  10.889 -0.4745 -0.5407 -0.2631
  117OSM    O1112259   2.961   5.537  10.742 -0.0213  0.7224 -0.1593
  117OSM    O1212260   2.950   5.629  10.970  0.0808  0.0778 -0.4004
  117OSM    C1S12261   3.092   5.570  10.707 -0.0210  0.1720  0.1967
  117OSM    H1S12262   3.171   5.502  10.747 -1.9402 -2.6942 -0.6957
  117OSM    H1T12263   3.111   5.668  10.754  0.9059 -0.6914  1.6447
  117OSM     NF12264   3.250   5.590  10.517 -0.1630  0.2103  0.1942
  117OSM    HNF12265   3.272   5.675  10.470 -0.8045  0.9143  1.1393
  117OSM    C2S12266   3.105   5.575  10.553  0.0818 -0.8401  0.0141
  117OSM    H2S12267   3.078   5.475  10.513 -0.1952 -0.3297 -1.0920
  117OSM    C3S12268   3.016   5.673  10.484  0.1760  0.0842  0.1851
  117OSM    H3S12269   3.046   5.772  10.525 -0.3716  0.8593 -1.2417
  117OSM     O312270   2.877   5.642  10.515 -0.2206  0.2555  0.4234
  117OSM    HO312271   2.889   5.596  10.599  1.1704  0.6436  0.4366
  117OSM    C4S12272   3.034   5.686  10.335  0.7665 -0.0456 -0.2926
  117OSM    H4S12273   3.107   5.765  10.310 -0.1363  0.5268 -1.1769
  117OSM    C5S12274   2.963   5.631  10.232  0.2601  0.0217  0.6597
  117OSM    H5S12275   2.878   5.564  10.252  0.0950 -0.3925 -1.2752
  117OSM    C6S12276   2.986   5.659  10.088 -0.8185  0.1968  0.6273
  117OSM    H6S12277   3.060   5.591  10.040 -0.4911  2.9229 -2.9443
  117OSM    H6T12278   3.039   5.756  10.079  1.2887 -1.1031 -1.7300
  117OSM    C7S12279   2.859   5.689   9.999  0.1382  0.2952 -0.7216
  117OSM    H7S12280   2.797   5.763  10.054 -0.4050 -1.1873  0.6992
  117OSM    H7T12281   2.807   5.591   9.992  1.4605 -0.3434 -1.6732
  117OSM    C8S12282   2.884   5.742   9.855 -0.3118 -0.2692 -0.1937
  117OSM    H8S12283   2.952   5.672   9.801  0.2002 -1.1957  1.6237
  117OSM    H8T12284   2.924   5.845   9.863 -3.4774  1.0319 -0.5020
  117OSM    C9S12285   2.755   5.746   9.767 -0.9669 -0.1517 -0.2757
  117OSM    H9S12286   2.714   5.847   9.788  0.5372  0.4748 -0.2396
  117OSM    H9T12287   2.690   5.667   9.810 -2.1253  1.1342  0.3900
  117OSM   C10S12288   2.773   5.735   9.615 -0.1736  0.4645  0.7007
  117OSM   H10S12289   2.857   5.800   9.585  0.1030  0.3662  1.2448
  117OSM   H10T12290   2.685   5.756   9.550 -1.5090 -0.5831  2.1103
  117OSM   C11S12291   2.804   5.579   9.571 -0.6322 -1.0632  0.3935
  117OSM   H11S12292   2.735   5.510   9.623 -2.5699  2.2950  2.4323
  117OSM   H11T12293   2.907   5.557   9.608 -0.9004 -1.7381  0.7434
  117OSM   C12S12294   2.811   5.559   9.420  0.3570  0.0881  0.9338
  117OSM   H12S12295   2.902   5.506   9.384  0.8626  1.7085 -0.2281
  117OSM   H12T12296   2.800   5.653   9.363 -0.9196 -1.5251 -1.5936
  117OSM   C13S12297   2.697   5.460   9.387 -0.1183  0.1322  0.0218
  117OSM   H13S12298   2.604   5.520   9.398  0.0736  0.2899  0.8432
  117OSM   H13T12299   2.697   5.386   9.470  2.2917  1.2132  1.0106
  117OSM   C14S12300   2.681   5.390   9.248  0.0017 -0.1209 -0.3894
  117OSM   H14S12301   2.580   5.344   9.237 -1.4530  2.8012  0.0877
  117OSM   H14T12302   2.756   5.309   9.241  1.0480  0.5244  2.6815
  117OSM   C15S12303   2.692   5.495   9.139 -0.1554 -0.2155  0.3165
  117OSM   H15S12304   2.794   5.537   9.133 -2.1616  5.3243  1.9186
  117OSM   H15T12305   2.626   5.582   9.158 -0.9391 -0.4414 -1.2273
  117OSM   C16S12306   2.663   5.455   8.987  0.3513  0.0701  0.1309
  117OSM   H16S12307   2.687   5.547   8.930 -0.1356 -1.1114 -2.0406
  117OSM   H16T12308   2.554   5.436   8.985  0.8467 -3.1274  0.5836
  117OSM   C17S12309   2.742   5.340   8.925 -0.1273  0.4449  0.3023
  117OSM   H17S12310   2.728   5.238   8.967  0.8881  0.6933  1.2770
  117OSM   H17T12311   2.851   5.359   8.915 -0.0461 -0.4015 -0.5066
  117OSM   C18S12312   2.695   5.325   8.774 -0.0615 -0.3802  0.1862
  117OSM   H18S12313   2.728   5.413   8.716 -1.0241 -0.1395 -0.0018
  117OSM   H18T12314   2.585   5.313   8.768 -0.2728  0.8322  1.2940
  117OSM   H18U12315   2.729   5.227   8.734  3.1153  0.7767 -0.0664
  117OSM    C1F12316   3.356   5.519  10.557 -0.3946  0.0328 -0.4414
  117OSM     OF12317   3.339   5.411  10.609 -0.1870 -0.0695  0.1507
  117OSM    C2F12318   3.487   5.580  10.536 -0.3881  0.5180 -0.1259
  117OSM    H2F12319   3.515   5.656  10.612 -0.3655  0.3639  0.0192
  117OSM    H2G12320   3.484   5.641  10.443 -1.5992  0.8792  0.1425
  117OSM    C3F12321   3.602   5.477  10.525 -0.4368  0.4193  0.1080
  117OSM    H3F12322   3.588   5.417  10.433  1.5081  0.1738 -0.0457
  117OSM    H3G12323   3.586   5.405  10.607 -1.6186  1.9824  1.2814
  117OSM    C4F12324   3.747   5.531  10.516  0.4903  0.4434  0.2336
  117OSM    H4F12325   3.826   5.456  10.498  0.4507  0.3582  0.4093
  117OSM    H4G12326   3.760   5.588  10.611 -1.4433  0.0239  0.7758
  117OSM    C5F12327   3.766   5.637  10.409  0.0564 -0.0179 -0.3697
  117OSM    H5F12328   3.868   5.680  10.405 -0.1789  0.3801 -2.4768
  117OSM    H5G12329   3.704   5.726  10.435 -2.1639 -1.5753 -0.1974
  117OSM    C6F12330   3.737   5.598  10.262 -0.4878  0.4168  0.4935
  117OSM    H6F12331   3.761   5.683  10.195  1.1196  0.5705  1.2277
  117OSM    H6G12332   3.628   5.576  10.254 -0.0261 -1.4067 -0.8352
  117OSM    C7F12333   3.821   5.489  10.201  0.2254  0.3851 -0.2075
  117OSM    H7F12334   3.804   5.404  10.271  1.9776 -1.0858 -1.5088
  117OSM    H7G12335   3.928   5.517  10.213 -0.3781  1.7223  2.3592
  117OSM    C8F12336   3.789   5.457  10.056 -0.0091 -0.4269 -0.4700
  117OSM    H8F12337   3.792   5.553   9.999  0.5852 -0.2451 -0.1367
  117OSM    H8G12338   3.687   5.413  10.045 -0.8965  1.4409  0.0901
  117OSM    C9F12339   3.897   5.378   9.990  0.2657 -0.1074 -0.0088
  117OSM    H9F12340   3.989   5.360  10.047 -0.7182 -2.6314  0.8310
  117OSM   C10F12341   3.892   5.332   9.868 -0.0343 -0.0201  0.1689
  117OSM   H10F12342   3.978   5.284   9.818 -1.3472 -2.7669  0.5011
  117OSM   C11F12343   3.779   5.368   9.775  0.0498 -0.6685 -0.1568
  117OSM   H11F12344   3.780   5.476   9.748 -0.9088 -0.2565  1.3476
  117OSM   H11G12345   3.683   5.360   9.830  1.2427 -1.9991  1.7943
  117OSM   C12F12346   3.783   5.288   9.645 -0.8780  0.0586  0.9826
  117OSM   H12F12347   3.683   5.292   9.596 -0.4551  0.5413  0.1412
  117OSM   H12G12348   3.812   5.182   9.659  2.5714  0.7807 -0.1563
  117OSM   C13F12349   3.890   5.356   9.546  0.0797  0.1680  0.2180
  117OSM   H13F12350   3.992   5.352   9.591 -0.3769 -0.5844  1.2195
  117OSM   H13G12351   3.864   5.464   9.547  0.3829  0.2416  0.7123
  117OSM   C14F12352   3.891   5.286   9.405 -0.5223  0.4205  0.2000
  117OSM   H14F12353   3.791   5.309   9.363  0.0796  0.9277 -0.9892
  117OSM   H14G12354   3.911   5.177   9.410  0.2093  0.6221  2.4953
  117OSM   C15F12355   4.003   5.340   9.309 -0.1219 -0.1372 -0.6260
  117OSM   H15F12356   4.097   5.350   9.368 -0.1075 -0.9301 -0.5003
  117OSM   H15G12357   3.980   5.446   9.285 -3.9611 -0.4509  1.3048
  117OSM   C16F12358   4.017   5.255   9.187 -0.6622  0.0802 -0.2094
  117OSM   H16F12359   3.918   5.225   9.146  0.6370 -1.6597 -2.1950
  117OSM   H16G12360   4.053   5.156   9.221 -0.9778  0.1608  0.3524
  117OSM   C17F12361   4.120   5.311   9.087 -0.0831  0.5195 -0.5954
  117OSM   H17F12362   4.224   5.319   9.125  0.9196  0.7589 -3.2855
  117OSM   H17G12363   4.089   5.411   9.048 -3.2476 -0.0499  0.3821
  117OSM   C18F12364   4.125   5.219   8.961 -0.5010  0.0066  0.1809
  117OSM   H18F12365   4.025   5.189   8.924 -0.3862 -0.5676  0.3328
  117OSM   H18G12366   4.180   5.124   8.981  0.7516  0.7079  0.0800
  117OSM   H18H12367   4.168   5.276   8.876 -0.7268 -1.6866 -1.0969
  118OSM      N12368   3.647   6.332  11.007 -0.4156 -0.2087  0.3671
  118OSM    C1512369   3.709   6.295  10.871 -0.1330 -0.3732  0.4707
  118OSM   H15A12370   3.768   6.206  10.878 -1.3565 -1.2702 -0.3216
  118OSM   H15B12371   3.759   6.374  10.816  0.7370 -0.2724  1.4097
  118OSM   H15C12372   3.636   6.259  10.800  2.0307 -1.9378 -1.0298
  118OSM    C1412373   3.576   6.222  11.069 -0.8052 -0.1962 -0.5769
  118OSM   H14A12374   3.485   6.190  11.021 -1.7056  1.1898  0.1422
  118OSM   H14B12375   3.548   6.243  11.172 -0.3417  1.0411 -0.6950
  118OSM   H14C12376   3.629   6.129  11.083 -1.7100 -0.6120  0.1526
  118OSM    C1312377   3.753   6.381  11.100  0.2912  0.4599  0.1863
  118OSM   H13A12378   3.726   6.426  11.194 -0.6583 -0.6947  0.4753
  118OSM   H13B12379   3.805   6.454  11.039 -1.8275  2.1739  0.3711
  118OSM   H13C12380   3.822   6.303  11.128 -0.2258  0.0316  0.2677
  118OSM    C1212381   3.554   6.454  11.002  0.7861 -0.5100  0.1338
  118OSM   H12A12382   3.532   6.478  11.105  1.8375  0.3348  0.1717
  118OSM   H12B12383   3.460   6.422  10.960 -0.4868 -0.4086  2.8118
  118OSM    C1112384   3.612   6.570  10.924  0.0900 -0.7531  0.2818
  118OSM   H11A12385   3.535   6.605  10.852  0.6385 -1.5188 -0.6751
  118OSM   H11B12386   3.703   6.562  10.861  0.7055  0.3099  1.0105
  118OSM      P12387   3.527   6.764  11.073  0.3440 -0.1078 -0.1277
  118OSM    O1312388   3.423   6.684  11.142  0.4381 -0.0773  0.4045
  118OSM    O1412389   3.589   6.865  11.155 -0.1313  0.4796  0.0192
  118OSM    O1112390   3.451   6.824  10.942 -0.1428  0.2836  0.2450
  118OSM    O1212391   3.643   6.684  11.015 -0.4792 -0.3593  0.1310
  118OSM    C1S12392   3.533   6.876  10.840 -0.5399 -0.5749 -1.0392
  118OSM    H1S12393   3.636   6.834  10.848 -1.0483 -1.4065  2.0816
  118OSM    H1T12394   3.539   6.986  10.851  0.6700 -0.7175 -0.0022
  118OSM     NF12395   3.563   6.924  10.604  0.3186  0.3338 -0.3435
  118OSM    HNF12396   3.565   7.022  10.588 -1.4593  0.6605  1.2503
  118OSM    C2S12397   3.475   6.865  10.695 -0.4730  0.1308  0.0069
  118OSM    H2S12398   3.467   6.757  10.669  1.6505 -0.1885  0.6318
  118OSM    C3S12399   3.331   6.931  10.689 -0.5358  0.0310 -0.5427
  118OSM    H3S12400   3.355   7.038  10.704  1.7798 -0.5204 -0.1562
  118OSM     O312401   3.235   6.887  10.792 -0.1204  0.1638  0.4466
  118OSM    HO312402   3.300   6.872  10.860  0.6903  0.3010 -0.2817
  118OSM    C4S12403   3.267   6.915  10.557  0.2546  0.0235 -0.4041
  118OSM    H4S12404   3.203   6.825  10.550  0.2798 -0.0154 -0.1360
  118OSM    C5S12405   3.281   7.010  10.456 -0.4902  0.2376 -0.6549
  118OSM    H5S12406   3.338   7.101  10.475  0.9672 -1.1247  1.7805
  118OSM    C6S12407   3.212   6.989  10.323 -0.0221 -0.1882 -0.0924
  118OSM    H6S12408   3.182   7.090  10.290 -0.8342 -1.3504 -3.0897
  118OSM    H6T12409   3.120   6.930  10.339 -0.6010  0.2091 -1.8820
  118OSM    C7S12410   3.309   6.932  10.219  0.6151 -0.6827 -0.2689
  118OSM    H7S12411   3.351   6.833  10.244  0.6377 -0.1111  2.0689
  118OSM    H7T12412   3.397   7.000  10.214  1.1152 -1.3225 -0.2232
  118OSM    C8S12413   3.249   6.911  10.078  0.0654  0.0227 -0.0929
  118OSM    H8S12414   3.152   6.859  10.093 -0.8394  1.4384 -0.8973
  118OSM    H8T12415   3.302   6.831  10.021  0.7513  0.5712 -0.2410
  118OSM    C9S12416   3.236   7.043  10.007  0.2098 -0.7829  0.1680
  118OSM    H9S12417   3.340   7.080   9.997  0.4740 -0.9603  2.0836
  118OSM    H9T12418   3.182   7.121  10.063 -3.0181 -3.4087  0.8549
  118OSM   C10S12419   3.170   7.024   9.869  0.0860 -0.4019 -0.1828
  118OSM   H10S12420   3.061   7.038   9.883  0.3585  0.7191  0.9095
  118OSM   H10T12421   3.195   6.926   9.823  0.2975 -0.6796  0.5143
  118OSM   C11S12422   3.216   7.116   9.764  0.4843  0.0768  0.4063
  118OSM   H11S12423   3.326   7.114   9.750  0.5774  2.8596  0.4199
  118OSM   H11T12424   3.193   7.222   9.787 -0.6544 -0.2039  0.6027
  118OSM   C12S12425   3.140   7.074   9.630  0.0500  0.3015 -0.0269
  118OSM   H12S12426   3.031   7.073   9.647  0.2924 -0.2674  1.6635
  118OSM   H12T12427   3.164   6.966   9.619  2.6597  0.6042  2.0127
  118OSM   C13S12428   3.187   7.147   9.507  1.0081 -0.1705  0.4081
  118OSM   H13S12429   3.296   7.168   9.503  1.1333 -0.7999  0.4205
  118OSM   H13T12430   3.145   7.249   9.492  3.2388  0.5411 -1.1507
  118OSM   C14S12431   3.155   7.057   9.386  1.1617 -0.1316  0.2483
  118OSM   H14S12432   3.051   7.021   9.399  1.8725 -2.2894  0.1233
  118OSM   H14T12433   3.230   6.976   9.390  1.6278  0.3056  0.4933
  118OSM   C15S12434   3.163   7.128   9.250 -0.4598 -0.4388  0.1786
  118OSM   H15S12435   3.264   7.172   9.240  0.3315 -2.3662 -0.6533
  118OSM   H15T12436   3.096   7.216   9.253  0.9998  0.6798  0.6119
  118OSM   C16S12437   3.125   7.031   9.130 -0.8048 -0.1043  0.6502
  118OSM   H16S12438   3.028   6.980   9.142 -2.4728  3.1905  1.6917
  118OSM   H16T12439   3.203   6.951   9.140 -0.7814  0.1303  2.6390
  118OSM   C17S12440   3.140   7.108   8.992 -0.5568  0.0807  0.3835
  118OSM   H17S12441   3.154   7.039   8.906 -0.7554 -0.9089  1.1421
  118OSM   H17T12442   3.231   7.169   9.006  1.0921 -1.7419 -1.9492
  118OSM   C18S12443   3.020   7.197   8.958 -0.0909 -0.1272 -0.0179
  118OSM   H18S12444   3.012   7.285   9.026  3.0113 -0.3196  0.6888
  118OSM   H18T12445   2.932   7.130   8.944  1.2313 -1.9866  0.3847
  118OSM   H18U12446   3.036   7.246   8.860  0.6151 -1.0110 -0.3521
  118OSM    C1F12447   3.668   6.861  10.560  0.1794  0.0479 -0.9838
  118OSM     OF12448   3.690   6.748  10.599  0.2595  0.1731 -0.0667
  118OSM    C2F12449   3.769   6.926  10.468 -0.0921 -0.5630 -0.9256
  118OSM    H2F12450   3.838   6.985  10.533 -1.4147 -0.8146  0.7461
  118OSM    H2G12451   3.721   7.006  10.407 -2.9192  0.8651  2.9389
  118OSM    C3F12452   3.850   6.829  10.391 -0.4379  0.4572  0.1545
  118OSM    H3F12453   3.905   6.761  10.460 -0.6009 -0.9155 -1.0403
  118OSM    H3G12454   3.930   6.884  10.336  0.2916  0.4964  1.2405
  118OSM    C4F12455   3.768   6.735  10.295  0.0616 -0.6805 -0.1467
  118OSM    H4F12456   3.719   6.653  10.350  0.4712 -1.2761 -0.6547
  118OSM    H4G12457   3.840   6.688  10.224  0.3552 -1.6942  0.8163
  118OSM    C5F12458   3.666   6.806  10.207 -0.4961 -0.5389  0.0268
  118OSM    H5F12459   3.597   6.874  10.262 -0.2273  1.2794 -1.7911
  118OSM    H5G12460   3.599   6.730  10.162 -1.2988  0.0938  0.1354
  118OSM    C6F12461   3.735   6.890  10.093  0.6043 -0.6031 -0.5205
  118OSM    H6F12462   3.824   6.943  10.133  1.6136 -2.6415 -0.0370
  118OSM    H6G12463   3.652   6.959  10.065  2.1777  2.0439  1.0783
  118OSM    C7F12464   3.778   6.807   9.974  0.7441  1.0115 -0.3113
  118OSM    H7F12465   3.687   6.754   9.940  1.5819 -1.6343  1.3896
  118OSM    H7G12466   3.851   6.732  10.011 -2.0574 -2.4464 -1.5351
  118OSM    C8F12467   3.819   6.886   9.849  0.1033 -0.4595 -0.3272
  118OSM    H8F12468   3.919   6.932   9.864 -0.1770  0.1916 -0.4629
  118OSM    H8G12469   3.749   6.970   9.832 -0.0508 -0.5407 -0.0938
  118OSM    C9F12470   3.827   6.808   9.719 -0.2715  0.3818  0.3629
  118OSM    H9F12471   3.931   6.773   9.709  0.1525  1.5062  0.7162
  118OSM   C10F12472   3.740   6.788   9.623 -0.1447 -0.7679  0.3786
  118OSM   H10F12473   3.752   6.722   9.535 -0.8709  1.2423 -1.2657
  118OSM   C11F12474   3.600   6.834   9.625 -0.3271 -0.1113  0.6975
  118OSM   H11F12475   3.560   6.848   9.728 -0.2337  1.8597  0.4826
  118OSM   H11G12476   3.542   6.745   9.594 -0.4968  1.1326 -2.7931
  118OSM   C12F12477   3.570   6.961   9.536  0.0716  0.2475  0.2495
  118OSM   H12F12478   3.630   7.046   9.576  0.0122 -0.0678  1.0143
  118OSM   H12G12479   3.463   6.990   9.546 -0.4807 -0.8794 -2.1346
  118OSM   C13F12480   3.603   6.952   9.388  0.3424  0.5843  0.6103
  118OSM   H13F12481   3.574   6.855   9.341  0.7347  1.0574 -0.6111
  118OSM   H13G12482   3.714   6.954   9.383  0.4212  0.3949  1.9736
  118OSM   C14F12483   3.555   7.067   9.300  0.3203 -0.5322  1.1847
  118OSM   H14F12484   3.613   7.160   9.317  0.6490 -0.6214  0.5436
  118OSM   H14G12485   3.449   7.089   9.324 -0.2767 -2.7727  0.6840
  118OSM   C15F12486   3.571   7.030   9.155  0.0342 -0.5362  0.2357
  118OSM   H15F12487   3.471   6.995   9.122  0.9077 -0.1169 -3.0153
  118OSM   H15G12488   3.638   6.944   9.136 -0.4352 -0.9123  0.2763
  118OSM   C16F12489   3.615   7.146   9.063  0.0831  0.1546  0.1067
  118OSM   H16F12490   3.723   7.163   9.084 -0.0119 -0.9978  1.6357
  118OSM   H16G12491   3.564   7.240   9.093 -1.0767 -1.2086  2.5645
  118OSM   C17F12492   3.590   7.114   8.918  0.3174  0.6693 -1.1194
  118OSM   H17F12493   3.482   7.090   8.903  0.8119 -0.8247 -2.3596
  118OSM   H17G12494   3.644   7.020   8.898 -0.3540 -0.4579  2.0904
  118OSM   C18F12495   3.632   7.219   8.819  0.3873  0.6070  0.9602
  118OSM   H18F12496   3.602   7.191   8.716  2.1791 -0.3101  0.6890
  118OSM   H18G12497   3.739   7.249   8.820  0.8885 -1.1727  2.1337
  118OSM   H18H12498   3.579   7.315   8.841  0.5667  0.6654  1.1355
  119OSM      N12499   4.684   5.806  11.141  0.2551  0.2140  0.1875
  119OSM    C1512500   4.664   5.667  11.105  0.1376  0.4593  1.0164
  119OSM   H15A12501   4.747   5.643  11.040 -2.1302 -2.7935 -0.8065
  119OSM   H15B12502   4.574   5.660  11.046 -0.4814  3.0368  1.5716
  119OSM   H15C12503   4.653   5.607  11.194  1.8441  0.8172  1.4818
  119OSM    C1412504   4.567   5.840  11.230 -1.4336 -0.3720  0.3158
  119OSM   H14A12505   4.561   5.774  11.316  2.0661  0.6351  1.3795
  119OSM   H14B12506   4.475   5.820  11.177 -1.4843 -0.8405  0.5773
  119OSM   H14C12507   4.577   5.943  11.261  2.9079 -0.0717 -1.7613
  119OSM    C1312508   4.810   5.813  11.228 -0.1381  0.0392  1.1577
  119OSM   H13A12509   4.900   5.792  11.173 -0.5073  1.5606 -0.0803
  119OSM   H13B12510   4.792   5.747  11.312 -0.0462 -1.1958  0.2276
  119OSM   H13C12511   4.819   5.913  11.269  0.3515  1.3936 -2.1250
  119OSM    C1212512   4.699   5.896  11.021  0.2332  0.1904  0.4863
  119OSM   H12A12513   4.780   5.857  10.960 -0.9357 -1.9296  0.2130
  119OSM   H12B12514   4.722   5.995  11.057 -1.0603 -0.1962  2.4578
  119OSM    C1112515   4.576   5.907  10.930  0.0313  0.1621 -0.5196
  119OSM   H11A12516   4.539   5.809  10.895 -1.2788  0.5724 -0.3054
  119OSM   H11B12517   4.613   5.957  10.838 -2.5663  0.3049 -1.5158
  119OSM      P12518   4.449   6.118  10.994 -0.1272 -0.1952 -0.0973
  119OSM    O1312519   4.339   6.160  11.079  0.4962 -0.3583 -0.5454
  119OSM    O1412520   4.585   6.159  11.023  0.2425 -0.8882  0.1303
  119OSM    O1112521   4.431   6.149  10.835  0.6159 -0.1616  0.7055
  119OSM    O1212522   4.459   5.968  10.992  0.7308 -0.2704  0.2977
  119OSM    C1S12523   4.336   6.069  10.767 -0.4495  0.3409  0.0032
  119OSM    H1S12524   4.232   6.103  10.784 -0.9691 -0.9953 -0.4422
  119OSM    H1T12525   4.346   5.960  10.783 -1.6346 -0.0608 -1.8957
  119OSM     NF12526   4.240   6.010  10.549  0.1979  0.1516  0.0811
  119OSM    HNF12527   4.262   5.919  10.514  0.1072 -0.5016  1.6605
  119OSM    C2S12528   4.342   6.088  10.611 -0.3508  0.7257  0.3178
  119OSM    H2S12529   4.324   6.195  10.587  1.1576  0.5643 -1.6251
  119OSM    C3S12530   4.476   6.032  10.560  0.2583  0.4182  0.1279
  119OSM    H3S12531   4.476   5.926  10.592  0.1763  0.6387  0.8887
  119OSM     O312532   4.588   6.107  10.607 -0.0270 -0.0228 -0.1026
  119OSM    HO312533   4.545   6.147  10.683  1.6561  0.7345  0.4892
  119OSM    C4S12534   4.480   6.030  10.408 -0.6911 -0.4234  1.0138
  119OSM    H4S12535   4.462   5.927  10.372 -0.3841 -0.0571 -0.2304
  119OSM    C5S12536   4.503   6.128  10.321 -0.1918  0.0530  0.2356
  119OSM    H5S12537   4.503   6.233  10.356 -0.2755  0.6513 -1.4914
  119OSM    C6S12538   4.507   6.125  10.169 -0.3800 -0.1357 -0.1671
  119OSM    H6S12539   4.610   6.137  10.129 -0.0367  1.2007  1.0859
  119OSM    H6T12540   4.446   6.202  10.118 -0.6513 -1.9371 -2.6381
  119OSM    C7S12541   4.460   5.993  10.103  0.1496 -0.4001 -0.4354
  119OSM    H7S12542   4.351   5.982  10.124 -0.0468  2.3472  0.1737
  119OSM    H7T12543   4.512   5.907  10.151 -0.7505 -0.3518  0.6547
  119OSM    C8S12544   4.477   5.989   9.949  0.4777 -0.1414  0.4534
  119OSM    H8S12545   4.479   5.880   9.930 -4.1491 -0.3167  0.3739
  119OSM    H8T12546   4.574   6.027   9.911  0.3565 -1.0057 -0.7442
  119OSM    C9S12547   4.356   6.055   9.869  0.1882 -0.6882 -0.4547
  119OSM    H9S12548   4.391   6.160   9.866  0.1485 -0.7115 -2.0233
  119OSM    H9T12549   4.262   6.052   9.928 -1.0130  0.0547 -2.2772
  119OSM   C10S12550   4.340   5.999   9.729  0.2073  0.7566 -0.1106
  119OSM   H10S12551   4.295   5.898   9.736  3.6106 -0.7654  0.9531
  119OSM   H10T12552   4.437   5.993   9.675 -0.5191  1.4933 -1.5139
  119OSM   C11S12553   4.255   6.095   9.645  0.3815  0.2263  0.3308
  119OSM   H11S12554   4.318   6.186   9.639  0.9559 -0.1688  0.3767
  119OSM   H11T12555   4.157   6.117   9.693  0.1866  1.6984 -0.7173
  119OSM   C12S12556   4.235   6.054   9.502  0.3782  0.2498 -0.2064
  119OSM   H12S12557   4.159   5.973   9.503  1.1908 -0.5060  1.2659
  119OSM   H12T12558   4.325   6.003   9.462  2.0537  2.5861  0.4838
  119OSM   C13S12559   4.189   6.153   9.401  0.1349 -0.3762 -0.0846
  119OSM   H13S12560   4.272   6.222   9.374  1.0908 -1.4704  0.0065
  119OSM   H13T12561   4.109   6.211   9.452  0.9575  1.0118 -0.3389
  119OSM   C14S12562   4.137   6.083   9.275 -0.2865 -0.1092 -0.3146
  119OSM   H14S12563   4.076   5.993   9.299  1.2748 -0.6261  1.8999
  119OSM   H14T12564   4.217   6.055   9.202 -0.0328  2.3257 -1.0221
  119OSM   C15S12565   4.032   6.189   9.223 -0.3069 -0.1384 -0.6232
  119OSM   H15S12566   4.080   6.289   9.218 -1.5516  0.6170  1.9122
  119OSM   H15T12567   3.934   6.199   9.274 -0.0331 -0.7538  0.0336
  119OSM   C16S12568   3.997   6.158   9.076 -0.0555 -0.2296  0.2196
  119OSM   H16S12569   4.084   6.118   9.019 -0.3968 -1.2579  0.4127
  119OSM   H16T12570   3.961   6.251   9.026  0.7387 -1.6330 -3.1294
  119OSM   C17S12571   3.881   6.059   9.055 -0.2479  0.6673  0.1346
  119OSM   H17S12572   3.798   6.081   9.126  1.1005 -0.9887  2.3043
  119OSM   H17T12573   3.920   5.959   9.083 -0.0369  0.4367 -0.9491
  119OSM   C18S12574   3.818   6.047   8.912  0.6037 -0.2763 -0.2489
  119OSM   H18S12575   3.709   6.028   8.913  0.5745 -0.4436 -2.8800
  119OSM   H18T12576   3.876   5.981   8.844  1.1746  0.5033 -0.5324
  119OSM   H18U12577   3.832   6.147   8.865 -0.5349  0.0999  0.1885
  119OSM    C1F12578   4.112   6.039  10.543  0.3816 -0.1546 -0.1961
  119OSM     OF12579   4.067   6.133  10.607  0.1852  0.1688 -0.4687
  119OSM    C2F12580   4.012   5.959  10.464 -0.0180  0.3722  0.0923
  119OSM    H2F12581   3.908   5.998  10.463 -0.0978  0.1638 -2.8099
  119OSM    H2G12582   3.997   5.860  10.512 -3.3734 -0.1460 -1.8956
  119OSM    C3F12583   4.060   5.950  10.319  0.2226  0.1295  0.4003
  119OSM    H3F12584   4.159   5.901  10.325 -0.6787 -1.6179  1.8896
  119OSM    H3G12585   4.062   6.051  10.274  1.6120  0.0051  0.1749
  119OSM    C4F12586   3.962   5.885  10.220  0.2706 -0.4219 -0.2034
  119OSM    H4F12587   3.862   5.924  10.246 -0.0970 -1.6602  0.2653
  119OSM    H4G12588   3.964   5.778  10.247  0.0975 -0.3738  0.0009
  119OSM    C5F12589   3.989   5.921  10.071  0.0660 -0.2043 -0.3201
  119OSM    H5F12590   4.084   5.878  10.034  0.6509  1.4909 -0.8562
  119OSM    H5G12591   4.004   6.030  10.053 -4.4291  0.4131 -1.0358
  119OSM    C6F12592   3.877   5.872   9.972  0.4675 -0.3304 -0.9099
  119OSM    H6F12593   3.792   5.937  10.000 -0.5565 -1.4940 -1.2658
  119OSM    H6G12594   3.852   5.764   9.980 -1.5616  0.2420  1.0523
  119OSM    C7F12595   3.908   5.919   9.827 -0.3310  0.4536  0.2828
  119OSM    H7F12596   4.004   5.873   9.795 -0.0772  1.4535 -0.4080
  119OSM    H7G12597   3.911   6.030   9.823  1.0902  0.4252  0.4843
  119OSM    C8F12598   3.794   5.883   9.729  0.7406 -0.1958  0.5832
  119OSM    H8F12599   3.713   5.950   9.767  1.4003  1.3057 -0.6425
  119OSM    H8G12600   3.768   5.776   9.747  1.1831 -0.5845 -1.0236
  119OSM    C9F12601   3.825   5.920   9.584  0.7301  0.7915 -0.3546
  119OSM    H9F12602   3.892   6.007   9.572 -0.3474  1.6299 -0.4694
  119OSM   C10F12603   3.799   5.836   9.481 -0.3026 -0.0330  0.1308
  119OSM   H10F12604   3.824   5.855   9.376  0.4136  0.4074  0.3743
  119OSM   C11F12605   3.722   5.699   9.468 -0.8704 -0.0280  0.4949
  119OSM   H11F12606   3.688   5.654   9.564  0.1743 -0.0115  0.8835
  119OSM   H11G12607   3.769   5.620   9.406 -1.5859 -1.0682  1.2665
  119OSM   C12F12608   3.579   5.745   9.410 -0.4352 -0.1249 -0.7506
  119OSM   H12F12609   3.564   5.848   9.448 -0.2414 -0.7668  1.1061
  119OSM   H12G12610   3.493   5.681   9.441  0.1751 -0.2624  0.6494
  119OSM   C13F12611   3.570   5.755   9.261  0.3187 -0.0223  0.1672
  119OSM   H13F12612   3.663   5.808   9.232 -0.1205  0.8186  0.2582
  119OSM   H13G12613   3.481   5.819   9.241  1.0521  0.7579 -0.6241
  119OSM   C14F12614   3.564   5.625   9.179 -0.1938 -0.2581  0.2678
  119OSM   H14F12615   3.485   5.562   9.225 -2.0620  0.2549 -2.1466
  119OSM   H14G12616   3.664   5.577   9.190 -0.4755 -1.4768 -2.3068
  119OSM   C15F12617   3.510   5.643   9.037  0.4538 -0.1638 -0.0481
  119OSM   H15F12618   3.420   5.707   9.039 -0.8160 -1.9431  0.9039
  119OSM   H15G12619   3.470   5.544   9.007 -0.4210 -0.1015  0.9173
  119OSM   C16F12620   3.609   5.696   8.928  0.0482  0.9654 -0.3729
  119OSM   H16F12621   3.702   5.639   8.948 -0.0248  0.4387 -1.5086
  119OSM   H16G12622   3.638   5.797   8.966 -0.3707  0.6702  0.7574
  119OSM   C17F12623   3.563   5.687   8.782 -0.5398  0.4302  0.1136
  119OSM   H17F12624   3.545   5.791   8.747 -2.0720 -0.0286 -0.4814
  119OSM   H17G12625   3.461   5.644   8.771  0.5658 -2.2414 -0.2696
  119OSM   C18F12626   3.666   5.619   8.691  0.1225  0.1162 -0.3141
  119OSM   H18F12627   3.757   5.682   8.694  0.2669 -0.1458  2.1123
  119OSM   H18G12628   3.640   5.619   8.583 -1.7762 -1.4034  0.1131
  119OSM   H18H12629   3.678   5.515   8.728  0.0414 -0.7814 -2.7635
  120OSM      N12630   3.651   2.840  10.978 -0.0512  0.2155  0.0915
  120OSM    C1512631   3.559   2.756  11.052 -0.4197  0.1729 -0.8667
  120OSM   H15A12632   3.458   2.794  11.053 -1.4513 -2.4514  0.9756
  120OSM   H15B12633   3.591   2.734  11.153  0.2319 -0.8915 -1.2922
  120OSM   H15C12634   3.559   2.656  11.010  1.0530 -1.3000  2.4797
  120OSM    C1412635   3.633   2.983  11.025 -0.1596 -0.0636  0.5473
  120OSM   H14A12636   3.541   3.025  10.987 -0.2618 -0.1442  0.7070
  120OSM   H14B12637   3.714   3.043  10.986  0.2664 -1.5016 -0.8156
  120OSM   H14C12638   3.634   2.979  11.133 -1.9828 -0.4619  0.5633
  120OSM    C1312639   3.789   2.795  11.013 -0.5061  1.1714  0.3925
  120OSM   H13A12640   3.853   2.872  10.972 -0.7555  0.2892 -1.6791
  120OSM   H13B12641   3.817   2.698  10.974  1.9728  2.1152 -0.2710
  120OSM   H13C12642   3.811   2.790  11.119 -0.5246  1.6483  0.4194
  120OSM    C1212643   3.633   2.814  10.829 -0.3636  0.0587  0.0469
  120OSM   H12A12644   3.670   2.715  10.805 -0.8696  0.2465 -1.5757
  120OSM   H12B12645   3.684   2.885  10.766 -1.0430 -1.4579 -2.3087
  120OSM    C1112646   3.492   2.832  10.759 -0.1549  1.0467 -0.7433
  120OSM   H11A12647   3.509   2.809  10.652  0.8008 -0.9072 -0.1862
  120OSM   H11B12648   3.462   2.939  10.769  0.5999  1.1288  0.8356
  120OSM      P12649   3.240   2.775  10.791  0.1032 -0.0178 -0.5594
  120OSM    O1312650   3.161   2.706  10.891  0.0200  0.3632 -0.2394
  120OSM    O1412651   3.219   2.923  10.774  0.2558  0.2175  0.4352
  120OSM    O1112652   3.213   2.710  10.654 -0.0012  0.2578  0.0348
  120OSM    O1212653   3.392   2.742  10.813 -0.2901 -0.2805  0.0961
  120OSM    C1S12654   3.228   2.779  10.531 -0.1051 -0.5296 -0.0294
  120OSM    H1S12655   3.324   2.835  10.524  0.2509 -0.9643  1.2622
  120OSM    H1T12656   3.145   2.851  10.515 -0.5654 -0.8547  0.8939
  120OSM     NF12657   3.235   2.750  10.276  0.3747  0.1211 -0.5126
  120OSM    HNF12658   3.153   2.799  10.248  0.1639  0.5757  0.8429
  120OSM    C2S12659   3.217   2.685  10.403  0.4002  0.0301  0.1959
  120OSM    H2S12660   3.296   2.610  10.424  0.5989  0.0916 -0.3355
  120OSM    C3S12661   3.073   2.621  10.407  0.6851  0.1466 -0.2649
  120OSM    H3S12662   2.997   2.697  10.381 -1.5639 -1.3034  1.8707
  120OSM     O312663   3.037   2.569  10.541  0.0171  0.0065 -0.0266
  120OSM    HO312664   3.109   2.609  10.591  0.8724  2.2683 -2.9307
  120OSM    C4S12665   3.068   2.500  10.315  0.0671  0.3033 -0.7382
  120OSM    H4S12666   2.999   2.523  10.233  0.4861 -3.0068 -2.0820
  120OSM    C5S12667   3.129   2.379  10.314 -0.0869 -0.0445 -1.0460
  120OSM    H5S12668   3.194   2.354  10.399  0.8160  1.6197 -1.2252
  120OSM    C6S12669   3.116   2.266  10.216 -0.4207 -0.0257 -0.8658
  120OSM    H6S12670   3.061   2.186  10.269  2.7797 -1.8584 -0.1630
  120OSM    H6T12671   3.208   2.208  10.193  0.5236  0.5582  1.3240
  120OSM    C7S12672   3.033   2.288  10.081  0.0057 -0.4796 -0.1418
  120OSM    H7S12673   3.089   2.364  10.021 -0.8902 -0.6701 -1.2473
  120OSM    H7T12674   2.928   2.318  10.102  0.1048  1.1142 -1.7288
  120OSM    C8S12675   3.021   2.156   9.996  0.5276  0.0925  0.3265
  120OSM    H8S12676   2.992   2.073  10.065 -0.6863 -1.4341 -1.9770
  120OSM    H8T12677   3.119   2.134   9.948  0.2574  2.7539 -1.5408
  120OSM    C9S12678   2.912   2.165   9.892 -0.5927 -0.1440 -0.4623
  120OSM    H9S12679   2.830   2.215   9.948  2.5431  0.8123  3.5048
  120OSM    H9T12680   2.879   2.067   9.851 -3.4759  0.2224  0.8689
  120OSM   C10S12681   2.944   2.256   9.767  0.1033 -0.0078 -0.1994
  120OSM   H10S12682   3.032   2.212   9.716 -1.7637 -1.0039 -2.6325
  120OSM   H10T12683   2.962   2.361   9.800  0.1024  0.5780 -2.0210
  120OSM   C11S12684   2.831   2.250   9.660  0.0650 -0.1051 -0.3998
  120OSM   H11S12685   2.744   2.310   9.694  0.6805 -0.1663  1.3184
  120OSM   H11T12686   2.799   2.148   9.630 -0.7526  0.2829 -0.8698
  120OSM   C12S12687   2.877   2.318   9.525  0.8366 -0.1650 -0.9100
  120OSM   H12S12688   2.940   2.402   9.562 -0.1409  1.2273 -2.3374
  120OSM   H12T12689   2.778   2.348   9.484 -0.4718 -0.1996  2.0511
  120OSM   C13S12690   2.956   2.233   9.425  1.4293  0.2291  0.9690
  120OSM   H13S12691   2.897   2.140   9.410  1.5798  0.3467 -0.4191
  120OSM   H13T12692   3.063   2.212   9.449  1.8074  0.0651 -0.7272
  120OSM   C14S12693   2.963   2.301   9.290 -0.4452  0.3809 -0.0127
  120OSM   H14S12694   3.021   2.396   9.302  0.8419 -0.0674 -2.4818
  120OSM   H14T12695   2.864   2.323   9.246 -0.7443 -3.3725 -1.3339
  120OSM   C15S12696   3.045   2.209   9.195 -0.1800 -0.7469  0.1413
  120OSM   H15S12697   3.011   2.104   9.189 -0.9968 -0.5720  1.4782
  120OSM   H15T12698   3.152   2.213   9.225  0.2888  1.7765 -1.6598
  120OSM   C16S12699   3.044   2.273   9.054 -0.5692  0.3789 -0.3413
  120OSM   H16S12700   2.942   2.298   9.018 -0.5425 -0.4975 -1.0624
  120OSM   H16T12701   3.059   2.182   8.991 -2.9423 -1.9597  2.3297
  120OSM   C17S12702   3.155   2.379   9.024  0.2616  0.5382  0.6824
  120OSM   H17S12703   3.254   2.351   9.066  1.7235  2.8814 -1.0861
  120OSM   H17T12704   3.122   2.470   9.076  1.1797  0.7124  0.9772
  120OSM   C18S12705   3.166   2.412   8.873 -0.0418 -0.1828  0.1388
  120OSM   H18S12706   3.064   2.433   8.833  0.5073  2.8802  0.2199
  120OSM   H18T12707   3.211   2.328   8.815 -1.4527 -0.8890  0.0459
  120OSM   H18U12708   3.231   2.502   8.866  0.4477 -0.6497 -1.5393
  120OSM    C1F12709   3.360   2.787  10.248  0.6142  0.1477  1.3622
  120OSM     OF12710   3.454   2.766  10.323  0.0256  0.0726 -0.0247
  120OSM    C2F12711   3.382   2.860  10.115 -0.3833  0.2552  0.0630
  120OSM    H2F12712   3.491   2.851  10.097 -0.4116 -0.6118  0.3123
  120OSM    H2G12713   3.364   2.969  10.128  0.8795  0.4767  0.0004
  120OSM    C3F12714   3.300   2.809   9.996 -0.6833 -0.5025 -0.4683
  120OSM    H3F12715   3.199   2.844  10.027 -0.8788 -1.7299  0.3238
  120OSM    H3G12716   3.303   2.699   9.984 -0.1952 -0.5137 -0.2736
  120OSM    C4F12717   3.318   2.882   9.857  0.0976 -0.0607 -0.0172
  120OSM    H4F12718   3.307   2.991   9.870 -0.0158 -0.0399 -0.2773
  120OSM    H4G12719   3.236   2.853   9.788  2.7620 -0.8760 -2.9908
  120OSM    C5F12720   3.452   2.846   9.787  0.8655  0.4607  0.0931
  120OSM    H5F12721   3.439   2.743   9.746  0.4552  0.3639  0.4727
  120OSM    H5G12722   3.528   2.831   9.866  0.7150 -0.2345  0.1147
  120OSM    C6F12723   3.474   2.923   9.657 -0.3345 -0.0125  0.2347
  120OSM    H6F12724   3.574   2.908   9.610 -0.9362  1.8586 -1.7299
  120OSM    H6G12725   3.457   3.030   9.683  0.7612 -0.0180  0.9837
  120OSM    C7F12726   3.370   2.903   9.536  0.3499 -0.3783 -0.4678
  120OSM    H7F12727   3.263   2.909   9.566  0.8623 -0.7142  1.4999
  120OSM    H7G12728   3.388   2.807   9.483 -0.0442  0.3111 -1.8794
  120OSM    C8F12729   3.399   3.018   9.434 -0.3537 -0.2485  0.1161
  120OSM    H8F12730   3.505   3.013   9.401  0.0724 -0.6855  1.4926
  120OSM    H8G12731   3.388   3.122   9.472  1.4462  0.9210 -2.3977
  120OSM    C9F12732   3.299   2.992   9.322 -0.2868  0.0163  0.4691
  120OSM    H9F12733   3.197   3.022   9.350 -0.0979  0.6188  0.5250
  120OSM   C10F12734   3.306   2.921   9.204 -0.6796  0.0297  0.4335
  120OSM   H10F12735   3.223   2.891   9.138 -0.5150  0.1148  0.1875
  120OSM   C11F12736   3.436   2.852   9.155  0.4710 -0.2911 -0.1326
  120OSM   H11F12737   3.434   2.741   9.167  0.7484 -0.1932  0.8638
  120OSM   H11G12738   3.517   2.883   9.224  0.4874 -0.3683 -0.1169
  120OSM   C12F12739   3.472   2.878   9.011 -0.0403  0.5515  0.0961
  120OSM   H12F12740   3.577   2.844   8.999  0.3846  2.0594 -0.6075
  120OSM   H12G12741   3.454   2.987   9.012 -0.5069  0.4745  1.9314
  120OSM   C13F12742   3.386   2.804   8.908  0.8106 -0.1323  0.5379
  120OSM   H13F12743   3.281   2.837   8.914  1.4206  1.8853  0.6041
  120OSM   H13G12744   3.383   2.697   8.937 -0.1164  0.2777  1.9519
  120OSM   C14F12745   3.426   2.810   8.752 -0.7056 -0.4079 -0.2879
  120OSM   H14F12746   3.406   2.916   8.726 -1.0815 -0.0261  1.4902
  120OSM   H14G12747   3.349   2.742   8.708 -1.7378  0.5775 -0.0115
  120OSM   C15F12748   3.578   2.768   8.736  0.0538  0.0526 -0.2579
  120OSM   H15F12749   3.581   2.657   8.744  2.6761 -0.0469 -2.2630
  120OSM   H15G12750   3.644   2.818   8.810 -0.8244  0.6942  0.1089
  120OSM   C16F12751   3.614   2.805   8.593 -0.2370 -1.2057  0.3919
  120OSM   H16F12752   3.611   2.916   8.586  0.1880 -1.2887 -1.4102
  120OSM   H16G12753   3.531   2.774   8.527 -0.2579 -1.0570  0.3482
  120OSM   C17F12754   3.747   2.760   8.541 -0.0544  0.7089 -0.1796
  120OSM   H17F12755   3.814   2.810   8.614  0.7932  0.9377 -1.1174
  120OSM   H17G12756   3.773   2.806   8.444 -0.1381  0.1400 -0.4684
  120OSM   C18F12757   3.769   2.609   8.533 -0.2826 -0.2258  0.1972
  120OSM   H18F12758   3.873   2.584   8.505 -0.0998  0.4514  0.2643
  120OSM   H18G12759   3.697   2.579   8.453  0.8099 -0.5320 -0.6873
  120OSM   H18H12760   3.737   2.550   8.621 -1.2818  0.3861  0.2615
  121OSM      N12761   2.072   5.893  10.638  0.2366  0.5861 -0.3357
  121OSM    C1512762   2.128   5.820  10.522  0.7467 -0.0459 -0.3538
  121OSM   H15A12763   2.113   5.714  10.531  1.6300 -0.0491  1.1844
  121OSM   H15B12764   2.236   5.825  10.523  0.8863 -2.6620  1.6551
  121OSM   H15C12765   2.082   5.855  10.431  1.2346  1.1826 -0.1370
  121OSM    C1412766   2.095   6.044  10.611 -0.6867  0.1002  0.3989
  121OSM   H14A12767   2.037   6.086  10.529 -0.1236  1.0764  0.4913
  121OSM   H14B12768   2.200   6.057  10.592 -0.3136 -0.3361  2.1493
  121OSM   H14C12769   2.086   6.095  10.706  0.5177  1.4593 -0.2011
  121OSM    C1312770   1.918   5.879  10.655 -0.8249  0.6032  0.4099
  121OSM   H13A12771   1.867   5.914  10.566  2.1692  0.2846 -1.4919
  121OSM   H13B12772   1.873   5.931  10.738 -1.9895 -0.2995  0.3554
  121OSM   H13C12773   1.883   5.777  10.656  1.1250 -0.0668  0.1856
  121OSM    C1212774   2.153   5.854  10.763  0.3183 -1.0357  0.4246
  121OSM   H12A12775   2.140   5.932  10.837 -1.1386  0.7702 -1.6935
  121OSM   H12B12776   2.258   5.859  10.737  0.0485 -1.0133 -0.6496
  121OSM    C1112777   2.137   5.710  10.820 -0.5223  1.0149 -1.1216
  121OSM   H11A12778   2.147   5.639  10.735  0.7355  1.3711 -1.2811
  121OSM   H11B12779   2.036   5.683  10.859  0.5321  0.1389  1.0844
  121OSM      P12780   2.379   5.668  10.930 -0.0762 -0.0799  0.3672
  121OSM    O1312781   2.447   5.720  11.055  0.1930 -0.1547  0.3160
  121OSM    O1412782   2.414   5.530  10.884 -0.4142 -0.2365  0.1871
  121OSM    O1112783   2.414   5.768  10.815  0.2021 -0.3332 -0.5336
  121OSM    O1212784   2.223   5.681  10.932  0.6731  0.3526  0.0160
  121OSM    C1S12785   2.486   5.717  10.702 -0.4546  0.2062 -0.5644
  121OSM    H1S12786   2.414   5.660  10.639  0.2506 -0.1755 -1.0376
  121OSM    H1T12787   2.568   5.648  10.732 -0.4462  0.0360 -0.9739
  121OSM     NF12788   2.604   5.770  10.501 -0.4947  0.1332  0.6466
  121OSM    HNF12789   2.687   5.715  10.510 -1.4918 -1.5525 -0.1333
  121OSM    C2S12790   2.554   5.835  10.621 -0.4738  0.1229  1.0607
  121OSM    H2S12791   2.469   5.904  10.603 -0.2996  0.2332  0.6537
  121OSM    C3S12792   2.653   5.912  10.704  0.6129  0.4298 -0.9563
  121OSM    H3S12793   2.730   5.846  10.750  0.7854  1.0199 -0.3975
  121OSM     O312794   2.601   5.959  10.829 -0.0981  0.1287 -0.0714
  121OSM    HO312795   2.542   5.887  10.852  0.6371 -0.7878 -0.9921
  121OSM    C4S12796   2.702   6.036  10.635 -0.3160  0.1082  0.2535
  121OSM    H4S12797   2.632   6.119  10.618 -1.5956 -1.0416 -0.2539
  121OSM    C5S12798   2.837   6.045  10.604  0.0493 -0.0062  0.6912
  121OSM    H5S12799   2.913   5.971  10.633  0.2932 -0.0042  0.0664
  121OSM    C6S12800   2.899   6.167  10.546 -0.5052 -0.4215 -0.2641
  121OSM    H6S12801   2.934   6.226  10.632  1.1272  0.4312 -1.4895
  121OSM    H6T12802   2.830   6.237  10.494 -1.5936  0.3964  2.2218
  121OSM    C7S12803   3.008   6.150  10.450 -0.3360  0.6346  0.4741
  121OSM    H7S12804   3.082   6.070  10.472 -1.7182 -0.5517  0.8710
  121OSM    H7T12805   3.064   6.245  10.433 -1.6041  1.4000  0.5120
  121OSM    C8S12806   2.951   6.107  10.316 -0.4952  0.1054  0.3730
  121OSM    H8S12807   2.874   6.177  10.277 -1.7256 -2.4581 -2.0173
  121OSM    H8T12808   2.899   6.010  10.335 -1.8278  0.8372  0.5319
  121OSM    C9S12809   3.047   6.104  10.199 -0.5123  0.0822 -1.1206
  121OSM    H9S12810   3.112   6.014  10.201 -0.7607 -0.0929 -1.0287
  121OSM    H9T12811   3.111   6.195  10.207  0.1515 -0.4507 -0.2718
  121OSM   C10S12812   2.970   6.104  10.065 -0.1495  0.2121 -0.4660
  121OSM   H10S12813   2.869   6.149  10.078 -1.1700 -0.5587 -4.7982
  121OSM   H10T12814   2.965   5.998  10.033 -1.1562 -0.0264  0.4632
  121OSM   C11S12815   3.050   6.173   9.956  0.6579 -0.2779  0.0223
  121OSM   H11S12816   3.152   6.130   9.959 -0.1007 -2.0416  4.0538
  121OSM   H11T12817   3.049   6.282   9.977 -2.5752  0.0902 -1.6556
  121OSM   C12S12818   2.986   6.136   9.821 -0.0947  0.1875 -0.4533
  121OSM   H12S12819   2.875   6.147   9.820 -0.3459 -2.0824 -0.3096
  121OSM   H12T12820   2.997   6.028   9.796  0.7898  0.1383  0.1350
  121OSM   C13S12821   3.037   6.216   9.707  0.2991  0.7084 -0.5039
  121OSM   H13S12822   3.147   6.203   9.703  0.1295 -1.7457  1.4359
  121OSM   H13T12823   3.015   6.324   9.721  0.0062  0.7957 -1.5683
  121OSM   C14S12824   2.970   6.186   9.571  0.2689  0.1060  0.0777
  121OSM   H14S12825   2.887   6.260   9.579  0.4455 -0.0268  4.0463
  121OSM   H14T12826   2.933   6.081   9.562 -2.0616  0.9863 -0.9831
  121OSM   C15S12827   3.046   6.216   9.441  0.1037 -0.7511  0.1223
  121OSM   H15S12828   3.139   6.157   9.431 -0.2434 -0.8593 -2.7073
  121OSM   H15T12829   3.078   6.322   9.432 -0.2271 -0.8447 -2.3501
  121OSM   C16S12830   2.958   6.200   9.313 -0.3344 -0.2262  0.3871
  121OSM   H16S12831   2.890   6.112   9.317  0.4510 -0.8806 -0.5837
  121OSM   H16T12832   3.026   6.194   9.226  0.0155 -5.5065  0.8577
  121OSM   C17S12833   2.869   6.327   9.282  0.4198 -0.9067  0.7064
  121OSM   H17S12834   2.918   6.426   9.274  0.2884 -0.8257  0.9088
  121OSM   H17T12835   2.813   6.331   9.377 -0.9008 -0.0584 -0.0921
  121OSM   C18S12836   2.789   6.313   9.154  0.1779 -0.7796 -0.2840
  121OSM   H18S12837   2.708   6.388   9.170  0.5049 -0.4552 -0.1382
  121OSM   H18T12838   2.767   6.209   9.125  0.9058 -1.1074  0.3139
  121OSM   H18U12839   2.858   6.353   9.077  0.7897 -0.9607  0.1633
  121OSM    C1F12840   2.526   5.727  10.405 -0.3139  1.0192  0.2201
  121OSM     OF12841   2.405   5.751  10.411  0.0033  0.3563 -0.0477
  121OSM    C2F12842   2.591   5.676  10.279  0.7012 -0.1773  0.0143
  121OSM    H2F12843   2.651   5.586  10.306  2.2423  0.5131 -0.9690
  121OSM    H2G12844   2.678   5.739  10.251  0.0781  0.7029  0.0600
  121OSM    C3F12845   2.487   5.640  10.170 -0.7226  0.4180 -0.8829
  121OSM    H3F12846   2.438   5.725  10.117  1.1090  2.0087 -0.0973
  121OSM    H3G12847   2.400   5.586  10.215  1.3880 -2.2369  0.1476
  121OSM    C4F12848   2.544   5.552  10.058 -0.7002 -0.0150 -0.3655
  121OSM    H4F12849   2.631   5.490  10.090 -0.3539  1.4140  1.5355
  121OSM    H4G12850   2.588   5.610   9.974  1.3854 -1.5654 -0.4071
  121OSM    C5F12851   2.449   5.455   9.997 -0.0546  0.5405  0.3940
  121OSM    H5F12852   2.356   5.503   9.959  1.3071  0.5617 -3.1345
  121OSM    H5G12853   2.414   5.385  10.076 -2.8226  0.6013 -0.7306
  121OSM    C6F12854   2.516   5.391   9.878 -0.5127  0.4623  0.4952
  121OSM    H6F12855   2.617   5.352   9.904 -0.5425 -1.6453 -2.3378
  121OSM    H6G12856   2.541   5.449   9.786 -0.0581 -2.8343 -1.5495
  121OSM    C7F12857   2.427   5.280   9.825 -0.0331 -0.1350 -0.8170
  121OSM    H7F12858   2.322   5.306   9.800  0.2167 -1.2851 -3.2321
  121OSM    H7G12859   2.417   5.211   9.912  1.1675 -1.3063 -1.5827
  121OSM    C8F12860   2.496   5.198   9.709  0.1400 -0.6788 -0.3717
  121OSM    H8F12861   2.593   5.160   9.747  0.7880  0.4301 -0.8910
  121OSM    H8G12862   2.513   5.257   9.616  0.7300 -0.7849 -0.3300
  121OSM    C9F12863   2.413   5.078   9.671  0.7204  0.7345 -0.3408
  121OSM    H9F12864   2.376   5.023   9.759  0.6655  3.2800  1.2904
  121OSM   C10F12865   2.378   5.027   9.546  0.1751  1.0363 -0.3171
  121OSM   H10F12866   2.352   4.921   9.549  0.0021  1.0964  0.2501
  121OSM   C11F12867   2.412   5.087   9.409 -0.2305  0.7352 -0.4285
  121OSM   H11F12868   2.492   5.022   9.366 -0.2335 -1.2520  2.4063
  121OSM   H11G12869   2.469   5.182   9.419  1.3248 -0.1617 -0.6147
  121OSM   C12F12870   2.303   5.095   9.305 -0.6662  0.4316  0.3714
  121OSM   H12F12871   2.233   5.179   9.323 -0.7748  0.5735 -0.6658
  121OSM   H12G12872   2.242   5.003   9.317 -0.0831  0.1117  0.9240
  121OSM   C13F12873   2.358   5.115   9.163  0.2772 -0.6904  0.0487
  121OSM   H13F12874   2.440   5.040   9.153 -0.3117 -1.5343  1.3321
  121OSM   H13G12875   2.393   5.220   9.156  0.1321 -0.6338  0.1833
  121OSM   C14F12876   2.247   5.100   9.051  0.0478 -0.1641 -0.3723
  121OSM   H14F12877   2.183   5.190   9.047 -1.5463 -1.3113 -1.0259
  121OSM   H14G12878   2.183   5.014   9.079  0.0105 -0.6723 -1.9634
  121OSM   C15F12879   2.317   5.072   8.915 -0.1943  0.1098 -0.1293
  121OSM   H15F12880   2.374   4.977   8.920  3.6389  2.4222  2.4264
  121OSM   H15G12881   2.396   5.146   8.894  1.6346 -1.7351  0.0948
  121OSM   C16F12882   2.220   5.049   8.804  0.0015 -0.3758 -0.7677
  121OSM   H16F12883   2.205   5.147   8.755 -3.1703 -1.1262 -1.4189
  121OSM   H16G12884   2.126   5.018   8.854  1.0742  0.6024  1.9266
  121OSM   C17F12885   2.257   4.960   8.687  0.0016  0.5896  0.3434
  121OSM   H17F12886   2.182   4.974   8.606  1.4529 -2.1517 -1.5202
  121OSM   H17G12887   2.232   4.856   8.715 -0.7781  0.2797 -1.4094
  121OSM   C18F12888   2.395   4.978   8.651 -0.0419 -0.3517 -0.8133
  121OSM   H18F12889   2.406   4.922   8.556 -1.3246  1.8559 -2.3020
  121OSM   H18G12890   2.470   4.938   8.723 -1.3846  0.1283  0.8629
  121OSM   H18H12891   2.432   5.081   8.634  0.3662 -0.6544 -1.7708
  122OSM      N12892   2.808   3.407  10.884  0.1553  0.0308  0.8047
  122OSM    C1512893   2.675   3.471  10.905  0.5102 -0.4141  0.3351
  122OSM   H15A12894   2.687   3.563  10.961 -0.7756  0.7428 -1.2490
  122OSM   H15B12895   2.606   3.407  10.958 -1.1602  1.9140  1.0451
  122OSM   H15C12896   2.628   3.491  10.810 -0.2326 -2.3235  0.2719
  122OSM    C1412897   2.881   3.373  11.011 -0.3858  0.2549  0.3346
  122OSM   H14A12898   2.987   3.363  10.996 -0.1616 -1.1871  2.6571
  122OSM   H14B12899   2.835   3.291  11.064 -2.8721  1.2252 -0.2446
  122OSM   H14C12900   2.882   3.460  11.075 -0.2176  1.4756 -1.2755
  122OSM    C1312901   2.789   3.288  10.802 -0.2244  0.2923 -0.4675
  122OSM   H13A12902   2.745   3.301  10.704 -1.8455 -0.4706  0.1423
  122OSM   H13B12903   2.734   3.208  10.851  1.3448  0.3495  1.4345
  122OSM   H13C12904   2.887   3.248  10.783 -1.6968 -2.4197 -2.8070
  122OSM    C1212905   2.903   3.509  10.815  0.7558  0.0443  0.5131
  122OSM   H12A12906   2.844   3.542  10.730 -1.2029 -0.0479  1.8022
  122OSM   H12B12907   2.982   3.455  10.765  0.4394  0.1502 -0.1143
  122OSM    C1112908   2.973   3.629  10.886  0.2898 -0.4959  0.5423
  122OSM   H11A12909   2.895   3.680  10.947 -0.5818 -0.2054 -0.7835
  122OSM   H11B12910   3.017   3.690  10.805 -0.2900 -0.2880  0.3770
  122OSM      P12911   3.232   3.604  10.953 -0.0004  0.3585  0.0961
  122OSM    O1312912   3.268   3.724  11.036  0.3627 -0.3584 -0.1077
  122OSM    O1412913   3.308   3.478  10.989  0.4062  0.0865 -0.0257
  122OSM    O1112914   3.254   3.629  10.800 -0.5799 -0.0470  0.6657
  122OSM    O1212915   3.081   3.574  10.961  0.5293  0.1041 -0.8186
  122OSM    C1S12916   3.309   3.529  10.711  0.1091 -0.5078  0.0911
  122OSM    H1S12917   3.235   3.447  10.706 -2.6333  1.8321  0.5676
  122OSM    H1T12918   3.409   3.496  10.747 -0.1686 -0.9631  0.4349
  122OSM     NF12919   3.365   3.481  10.472 -0.2997  0.9346  0.3733
  122OSM    HNF12920   3.458   3.446  10.464 -0.7474  0.2128 -1.9640
  122OSM    C2S12921   3.333   3.586  10.571 -0.0048 -0.3190 -0.1940
  122OSM    H2S12922   3.241   3.635  10.533  0.6994  2.1547  1.2131
  122OSM    C3S12923   3.440   3.706  10.584  0.1864  0.3495 -0.6271
  122OSM    H3S12924   3.531   3.657  10.624  0.2836 -0.1665 -1.4716
  122OSM     O312925   3.402   3.801  10.692 -0.4033  0.0426 -0.2186
  122OSM    HO312926   3.328   3.762  10.738 -1.8206  2.5836 -0.2542
  122OSM    C4S12927   3.454   3.780  10.462  0.4342  0.0980  1.1317
  122OSM    H4S12928   3.370   3.848  10.442 -0.7186 -1.3235  1.0201
  122OSM    C5S12929   3.544   3.752  10.359 -0.5217 -0.2019  0.3965
  122OSM    H5S12930   3.610   3.665  10.370  0.1552  0.4990  2.1310
  122OSM    C6S12931   3.549   3.849  10.241  0.6318 -0.1379  0.1679
  122OSM    H6S12932   3.648   3.899  10.233  0.6025 -0.3806 -2.1817
  122OSM    H6T12933   3.469   3.924  10.254  0.5243 -0.2282  0.0337
  122OSM    C7S12934   3.523   3.782  10.104 -0.0447 -0.2065 -0.8578
  122OSM    H7S12935   3.436   3.715  10.119 -1.1268  1.1650 -0.8320
  122OSM    H7T12936   3.612   3.720  10.081  0.4945 -0.0446  0.7028
  122OSM    C8S12937   3.500   3.882   9.994  0.4402  0.6625 -0.1789
  122OSM    H8S12938   3.599   3.931   9.982  0.6370  0.1450 -0.6891
  122OSM    H8T12939   3.418   3.956  10.009 -1.5027 -1.4378 -0.2326
  122OSM    C9S12940   3.480   3.804   9.863  0.2274  0.1264  0.5167
  122OSM    H9S12941   3.384   3.748   9.868 -1.0636  1.9284 -2.4537
  122OSM    H9T12942   3.551   3.719   9.859  2.7164  2.1752 -0.7022
  122OSM   C10S12943   3.492   3.898   9.746  0.7566  0.5769 -0.0630
  122OSM   H10S12944   3.590   3.951   9.747 -0.8480  3.6612  0.9313
  122OSM   H10T12945   3.413   3.975   9.761  1.3046  1.8838 -3.3704
  122OSM   C11S12946   3.480   3.840   9.608  0.1023  0.2128 -0.0128
  122OSM   H11S12947   3.391   3.774   9.611  1.3491 -1.5079  0.2723
  122OSM   H11T12948   3.569   3.783   9.574  0.8534  1.4675 -0.1797
  122OSM   C12S12949   3.472   3.952   9.500 -0.6992 -0.6395 -0.2702
  122OSM   H12S12950   3.563   4.015   9.496 -1.0591 -0.1641 -1.0913
  122OSM   H12T12951   3.393   4.022   9.536  2.1885  1.8400  1.4704
  122OSM   C13S12952   3.425   3.917   9.359  0.5163 -0.2763 -0.2137
  122OSM   H13S12953   3.423   4.009   9.297  0.5554  1.1535  1.8332
  122OSM   H13T12954   3.317   3.895   9.374  0.4266  1.8098  2.7946
  122OSM   C14S12955   3.495   3.802   9.291  0.2775 -0.2975 -0.0036
  122OSM   H14S12956   3.445   3.766   9.198  0.9829 -0.7378 -0.2170
  122OSM   H14T12957   3.489   3.712   9.356  4.6578 -0.4790  0.2482
  122OSM   C15S12958   3.647   3.829   9.261 -0.2056  0.7131  0.0712
  122OSM   H15S12959   3.674   3.904   9.338 -1.4478 -1.0666  2.2961
  122OSM   H15T12960   3.671   3.880   9.166  1.1167 -0.6440 -0.3402
  122OSM   C16S12961   3.741   3.710   9.282 -0.3858 -0.6893  0.0009
  122OSM   H16S12962   3.685   3.642   9.350 -3.5861  0.0700 -1.7679
  122OSM   H16T12963   3.823   3.758   9.339  0.7266 -1.4332 -0.9376
  122OSM   C17S12964   3.799   3.645   9.161 -1.0972  0.0328 -0.3586
  122OSM   H17S12965   3.731   3.580   9.102 -0.4834  0.1495 -1.2105
  122OSM   H17T12966   3.876   3.579   9.206 -0.7321  0.5633 -0.1983
  122OSM   C18S12967   3.883   3.728   9.068 -0.1294  0.2310 -0.1929
  122OSM   H18S12968   3.944   3.660   9.006  1.1958 -0.0800  1.4248
  122OSM   H18T12969   3.946   3.797   9.129 -1.5976  0.3998  1.1605
  122OSM   H18U12970   3.820   3.790   9.000  1.7270  1.5821 -0.7053
  122OSM    C1F12971   3.263   3.417  10.417  0.3022 -0.0495  0.4490
  122OSM     OF12972   3.150   3.456  10.428  0.1923  0.0054 -0.0029
  122OSM    C2F12973   3.288   3.290  10.340 -0.7757  0.8775  0.1505
  122OSM    H2F12974   3.204   3.223  10.369 -1.1802  0.9435 -0.8549
  122OSM    H2G12975   3.382   3.244  10.378 -0.9533  1.6091  1.4987
  122OSM    C3F12976   3.296   3.301  10.185 -0.5110  0.0180 -0.3224
  122OSM    H3F12977   3.197   3.340  10.152 -2.1963 -2.3285  1.7518
  122OSM    H3G12978   3.312   3.204  10.135 -0.8903 -0.0867 -0.2446
  122OSM    C4F12979   3.406   3.398  10.145 -0.7838  0.1095  0.0625
  122OSM    H4F12980   3.508   3.354  10.145 -0.8258 -0.1368 -3.7704
  122OSM    H4G12981   3.410   3.488  10.209 -2.6844 -0.5321  1.1376
  122OSM    C5F12982   3.383   3.450   9.999 -0.0947 -0.4996 -0.0161
  122OSM    H5F12983   3.464   3.525   9.987 -1.6264  1.2470  0.3906
  122OSM    H5G12984   3.289   3.508   9.997  0.3786  0.3358  1.7221
  122OSM    C6F12985   3.420   3.333   9.900 -0.0855  0.9047 -0.0258
  122OSM    H6F12986   3.335   3.262   9.896  0.9905 -0.3124 -1.2666
  122OSM    H6G12987   3.508   3.282   9.945  0.6758  0.8918 -1.5101
  122OSM    C7F12988   3.457   3.382   9.754 -0.3817  0.4526  0.1172
  122OSM    H7F12989   3.485   3.288   9.702  1.9939  1.6222 -0.7884
  122OSM    H7G12990   3.556   3.431   9.765  1.0689 -2.1669 -0.8915
  122OSM    C8F12991   3.352   3.466   9.678 -0.1063 -0.0793 -0.4404
  122OSM    H8F12992   3.358   3.570   9.716 -0.3166  0.1623 -1.0753
  122OSM    H8G12993   3.247   3.432   9.695  0.1214  0.2238  1.7423
  122OSM    C9F12994   3.380   3.457   9.531 -0.1365  0.4285  0.2237
  122OSM    H9F12995   3.488   3.444   9.517 -0.1542  0.0235  0.4620
  122OSM   C10F12996   3.299   3.460   9.425 -0.3339  1.3758  0.7965
  122OSM   H10F12997   3.342   3.456   9.324  1.9033  0.5356  1.7357
  122OSM   C11F12998   3.152   3.498   9.437  0.6977 -0.4490  0.4573
  122OSM   H11F12999   3.121   3.539   9.536 -1.9602  1.3681 -1.0615
  122OSM   H11G13000   3.087   3.411   9.417 -0.8416  0.6475  0.6161
  122OSM   C12F13001   3.124   3.613   9.340 -0.2703  0.1662 -0.3047
  122OSM   H12F13002   3.187   3.702   9.363 -0.2790  0.0310  0.2458
  122OSM   H12G13003   3.021   3.654   9.352 -0.0764  0.0679  1.8808
  122OSM   C13F13004   3.128   3.582   9.194  0.3157 -0.2376  0.2804
  122OSM   H13F13005   3.073   3.488   9.174  1.2480 -0.8035  0.3741
  122OSM   H13G13006   3.232   3.566   9.160  0.2464  0.7101 -0.4285
  122OSM   C14F13007   3.062   3.695   9.111  0.2963 -0.0160 -0.0491
  122OSM   H14F13008   3.084   3.786   9.171 -1.9618 -1.4450  3.0878
  122OSM   H14G13009   2.952   3.680   9.106  0.3564 -0.4228 -0.1619
  122OSM   C15F13010   3.110   3.709   8.961  0.1408  0.4360  0.5253
  122OSM   H15F13011   3.123   3.614   8.904 -0.1014  1.1266 -0.7033
  122OSM   H15G13012   3.213   3.748   8.976  0.2750  0.2632  0.0596
  122OSM   C16F13013   3.030   3.825   8.885  0.4033 -0.6751  0.3197
  122OSM   H16F13014   3.096   3.849   8.799 -0.5686  1.1865  0.0780
  122OSM   H16G13015   3.031   3.910   8.957 -0.0323  1.2955 -1.9461
  122OSM   C17F13016   2.887   3.777   8.846  0.3446  0.3561 -0.2306
  122OSM   H17F13017   2.826   3.751   8.935 -1.8963  2.2693 -1.1414
  122OSM   H17G13018   2.898   3.692   8.776 -1.7167  0.7807 -1.1119
  122OSM   C18F13019   2.810   3.885   8.771  0.0119 -0.0912  0.0854
  122OSM   H18F13020   2.856   3.928   8.680  0.2637 -0.1048  0.2051
  122OSM   H18G13021   2.790   3.967   8.844  1.4972 -0.8692  1.4155
  122OSM   H18H13022   2.713   3.841   8.740  0.3588 -2.2083  1.8797
  123OSM      N13023   0.234   1.887   6.019  0.0222  0.3741 -0.7062
  123OSM    C1513024   0.176   1.899   6.162  0.3119 -0.1539  0.0521
  123OSM   H15A13025   0.245   1.957   6.222 -0.6512  0.2761  0.7607
  123OSM   H15B13026   0.160   1.804   6.211  3.1206 -0.6736  0.0318
  123OSM   H15C13027   0.087   1.960   6.167  0.3899 -0.0715  0.4551
  123OSM    C1413028   0.303   2.009   5.976 -0.7527  0.0845  0.5026
  123OSM   H14A13029   0.401   2.023   6.019 -0.1918 -1.0681 -0.3538
  123OSM   H14B13030   0.235   2.089   5.999  0.5118  1.2053  0.4230
  123OSM   H14C13031   0.317   2.013   5.869  1.0608  0.9766  0.7515
  123OSM    C1313032   0.333   1.779   6.006  0.1762  0.2484 -0.3584
  123OSM   H13A13033   0.385   1.784   5.911 -1.0922  1.7896 -0.9754
  123OSM   H13B13034   0.283   1.686   6.029 -0.4952  0.2044 -1.9569
  123OSM   H13C13035   0.404   1.795   6.086 -0.5044  2.3974 -0.1676
  123OSM    C1213036   0.126   1.867   5.922 -0.7726  0.3291  0.0050
  123OSM   H12A13037   0.097   1.763   5.931  2.1268 -0.6290 -0.8672
  123OSM   H12B13038   0.168   1.869   5.822 -0.0282  1.1903  0.3250
  123OSM    C1113039  -0.000   1.954   5.924  0.3986 -0.5455 -0.0108
  123OSM   H11A13040  -0.052   1.936   6.021  2.2834 -1.6095  0.8152
  123OSM   H11B13041  -0.058   1.911   5.839  1.2805 -0.2004 -0.7972
  123OSM      P13042  -0.006   2.215   5.998 -0.2911  0.1349  0.0563
  123OSM    O1313043   0.099   2.315   5.984 -0.0519  0.0588  0.1254
  123OSM    O1413044  -0.145   2.261   5.966 -0.3551 -0.3954  0.4514
  123OSM    O1113045  -0.009   2.143   6.139  0.5066 -0.0316 -0.2389
  123OSM    O1213046   0.025   2.091   5.900 -0.8892  0.8609  0.5722
  123OSM    C1S13047  -0.107   2.170   6.242 -0.2251  0.0800 -0.0258
  123OSM    H1S13048  -0.174   2.082   6.256 -1.0716  0.6034 -0.7439
  123OSM    H1T13049  -0.157   2.268   6.224  2.3833  1.4012 -0.2948
  123OSM     NF13050  -0.137   2.221   6.485  0.2440  0.5089  0.2909
  123OSM    HNF13051  -0.162   2.312   6.516 -0.8299 -0.5271  2.5981
  123OSM    C2S13052  -0.038   2.199   6.381  0.0700 -0.2667 -0.2815
  123OSM    H2S13053   0.015   2.104   6.405 -0.5943 -0.1650  1.6607
  123OSM    C3S13054   0.067   2.314   6.372 -0.4287 -0.3579 -0.1388
  123OSM    H3S13055   0.021   2.398   6.317 -0.5368  0.4903  1.2198
  123OSM     O313056   0.176   2.267   6.299  0.0395  0.1426 -0.0520
  123OSM    HO313057   0.138   2.210   6.231  1.4826 -0.6687 -0.2010
  123OSM    C4S13058   0.119   2.363   6.505  0.4848 -0.5808 -0.9906
  123OSM    H4S13059   0.054   2.439   6.550 -1.0738 -1.9009 -0.9686
  123OSM    C5S13060   0.231   2.326   6.574 -0.0007 -0.0565  0.9665
  123OSM    H5S13061   0.296   2.249   6.530 -0.1504 -1.2114  2.6983
  123OSM    C6S13062   0.261   2.373   6.711  0.6955  0.0940  0.2934
  123OSM    H6S13063   0.206   2.468   6.724  0.1154 -0.1151 -0.6209
  123OSM    H6T13064   0.366   2.405   6.725  1.0140 -0.9805  0.3918
  123OSM    C7S13065   0.224   2.274   6.820 -0.2895 -0.5599  0.6135
  123OSM    H7S13066   0.283   2.183   6.799  0.9788  0.5472 -0.7544
  123OSM    H7T13067   0.114   2.257   6.826 -0.2793 -0.6016  0.6868
  123OSM    C8S13068   0.280   2.325   6.951  0.3669 -0.3764  0.8670
  123OSM    H8S13069   0.229   2.422   6.968 -2.5066 -1.9840  1.8360
  123OSM    H8T13070   0.387   2.352   6.938  0.5150 -0.9532  0.8648
  123OSM    C9S13071   0.264   2.233   7.070 -0.1193  0.0153  0.1565
  123OSM    H9S13072   0.310   2.134   7.047  1.5909  1.0560 -1.0777
  123OSM    H9T13073   0.158   2.208   7.089 -1.1829  3.5358 -0.8120
  123OSM   C10S13074   0.343   2.295   7.189  0.0507 -0.3856 -0.7905
  123OSM   H10S13075   0.310   2.399   7.211 -0.5763 -0.6591 -0.4589
  123OSM   H10T13076   0.449   2.313   7.158 -0.4476  0.7866 -1.9139
  123OSM   C11S13077   0.336   2.207   7.316  0.0886 -0.5109  0.2826
  123OSM   H11S13078   0.389   2.115   7.284 -0.1864  0.8308 -4.3565
  123OSM   H11T13079   0.229   2.181   7.329 -0.2715  0.6157 -0.3436
  123OSM   C12S13080   0.396   2.273   7.442 -0.5548  0.8745  0.6325
  123OSM   H12S13081   0.403   2.193   7.518 -2.2052  1.3480  1.3060
  123OSM   H12T13082   0.324   2.352   7.473  0.0154  2.1921 -1.3224
  123OSM   C13S13083   0.532   2.333   7.415  0.2378  0.2880  0.0362
  123OSM   H13S13084   0.518   2.428   7.358 -3.5695  1.7076  3.0734
  123OSM   H13T13085   0.597   2.263   7.360  0.8607  0.4104  0.6225
  123OSM   C14S13086   0.603   2.365   7.550  0.2930 -0.1220 -0.4830
  123OSM   H14S13087   0.610   2.281   7.622  0.2105 -1.7018 -2.2855
  123OSM   H14T13088   0.537   2.437   7.602 -0.4553  0.8397 -2.6930
  123OSM   C15S13089   0.744   2.421   7.525 -0.5341  0.2468  0.7021
  123OSM   H15S13090   0.737   2.481   7.432 -0.3205  0.8957  1.1029
  123OSM   H15T13091   0.806   2.333   7.496  0.5618  1.3287 -0.2843
  123OSM   C16S13092   0.817   2.498   7.636 -0.0182  0.5886  0.3795
  123OSM   H16S13093   0.928   2.495   7.627 -0.2129 -0.4912 -2.0854
  123OSM   H16T13094   0.786   2.454   7.733  0.1013 -1.6927 -0.5698
  123OSM   C17S13095   0.771   2.644   7.641 -0.0220  0.3892 -0.2465
  123OSM   H17S13096   0.668   2.646   7.682  0.1357 -1.7416  0.2812
  123OSM   H17T13097   0.774   2.683   7.536 -0.4212  1.9200  0.2897
  123OSM   C18S13098   0.879   2.720   7.730  0.1963 -0.3538 -0.0650
  123OSM   H18S13099   0.905   2.648   7.810  1.5077  0.5449  0.3416
  123OSM   H18T13100   0.849   2.817   7.776  1.0925 -0.2039  0.2165
  123OSM   H18U13101   0.973   2.730   7.670  0.1088 -1.0572 -0.3187
  123OSM    C1F13102  -0.219   2.118   6.516  0.1127 -0.1112  0.3160
  123OSM     OF13103  -0.187   2.010   6.481 -1.0402 -0.2350 -0.3131
  123OSM    C2F13104  -0.346   2.152   6.589  0.2112 -0.7732 -0.4985
  123OSM    H2F13105  -0.429   2.093   6.544 -0.9103 -0.1318  0.6861
  123OSM    H2G13106  -0.362   2.261   6.578  1.0465 -0.6515 -0.5539
  123OSM    C3F13107  -0.341   2.120   6.738 -0.0400 -0.5710 -0.2384
  123OSM    H3F13108  -0.334   2.011   6.761 -1.5958 -0.6411 -0.0291
  123OSM    H3G13109  -0.433   2.151   6.792  0.5164  1.6935 -0.5684
  123OSM    C4F13110  -0.238   2.199   6.823 -0.1923  0.3285 -0.1257
  123OSM    H4F13111  -0.269   2.305   6.829 -1.2754  0.1857 -2.4306
  123OSM    H4G13112  -0.139   2.202   6.773 -0.8120  0.7202 -1.3464
  123OSM    C5F13113  -0.224   2.135   6.966 -0.9468  0.1142  0.0131
  123OSM    H5F13114  -0.138   2.064   6.960 -0.1035  1.0047  1.3746
  123OSM    H5G13115  -0.314   2.079   7.000 -1.8097  1.6837  0.3485
  123OSM    C6F13116  -0.184   2.238   7.069  0.1993  0.3325 -1.0620
  123OSM    H6F13117  -0.264   2.315   7.065 -2.6039 -2.4997 -1.4182
  123OSM    H6G13118  -0.084   2.283   7.046  0.8368  1.1752  3.0232
  123OSM    C7F13119  -0.183   2.180   7.208 -0.5373 -0.3501  0.1685
  123OSM    H7F13120  -0.166   2.070   7.205  1.4548 -0.0564 -0.1549
  123OSM    H7G13121  -0.286   2.190   7.249 -0.0939  0.2094  1.1417
  123OSM    C8F13122  -0.066   2.236   7.297 -0.3035  0.6233 -0.2236
  123OSM    H8F13123   0.024   2.238   7.232  0.1052 -0.1391  0.3189
  123OSM    H8G13124  -0.039   2.158   7.372 -2.9069  0.0958  0.2241
  123OSM    C9F13125  -0.088   2.365   7.364  0.5178 -0.2023 -0.0580
  123OSM    H9F13126  -0.045   2.449   7.307 -1.8784  1.3002  0.2892
  123OSM   C10F13127  -0.145   2.384   7.483 -0.5739  0.3382 -0.2230
  123OSM   H10F13128  -0.154   2.483   7.528  0.2247  0.5400 -0.5094
  123OSM   C11F13129  -0.205   2.276   7.562 -0.4250  0.3430 -1.0209
  123OSM   H11F13130  -0.165   2.175   7.540 -0.3031  0.1233  0.1732
  123OSM   H11G13131  -0.315   2.266   7.554 -0.4288  0.9445 -1.7885
  123OSM   C12F13132  -0.188   2.336   7.706 -0.3250  0.2862  0.2278
  123OSM   H12F13133  -0.245   2.429   7.728 -1.4115 -0.1289 -0.7792
  123OSM   H12G13134  -0.081   2.359   7.725 -0.0588 -0.7978  0.0362
  123OSM   C13F13135  -0.240   2.237   7.816 -0.2220  0.4187 -0.8236
  123OSM   H13F13136  -0.190   2.142   7.788 -2.5199 -1.2415  0.5505
  123OSM   H13G13137  -0.349   2.219   7.806 -0.4538  0.5366  1.1930
  123OSM   C14F13138  -0.198   2.276   7.965  0.1038 -0.2511 -0.2994
  123OSM   H14F13139  -0.244   2.377   7.974  0.8292  0.1314 -0.8436
  123OSM   H14G13140  -0.088   2.292   7.961 -0.0676  0.9355 -0.6561
  123OSM   C15F13141  -0.259   2.182   8.072  0.2339  0.7263  0.6116
  123OSM   H15F13142  -0.220   2.086   8.034 -1.0656  0.4850 -0.1466
  123OSM   H15G13143  -0.368   2.190   8.054  0.1223  1.1934  1.4485
  123OSM   C16F13144  -0.229   2.222   8.213  0.0938  0.9379  0.1348
  123OSM   H16F13145  -0.253   2.141   8.285 -0.1002  0.2504 -0.6861
  123OSM   H16G13146  -0.280   2.317   8.237 -2.1160  0.1511 -1.3062
  123OSM   C17F13147  -0.080   2.251   8.238  0.1957  0.5814  0.0530
  123OSM   H17F13148  -0.057   2.355   8.204 -1.0869  1.1125  0.7796
  123OSM   H17G13149  -0.017   2.184   8.176 -1.7724 -1.1326 -0.1359
  123OSM   C18F13150  -0.048   2.231   8.384 -0.6658 -0.1647  0.4424
  123OSM   H18F13151   0.058   2.253   8.408 -1.0521  0.8468  1.2819
  123OSM   H18G13152  -0.052   2.124   8.413 -0.5904  0.0337  1.1904
  123OSM   H18H13153  -0.112   2.287   8.456 -0.2898 -1.0247  1.4655
  124OSM      N13154   3.294   0.593   5.978 -0.2787  0.2898  0.4458
  124OSM    C1513155   3.280   0.456   6.008  0.2923 -0.2523 -0.3687
  124OSM   H15A13156   3.189   0.433   6.061  0.7490 -1.0932  0.0514
  124OSM   H15B13157   3.363   0.416   6.064 -1.2822 -2.2101  0.6024
  124OSM   H15C13158   3.282   0.404   5.913  0.9273 -1.3899  0.2616
  124OSM    C1413159   3.435   0.603   5.921  0.0750 -0.3339 -0.1782
  124OSM   H14A13160   3.450   0.543   5.832 -0.6782 -0.2974 -0.3330
  124OSM   H14B13161   3.515   0.579   5.990  0.1937 -0.3454 -0.3184
  124OSM   H14C13162   3.454   0.701   5.882 -1.1517  0.5496  1.3928
  124OSM    C1313163   3.199   0.633   5.867 -0.5011 -0.0615  0.2127
  124OSM   H13A13164   3.095   0.627   5.897 -0.7338  2.0215 -0.0850
  124OSM   H13B13165   3.201   0.557   5.791 -0.9121 -0.2093  0.3485
  124OSM   H13C13166   3.222   0.726   5.817 -6.2249  1.2699 -0.3500
  124OSM    C1213167   3.279   0.683   6.101 -0.9085 -0.2040  0.0045
  124OSM   H12A13168   3.179   0.668   6.137 -0.5740 -1.2615  0.4968
  124OSM   H12B13169   3.271   0.786   6.068 -3.4569 -0.4459 -0.2287
  124OSM    C1113170   3.384   0.677   6.210  0.3439 -0.4891 -0.0581
  124OSM   H11A13171   3.357   0.752   6.288 -1.7141 -1.7213  0.4637
  124OSM   H11B13172   3.481   0.709   6.165  1.1528  0.1781  2.1068
  124OSM      P13173   3.523   0.484   6.313  0.1847  0.6541  0.0959
  124OSM    O1313174   3.563   0.384   6.212  0.5203  0.6803 -0.2051
  124OSM    O1413175   3.634   0.579   6.342 -0.1433  0.6248 -0.0919
  124OSM    O1113176   3.473   0.408   6.443  0.7297 -0.0907  0.2619
  124OSM    O1213177   3.388   0.544   6.269  0.3137 -0.1979 -0.2030
  124OSM    C1S13178   3.467   0.461   6.567  0.3746  0.5089  0.1621
  124OSM    H1S13179   3.543   0.541   6.578  0.0345  0.9305 -0.5261
  124OSM    H1T13180   3.484   0.388   6.649 -2.0017 -0.6987 -0.3731
  124OSM     NF13181   3.317   0.563   6.743 -1.1370  0.2973 -0.0615
  124OSM    HNF13182   3.249   0.521   6.803 -1.0103 -0.3292 -0.3522
  124OSM    C2S13183   3.326   0.522   6.605 -0.7496  0.0705 -0.4032
  124OSM    H2S13184   3.326   0.617   6.547  0.0557  0.0243 -0.4871
  124OSM    C3S13185   3.216   0.426   6.559 -0.4723  0.3849 -0.2769
  124OSM    H3S13186   3.243   0.333   6.614  0.6367 -0.9760 -3.0153
  124OSM     O313187   3.211   0.404   6.415  0.5968 -0.5296  0.2492
  124OSM    HO313188   3.295   0.437   6.381  0.0938 -0.3386 -0.8046
  124OSM    C4S13189   3.081   0.478   6.601  0.1734 -0.4473 -0.0552
  124OSM    H4S13190   3.034   0.413   6.677 -1.3133  0.3042 -0.3148
  124OSM    C5S13191   3.009   0.578   6.552  0.6639  0.5671  0.2385
  124OSM    H5S13192   3.031   0.626   6.456 -2.3814  3.6515  1.0109
  124OSM    C6S13193   2.874   0.621   6.605  0.2765  0.3743  0.9463
  124OSM    H6S13194   2.798   0.626   6.524 -0.9870 -0.1790  2.0728
  124OSM    H6T13195   2.884   0.726   6.639  1.2545  1.4123 -2.3821
  124OSM    C7S13196   2.808   0.548   6.719  0.1267  0.0786 -0.2882
  124OSM    H7S13197   2.869   0.573   6.808  0.3127 -1.5750  0.0714
  124OSM    H7T13198   2.812   0.438   6.702  0.0457 -0.8389  4.8584
  124OSM    C8S13199   2.661   0.588   6.733 -0.0578 -0.2437  0.0795
  124OSM    H8S13200   2.616   0.513   6.802  1.4364 -1.0732  0.1757
  124OSM    H8T13201   2.609   0.585   6.635 -0.7038 -1.0519  0.4314
  124OSM    C9S13202   2.637   0.738   6.781 -0.3750  0.0771  0.0398
  124OSM    H9S13203   2.529   0.756   6.761 -0.1030 -0.8088 -2.4835
  124OSM    H9T13204   2.684   0.805   6.705 -2.6037  0.2323 -1.2595
  124OSM   C10S13205   2.688   0.790   6.915  0.5991 -0.4935 -0.2622
  124OSM   H10S13206   2.731   0.891   6.898  0.7359 -0.3224  1.0736
  124OSM   H10T13207   2.755   0.710   6.952 -0.2732 -0.7885  0.6999
  124OSM   C11S13208   2.577   0.801   7.020 -0.8223 -0.7137  0.1236
  124OSM   H11S13209   2.478   0.827   6.976 -0.6029 -0.2761 -0.1149
  124OSM   H11T13210   2.609   0.885   7.086 -0.6270  0.6266 -1.6219
  124OSM   C12S13211   2.552   0.681   7.119 -0.2572 -0.0570 -0.6136
  124OSM   H12S13212   2.649   0.639   7.153 -0.2456  0.1846 -0.3403
  124OSM   H12T13213   2.499   0.600   7.066 -0.8039  1.0174 -1.7276
  124OSM   C13S13214   2.464   0.725   7.234 -0.2372  0.7354  0.9645
  124OSM   H13S13215   2.362   0.723   7.192 -0.3019 -0.1383  1.1412
  124OSM   H13T13216   2.485   0.827   7.273 -0.0050  0.8949  0.4183
  124OSM   C14S13217   2.457   0.622   7.352  0.2282 -1.1996  1.0978
  124OSM   H14S13218   2.562   0.611   7.384  1.3906  0.6913 -1.8940
  124OSM   H14T13219   2.411   0.529   7.314  0.1164 -0.6434 -0.1433
  124OSM   C15S13220   2.376   0.678   7.467  0.3937 -0.4605 -0.9102
  124OSM   H15S13221   2.271   0.694   7.437 -0.1421 -1.7035  0.2656
  124OSM   H15T13222   2.427   0.772   7.497 -2.6432  0.7577  0.6156
  124OSM   C16S13223   2.379   0.592   7.586 -0.5601 -0.1013 -0.1970
  124OSM   H16S13224   2.488   0.573   7.590 -0.4963  0.3546  0.2756
  124OSM   H16T13225   2.332   0.493   7.570  1.4726 -1.2943  0.9984
  124OSM   C17S13226   2.333   0.658   7.726  0.0167  0.0970  0.8921
  124OSM   H17S13227   2.232   0.699   7.708  0.1031 -0.4253 -0.8183
  124OSM   H17T13228   2.408   0.740   7.729  0.5800 -0.2540 -2.3534
  124OSM   C18S13229   2.360   0.577   7.849 -0.2543  0.7125 -0.3261
  124OSM   H18S13230   2.329   0.470   7.842 -0.9010  0.9266 -0.7859
  124OSM   H18T13231   2.306   0.616   7.938 -1.0726  1.2158 -1.0367
  124OSM   H18U13232   2.469   0.579   7.867 -0.0945  0.8737 -1.2992
  124OSM    C1F13233   3.399   0.647   6.810 -0.1829  0.4987 -0.0682
  124OSM     OF13234   3.460   0.735   6.751  0.4046  0.5198 -0.2795
  124OSM    C2F13235   3.403   0.626   6.961  0.5951  0.0731 -0.1297
  124OSM    H2F13236   3.510   0.610   6.983  0.1708  0.8583  2.7343
  124OSM    H2G13237   3.341   0.537   6.988  0.9182 -0.0818  0.1102
  124OSM    C3F13238   3.354   0.742   7.043 -0.3504 -0.5927  0.5993
  124OSM    H3F13239   3.246   0.757   7.020 -0.2882 -0.5502  0.3382
  124OSM    H3G13240   3.404   0.839   7.024 -0.8452 -0.3445  0.5589
  124OSM    C4F13241   3.367   0.707   7.196  0.2763  0.7136 -0.6241
  124OSM    H4F13242   3.463   0.659   7.224  1.2774  1.1747 -3.1929
  124OSM    H4G13243   3.285   0.637   7.223  0.2547  1.2034  0.6703
  124OSM    C5F13244   3.341   0.827   7.285 -0.0185  0.2192  0.2597
  124OSM    H5F13245   3.233   0.851   7.276 -0.4336 -1.2558  1.2013
  124OSM    H5G13246   3.398   0.914   7.245 -1.2057 -0.1242 -2.2893
  124OSM    C6F13247   3.358   0.795   7.434 -0.4390  0.5147 -0.8479
  124OSM    H6F13248   3.399   0.890   7.474 -1.1355  0.0451  1.0407
  124OSM    H6G13249   3.443   0.723   7.439  0.6034  1.8375  0.8608
  124OSM    C7F13250   3.252   0.736   7.525  1.1856  0.1490 -0.4982
  124OSM    H7F13251   3.303   0.713   7.620  0.7455  0.6012 -0.1488
  124OSM    H7G13252   3.210   0.637   7.499  1.0161  0.1043 -0.0574
  124OSM    C8F13253   3.134   0.828   7.553 -0.4009 -0.3996 -0.1308
  124OSM    H8F13254   3.063   0.775   7.620  0.3626 -0.5841  0.5336
  124OSM    H8G13255   3.073   0.845   7.461 -0.6766 -1.8210 -0.2294
  124OSM    C9F13256   3.169   0.961   7.619 -0.2631 -0.1977 -0.4330
  124OSM    H9F13257   3.204   1.032   7.543  1.4592  0.1640  0.6765
  124OSM   C10F13258   3.169   0.983   7.749  0.1136 -0.0767 -0.1121
  124OSM   H10F13259   3.194   1.078   7.798 -1.0095  0.4499 -0.5396
  124OSM   C11F13260   3.136   0.887   7.862 -0.4001  0.3682 -1.0653
  124OSM   H11F13261   3.092   0.790   7.831 -0.4087 -0.5035  1.5009
  124OSM   H11G13262   3.062   0.927   7.935 -1.2298 -1.6046 -0.8098
  124OSM   C12F13263   3.264   0.863   7.949  0.7043  0.3158 -0.2866
  124OSM   H12F13264   3.333   0.950   7.962  2.2619 -1.0308  0.7158
  124OSM   H12G13265   3.320   0.793   7.884 -1.5100 -0.4716 -1.3807
  124OSM   C13F13266   3.237   0.790   8.079  0.4622  0.0209 -0.0654
  124OSM   H13F13267   3.329   0.757   8.133 -1.1755 -1.1364  2.1110
  124OSM   H13G13268   3.162   0.708   8.077 -1.9224  2.1683 -0.0998
  124OSM   C14F13269   3.189   0.892   8.182 -0.4149 -0.2272  0.3614
  124OSM   H14F13270   3.087   0.929   8.157 -0.0251  0.9225  0.4349
  124OSM   H14G13271   3.251   0.984   8.175 -0.7497 -0.1087 -1.3303
  124OSM   C15F13272   3.180   0.836   8.323 -0.1012 -0.5548  0.5698
  124OSM   H15F13273   3.137   0.917   8.386  0.5553 -1.0215  1.6368
  124OSM   H15G13274   3.286   0.814   8.348  0.1463  0.7658  0.6984
  124OSM   C16F13275   3.086   0.716   8.340  0.4223 -0.3159  0.6988
  124OSM   H16F13276   3.119   0.627   8.283 -3.2727 -1.1611 -0.2473
  124OSM   H16G13277   2.979   0.732   8.314  0.5447  0.2987  0.5689
  124OSM   C17F13278   3.073   0.669   8.483 -0.3274  0.1812  0.3216
  124OSM   H17F13279   3.038   0.749   8.551 -0.1500  0.5324  0.0034
  124OSM   H17G13280   3.177   0.643   8.511  0.4527  2.4296 -0.4134
  124OSM   C18F13281   2.977   0.551   8.505 -0.3113 -0.2808  0.0806
  124OSM   H18F13282   2.884   0.557   8.445 -0.2119  1.4184  0.0715
  124OSM   H18G13283   2.955   0.536   8.613  0.0471 -0.7839  0.0895
  124OSM   H18H13284   3.022   0.453   8.479  0.6409  0.1195  0.2157
  125OSM      N13285   2.411   2.244   6.196  0.1199 -0.1727  0.3412
  125OSM    C1513286   2.432   2.316   6.324  0.1672 -0.1602 -0.9982
  125OSM   H15A13287   2.374   2.406   6.321 -0.5290 -0.6163 -1.3612
  125OSM   H15B13288   2.535   2.339   6.347  0.2067 -2.2037  1.1062
  125OSM   H15C13289   2.392   2.258   6.406  1.5494 -0.0896 -0.2500
  125OSM    C1413290   2.261   2.230   6.169  0.5324  0.0526 -0.1049
  125OSM   H14A13291   2.241   2.202   6.066 -0.1975 -0.4788  0.1795
  125OSM   H14B13292   2.217   2.329   6.171  0.5651  0.0480  2.7688
  125OSM   H14C13293   2.208   2.162   6.233 -0.7742  0.1037 -1.1087
  125OSM    C1313294   2.470   2.334   6.088 -0.2630  0.3155  0.2908
  125OSM   H13A13295   2.577   2.336   6.093 -0.3567  1.7165  2.4090
  125OSM   H13B13296   2.442   2.439   6.089  1.7762  0.9190 -1.5686
  125OSM   H13C13297   2.434   2.303   5.991  1.2511  1.3795 -0.6338
  125OSM    C1213298   2.487   2.115   6.212 -0.2695  1.2552 -0.7102
  125OSM   H12A13299   2.494   2.065   6.116 -1.5134 -0.0218 -0.1476
  125OSM   H12B13300   2.432   2.045   6.273  2.3174  0.5634  0.9241
  125OSM    C1113301   2.629   2.112   6.270  0.5148  0.6351  0.0651
  125OSM   H11A13302   2.678   2.012   6.264  0.1794  0.5646 -2.1475
  125OSM   H11B13303   2.622   2.144   6.376 -4.0062 -0.7491  0.2786
  125OSM      P13304   2.812   2.302   6.275  0.2177  0.1006 -0.0951
  125OSM    O1313305   2.935   2.320   6.196  0.6777 -0.2719 -0.6501
  125OSM    O1413306   2.725   2.418   6.308 -0.0028  0.3171  0.0091
  125OSM    O1113307   2.849   2.222   6.413  0.3461  0.0505  0.0100
  125OSM    O1213308   2.717   2.199   6.195  0.0049 -0.2788  0.9089
  125OSM    C1S13309   2.925   2.297   6.511 -0.1009  0.0413 -0.0561
  125OSM    H1S13310   2.874   2.394   6.533  1.2099 -0.0556  3.9374
  125OSM    H1T13311   3.023   2.323   6.467  0.2978  0.3833  1.0070
  125OSM     NF13312   3.024   2.305   6.731  0.7595  0.4164  0.9719
  125OSM    HNF13313   3.118   2.277   6.752  0.3618 -0.6642  1.3697
  125OSM    C2S13314   2.935   2.227   6.645 -0.0137  0.5587  0.7591
  125OSM    H2S13315   2.830   2.233   6.683 -1.9403 -2.2070 -3.7698
  125OSM    C3S13316   2.988   2.077   6.633  0.0151 -0.7022 -0.2950
  125OSM    H3S13317   3.092   2.086   6.594 -0.3452  1.2001 -0.8840
  125OSM     O313318   2.924   2.004   6.533  0.0105 -0.0265  0.3875
  125OSM    HO313319   2.881   2.068   6.475 -1.3091 -2.0094 -0.8856
  125OSM    C4S13320   2.990   2.003   6.764 -0.0839 -0.3329  0.5677
  125OSM    H4S13321   3.070   2.043   6.828  0.4275 -0.8012  0.2181
  125OSM    C5S13322   2.910   1.897   6.807 -0.0642  0.1894  0.1697
  125OSM    H5S13323   2.831   1.856   6.741  0.7643 -1.3887  0.1256
  125OSM    C6S13324   2.919   1.823   6.938 -0.4482 -0.5488 -0.1018
  125OSM    H6S13325   3.018   1.849   6.982  0.5970 -1.8341 -1.6593
  125OSM    H6T13326   2.926   1.713   6.927  1.2148 -0.5093  0.4146
  125OSM    C7S13327   2.787   1.842   7.029 -0.8048 -0.1159 -0.3539
  125OSM    H7S13328   2.695   1.851   6.967 -0.8309  0.5308 -0.2255
  125OSM    H7T13329   2.797   1.942   7.078  2.4806 -1.2052  1.3552
  125OSM    C8S13330   2.780   1.739   7.150 -1.0351 -0.6171 -0.0723
  125OSM    H8S13331   2.716   1.788   7.225  1.6805 -0.5543  2.2784
  125OSM    H8T13332   2.877   1.724   7.203 -0.5438  1.7118 -0.2853
  125OSM    C9S13333   2.743   1.603   7.103  0.1767 -0.3607  0.1465
  125OSM    H9S13334   2.819   1.554   7.039  0.2405 -1.7041  1.2123
  125OSM    H9T13335   2.655   1.609   7.035 -1.5322  0.0140  2.2877
  125OSM   C10S13336   2.701   1.502   7.219 -0.0570  0.5766  0.1333
  125OSM   H10S13337   2.774   1.493   7.302  1.3615  2.3443 -0.8946
  125OSM   H10T13338   2.685   1.398   7.183  1.0683  0.8235 -1.0842
  125OSM   C11S13339   2.563   1.527   7.280  0.6268 -0.0221 -0.0186
  125OSM   H11S13340   2.489   1.505   7.201  0.4463 -0.8819  0.3891
  125OSM   H11T13341   2.559   1.636   7.306 -1.3466 -0.5081  1.8930
  125OSM   C12S13342   2.551   1.437   7.407 -0.3528 -0.6253 -0.8163
  125OSM   H12S13343   2.640   1.461   7.469 -1.3135  1.5204 -0.2257
  125OSM   H12T13344   2.582   1.335   7.377  3.2003  0.2112 -0.1681
  125OSM   C13S13345   2.429   1.442   7.491  0.5512  0.6622 -0.0229
  125OSM   H13S13346   2.372   1.349   7.473  1.7257 -0.0847  0.0923
  125OSM   H13T13347   2.372   1.530   7.454 -0.9437 -0.8714 -1.4300
  125OSM   C14S13348   2.446   1.476   7.638 -0.5737 -0.4693  0.5870
  125OSM   H14S13349   2.485   1.580   7.637 -1.9229  0.0366  0.2584
  125OSM   H14T13350   2.534   1.425   7.683 -0.0526  1.1322  1.4389
  125OSM   C15S13351   2.330   1.471   7.720  0.5756 -0.4619  0.1053
  125OSM   H15S13352   2.289   1.368   7.731  1.2505 -0.5782  1.6906
  125OSM   H15T13353   2.247   1.531   7.676 -0.2719 -1.8108 -0.1774
  125OSM   C16S13354   2.365   1.512   7.864  0.1493  0.1203 -0.5310
  125OSM   H16S13355   2.268   1.496   7.914  1.2647 -0.4720  1.4735
  125OSM   H16T13356   2.381   1.622   7.865  0.5288  0.0522  1.0439
  125OSM   C17S13357   2.472   1.441   7.945 -0.1484  0.0054 -0.2129
  125OSM   H17S13358   2.575   1.454   7.904 -1.5233  2.5256 -3.0235
  125OSM   H17T13359   2.458   1.331   7.945  0.3598 -0.0645  0.4662
  125OSM   C18S13360   2.469   1.492   8.090 -0.5673  0.9086 -0.8863
  125OSM   H18S13361   2.532   1.442   8.166 -0.9565  1.8526  0.0770
  125OSM   H18T13362   2.366   1.487   8.132 -0.3614 -2.4594 -0.6866
  125OSM   H18U13363   2.494   1.600   8.090  0.8819  0.5790 -0.0698
  125OSM    C1F13364   2.983   2.429   6.780 -0.2106 -0.2020  0.5441
  125OSM     OF13365   2.866   2.472   6.756  0.1585 -0.3593 -0.1437
  125OSM    C2F13366   3.078   2.501   6.869 -0.1502  0.0011  0.2739
  125OSM    H2F13367   3.148   2.567   6.813  1.1819 -0.6407  1.1438
  125OSM    H2G13368   3.123   2.426   6.938  1.9329  1.9403  1.0943
  125OSM    C3F13369   2.996   2.594   6.959 -0.0163 -0.0564 -0.6814
  125OSM    H3F13370   2.932   2.540   7.031  1.0490  3.0556  2.7436
  125OSM    H3G13371   2.926   2.655   6.897 -0.4576  1.7861  1.5713
  125OSM    C4F13372   3.092   2.681   7.040  0.1653 -0.0453 -0.4449
  125OSM    H4F13373   3.031   2.763   7.085  0.5792 -0.6338  1.2409
  125OSM    H4G13374   3.166   2.726   6.970 -0.1388  0.4653 -0.4351
  125OSM    C5F13375   3.161   2.609   7.156 -0.2037 -0.2218 -0.6983
  125OSM    H5F13376   3.262   2.653   7.176 -0.9522  1.3905 -0.3160
  125OSM    H5G13377   3.177   2.500   7.143  0.7898 -0.0655 -0.7926
  125OSM    C6F13378   3.090   2.604   7.292  0.8388  0.2555 -0.3036
  125OSM    H6F13379   2.985   2.567   7.285 -0.0944  2.8855 -0.7334
  125OSM    H6G13380   3.069   2.706   7.330 -2.1961 -1.3389  2.5198
  125OSM    C7F13381   3.172   2.525   7.395 -0.0975  0.3383  0.4301
  125OSM    H7F13382   3.262   2.581   7.428  0.1318 -0.7683  1.7357
  125OSM    H7G13383   3.211   2.428   7.356  0.6248 -0.1004  2.1676
  125OSM    C8F13384   3.082   2.469   7.511  0.1324  0.3568  0.1115
  125OSM    H8F13385   3.149   2.400   7.566  1.8120  0.2507 -1.9879
  125OSM    H8G13386   2.990   2.415   7.479 -0.5525  1.2594  0.5086
  125OSM    C9F13387   3.054   2.592   7.600  0.1158  0.3947  0.6845
  125OSM    H9F13388   3.005   2.675   7.548  0.7080  1.4134  1.7136
  125OSM   C10F13389   3.068   2.602   7.734 -0.9153  0.4182  0.0186
  125OSM   H10F13390   3.049   2.705   7.767  1.3026  0.6750  0.5561
  125OSM   C11F13391   3.117   2.495   7.830 -0.2543 -0.6042  0.6091
  125OSM   H11F13392   3.187   2.431   7.771 -2.3883 -1.1127 -1.4147
  125OSM   H11G13393   3.031   2.432   7.858 -0.3077  0.0865  2.0455
  125OSM   C12F13394   3.174   2.542   7.968  0.2593  0.1743  0.3263
  125OSM   H12F13395   3.106   2.606   8.028  0.7536  0.2804  0.7773
  125OSM   H12G13396   3.268   2.598   7.947  0.6039 -1.0043 -1.4024
  125OSM   C13F13397   3.220   2.422   8.061 -0.4213 -0.3671  0.0194
  125OSM   H13F13398   3.326   2.406   8.032 -0.7707 -0.4325 -1.2459
  125OSM   H13G13399   3.163   2.332   8.031  0.2052 -0.8278  0.2005
  125OSM   C14F13400   3.197   2.450   8.213  0.5612  0.0792 -0.1670
  125OSM   H14F13401   3.231   2.363   8.273 -0.6723 -0.4308 -0.2043
  125OSM   H14G13402   3.089   2.460   8.235  0.8449 -1.0409  1.8583
  125OSM   C15F13403   3.263   2.576   8.281 -0.7381  0.3923 -0.2988
  125OSM   H15F13404   3.232   2.664   8.221  1.4570  0.9890 -0.5849
  125OSM   H15G13405   3.373   2.568   8.278 -0.7987 -2.5551  2.4478
  125OSM   C16F13406   3.213   2.596   8.429 -0.2995  0.6420 -0.0714
  125OSM   H16F13407   3.105   2.621   8.435 -0.5262 -0.8762  2.5056
  125OSM   H16G13408   3.272   2.680   8.471 -1.5297  1.8287 -0.6573
  125OSM   C17F13409   3.242   2.473   8.522  0.0871 -0.0850 -1.0690
  125OSM   H17F13410   3.198   2.383   8.474 -1.7013  0.7518 -1.0184
  125OSM   H17G13411   3.189   2.488   8.618  1.5417 -0.5580 -0.1725
  125OSM   C18F13412   3.387   2.443   8.546  0.2381 -0.0262  0.1209
  125OSM   H18F13413   3.396   2.385   8.640 -0.8647 -1.3646 -0.5760
  125OSM   H18G13414   3.447   2.536   8.552  1.1271 -0.6487  1.0356
  125OSM   H18H13415   3.426   2.371   8.470 -0.2446 -0.3007  0.1280
  126OSM      N13416   0.594   0.965   6.309  0.2627 -0.8263 -0.5979
  126OSM    C1513417   0.566   1.078   6.221 -0.2571  0.0427 -0.6315
  126OSM   H15A13418   0.655   1.134   6.198 -0.0747  0.1341  0.3150
  126OSM   H15B13419   0.497   1.148   6.267  1.1882  0.9449  0.1805
  126OSM   H15C13420   0.534   1.047   6.122 -0.3677 -0.8675 -0.3103
  126OSM    C1413421   0.460   0.904   6.344  0.2730 -0.2837 -0.3901
  126OSM   H14A13422   0.468   0.810   6.397 -1.0072 -1.1095 -1.6278
  126OSM   H14B13423   0.401   0.892   6.254 -0.0603  0.0634 -0.2213
  126OSM   H14C13424   0.414   0.983   6.403  1.7641 -1.6780  2.7261
  126OSM    C1313425   0.678   0.860   6.231 -0.3666  0.4054  0.4995
  126OSM   H13A13426   0.782   0.881   6.211 -0.7424  1.5661 -0.2680
  126OSM   H13B13427   0.624   0.840   6.140 -0.4074  3.9080 -0.2978
  126OSM   H13C13428   0.682   0.760   6.272 -0.9652  0.0671 -0.2533
  126OSM    C1213429   0.662   1.004   6.439  0.2013 -0.3622  0.3244
  126OSM   H12A13430   0.767   1.028   6.429 -0.1931  0.8358 -1.3179
  126OSM   H12B13431   0.652   0.921   6.507 -2.5068 -1.4526 -1.2971
  126OSM    C1113432   0.609   1.131   6.517  0.2874  1.0730 -0.0647
  126OSM   H11A13433   0.628   1.218   6.451  0.8064 -0.1701 -1.5636
  126OSM   H11B13434   0.674   1.137   6.608 -0.4421 -3.2960  0.8793
  126OSM      P13435   0.386   1.258   6.537 -0.4813  0.1926 -0.2733
  126OSM    O1313436   0.426   1.322   6.409 -0.0011 -0.0734  0.5284
  126OSM    O1413437   0.243   1.223   6.555 -0.1960  0.0498  0.2665
  126OSM    O1113438   0.452   1.329   6.667  0.0047 -0.0670  0.2438
  126OSM    O1213439   0.472   1.119   6.551  0.3680 -0.5993  0.1623
  126OSM    C1S13440   0.382   1.369   6.785  0.3079 -0.3071  0.3451
  126OSM    H1S13441   0.282   1.412   6.761  0.0340 -0.4100  1.2796
  126OSM    H1T13442   0.444   1.441   6.841 -0.5507 -1.1725  2.4573
  126OSM     NF13443   0.275   1.264   6.981  0.0886  0.2654 -0.1144
  126OSM    HNF13444   0.313   1.299   7.067 -1.5154 -0.4334  0.9007
  126OSM    C2S13445   0.370   1.244   6.879  0.3649  0.4794 -0.3728
  126OSM    H2S13446   0.332   1.162   6.815  0.0105 -0.6941  1.3339
  126OSM    C3S13447   0.508   1.203   6.941  0.0517 -0.0143  0.2092
  126OSM    H3S13448   0.552   1.286   7.000 -0.0338  0.0074  0.2425
  126OSM     O313449   0.617   1.195   6.850  0.7489  0.0917  0.4905
  126OSM    HO313450   0.581   1.237   6.772 -1.1253  0.4631  1.5286
  126OSM    C4S13451   0.502   1.076   7.017 -0.2826  0.6972 -0.1446
  126OSM    H4S13452   0.505   1.102   7.124  2.0623 -1.6022  0.4202
  126OSM    C5S13453   0.507   0.946   6.976  0.0503  0.1335  0.6946
  126OSM    H5S13454   0.507   0.917   6.870 -2.5689 -0.1169  0.7225
  126OSM    C6S13455   0.500   0.819   7.064  0.4607 -0.8923 -0.4202
  126OSM    H6S13456   0.590   0.758   7.040  1.6734  0.1298  1.4360
  126OSM    H6T13457   0.414   0.756   7.032 -1.1093  1.1287 -0.2468
  126OSM    C7S13458   0.486   0.835   7.218  0.0423  0.2362  0.0413
  126OSM    H7S13459   0.399   0.903   7.230  2.0222  2.5138  2.1907
  126OSM    H7T13460   0.577   0.877   7.266  0.3173 -2.4324  1.9721
  126OSM    C8S13461   0.455   0.703   7.291  0.2578  0.6581  1.2587
  126OSM    H8S13462   0.536   0.628   7.280 -0.1425  0.3566  0.3233
  126OSM    H8T13463   0.362   0.655   7.254  0.3273  1.3007  0.2152
  126OSM    C9S13464   0.446   0.723   7.444  0.1621  0.5463  0.0672
  126OSM    H9S13465   0.378   0.796   7.493  3.4453  1.9525  2.6889
  126OSM    H9T13466   0.545   0.761   7.476 -0.0307 -1.8020  3.6901
  126OSM   C10S13467   0.429   0.588   7.514 -0.2294 -0.1913 -0.4226
  126OSM   H10S13468   0.498   0.522   7.458  1.3292  2.5742 -1.8378
  126OSM   H10T13469   0.327   0.545   7.502  0.3252 -1.8482  0.6122
  126OSM   C11S13470   0.471   0.589   7.660  0.3764  0.2360  0.3437
  126OSM   H11S13471   0.573   0.630   7.675 -0.5879  1.4914  4.2339
  126OSM   H11T13472   0.476   0.491   7.714  2.3423 -0.7002 -1.4796
  126OSM   C12S13473   0.379   0.681   7.749  0.2539  0.4335  0.0279
  126OSM   H12S13474   0.271   0.656   7.751  0.4027 -0.5718 -2.5439
  126OSM   H12T13475   0.384   0.782   7.704  2.2157 -0.1280 -1.0769
  126OSM   C13S13476   0.441   0.699   7.889 -0.3085  0.5234 -0.8603
  126OSM   H13S13477   0.435   0.601   7.942 -0.4596 -0.1266 -2.0674
  126OSM   H13T13478   0.369   0.763   7.944 -0.1859  0.8556 -1.0854
  126OSM   C14S13479   0.579   0.765   7.893  0.4081  0.7022 -0.4275
  126OSM   H14S13480   0.592   0.837   7.809  0.1467  1.1694 -0.0671
  126OSM   H14T13481   0.658   0.686   7.889 -3.3665 -3.1852 -1.0479
  126OSM   C15S13482   0.603   0.856   8.020 -0.1361  0.3707  0.0830
  126OSM   H15S13483   0.522   0.929   8.039 -1.4291 -0.6386 -1.4018
  126OSM   H15T13484   0.692   0.920   8.003  1.5149 -1.6169  1.0475
  126OSM   C16S13485   0.631   0.772   8.143 -0.1658  0.4980 -0.3484
  126OSM   H16S13486   0.707   0.693   8.129 -1.7808 -0.8214 -1.9749
  126OSM   H16T13487   0.550   0.710   8.188  0.3274  0.0812 -0.0292
  126OSM   C17S13488   0.690   0.857   8.257 -0.1306 -0.6597 -0.4205
  126OSM   H17S13489   0.640   0.955   8.269 -1.3050 -1.2717 -0.2016
  126OSM   H17T13490   0.794   0.875   8.224  0.3982  0.4018  1.7754
  126OSM   C18S13491   0.709   0.782   8.393 -0.0351  0.2929  0.1182
  126OSM   H18S13492   0.614   0.786   8.450 -0.5184 -0.5593 -0.6113
  126OSM   H18T13493   0.778   0.828   8.468  0.0264 -2.5875  1.9062
  126OSM   H18U13494   0.737   0.676   8.374  1.7254  1.0033 -1.4174
  126OSM    C1F13495   0.144   1.259   6.967 -0.5221  0.4599 -0.4537
  126OSM     OF13496   0.093   1.205   6.865 -0.3843 -0.2308  0.1151
  126OSM    C2F13497   0.061   1.326   7.073 -0.2093 -0.2031  1.0272
  126OSM    H2F13498   0.082   1.435   7.071  1.9506 -0.6324 -1.6339
  126OSM    H2G13499   0.088   1.293   7.176 -0.9745 -1.4764  0.8423
  126OSM    C3F13500  -0.093   1.318   7.056  0.5542 -0.1407  0.3338
  126OSM    H3F13501  -0.130   1.219   7.021  0.2375 -1.0223  2.9825
  126OSM    H3G13502  -0.123   1.388   6.975  0.7805  0.1817  0.5272
  126OSM    C4F13503  -0.171   1.356   7.180  0.5232  0.4269  0.5090
  126OSM    H4F13504  -0.268   1.302   7.180 -0.5659  2.3283  0.8801
  126OSM    H4G13505  -0.201   1.461   7.162  2.7642  1.4295  2.4149
  126OSM    C5F13506  -0.103   1.344   7.318 -0.5198  0.1315 -0.0403
  126OSM    H5F13507  -0.013   1.408   7.332 -0.4358  0.3834 -1.6916
  126OSM    H5G13508  -0.068   1.239   7.328 -0.3114  0.0622 -1.3852
  126OSM    C6F13509  -0.187   1.382   7.429 -0.4181  0.1157  0.2076
  126OSM    H6F13510  -0.292   1.348   7.424 -0.4810  0.4186 -0.4980
  126OSM    H6G13511  -0.191   1.493   7.425 -0.8381  0.1083  0.4205
  126OSM    C7F13512  -0.128   1.339   7.567 -0.0463  0.3193 -0.0611
  126OSM    H7F13513  -0.018   1.348   7.561 -0.1135  0.4794 -1.1336
  126OSM    H7G13514  -0.174   1.237   7.567 -0.5205  0.5258 -0.8287
  126OSM    C8F13515  -0.183   1.425   7.687  0.1745  0.2963 -0.0557
  126OSM    H8F13516  -0.293   1.412   7.695  0.3085 -0.2321  0.9378
  126OSM    H8G13517  -0.167   1.530   7.656 -0.7392  0.9073  1.5170
  126OSM    C9F13518  -0.126   1.381   7.822  0.0281 -0.0144  0.5210
  126OSM    H9F13519  -0.105   1.274   7.829  0.4754  0.0321  0.0187
  126OSM   C10F13520  -0.101   1.468   7.924 -0.3562 -0.4689 -0.6800
  126OSM   H10F13521  -0.050   1.437   8.016 -0.3081 -0.4980 -0.7162
  126OSM   C11F13522  -0.120   1.613   7.898  0.0923 -0.0352 -0.2483
  126OSM   H11F13523  -0.227   1.642   7.904  0.5210  1.6444 -0.4896
  126OSM   H11G13524  -0.086   1.654   7.801 -0.0561  0.0973 -0.2439
  126OSM   C12F13525  -0.045   1.688   8.004 -0.0155 -0.1950 -0.5752
  126OSM   H12F13526  -0.072   1.794   7.986 -0.2639  0.5305  3.4290
  126OSM   H12G13527   0.064   1.692   7.983 -0.1577  3.2161 -1.0238
  126OSM   C13F13528  -0.066   1.651   8.150  0.3548 -0.0138  0.2833
  126OSM   H13F13529  -0.007   1.559   8.169  1.5610  0.7575  0.3153
  126OSM   H13G13530  -0.176   1.640   8.163 -0.2665  4.5815 -0.4039
  126OSM   C14F13531   0.001   1.744   8.255 -0.0729 -0.2197 -0.0179
  126OSM   H14F13532  -0.062   1.834   8.269  0.3406  0.3719 -1.8458
  126OSM   H14G13533   0.105   1.755   8.220 -0.1907 -2.7480 -1.2900
  126OSM   C15F13534   0.026   1.666   8.392 -0.0431 -0.5602  1.0335
  126OSM   H15F13535   0.110   1.594   8.387 -0.1679 -0.5730 -1.2196
  126OSM   H15G13536  -0.067   1.608   8.412 -0.4050  0.8545  3.7067
  126OSM   C16F13537   0.044   1.768   8.504  0.3219 -0.2204  0.0236
  126OSM   H16F13538  -0.010   1.718   8.587  0.6154 -1.9122 -0.7730
  126OSM   H16G13539  -0.007   1.862   8.475 -0.7958 -0.9146 -0.2563
  126OSM   C17F13540   0.195   1.815   8.532 -0.3463 -0.1850  0.7275
  126OSM   H17F13541   0.214   1.890   8.453 -1.6939 -0.2919  0.2940
  126OSM   H17G13542   0.256   1.725   8.508 -1.6258 -1.2911  1.5127
  126OSM   C18F13543   0.200   1.871   8.675  0.4791 -0.7028  0.2916
  126OSM   H18F13544   0.303   1.910   8.690  0.7642 -0.6277 -1.6316
  126OSM   H18G13545   0.186   1.798   8.757 -1.2384 -2.1783 -1.2663
  126OSM   H18H13546   0.130   1.958   8.680  0.1681 -1.0051  1.1714
  127OSM      N13547   1.111   6.556   6.210 -0.1170  0.2191 -0.1859
  127OSM    C1513548   1.181   6.592   6.079  0.2174 -0.2341 -0.2256
  127OSM   H15A13549   1.257   6.515   6.070  1.0287  0.6566 -1.0773
  127OSM   H15B13550   1.211   6.693   6.100 -0.5007 -0.1041  0.1883
  127OSM   H15C13551   1.117   6.587   5.992 -0.4972 -0.0171  0.2835
  127OSM    C1413552   1.008   6.656   6.240  0.0080  0.6415 -0.0333
  127OSM   H14A13553   0.967   6.627   6.336  0.6893 -0.8788 -0.1852
  127OSM   H14B13554   0.936   6.656   6.160 -1.6673 -1.0964  1.4055
  127OSM   H14C13555   1.049   6.755   6.247 -1.1035  1.0043  1.8370
  127OSM    C1313556   1.043   6.427   6.191  0.6125 -0.2103  0.2986
  127OSM   H13A13557   1.105   6.342   6.167 -1.6110 -1.6540 -0.5506
  127OSM   H13B13558   0.972   6.441   6.111  1.3692  3.1139  0.1144
  127OSM   H13C13559   0.982   6.399   6.276  0.5033 -0.2828  0.1961
  127OSM    C1213560   1.213   6.553   6.322  0.2494  0.7685  0.0794
  127OSM   H12A13561   1.166   6.518   6.413  0.5292 -2.9736 -1.1363
  127OSM   H12B13562   1.249   6.654   6.335  0.3480  1.0229 -2.0943
  127OSM    C1113563   1.337   6.466   6.295  0.9585 -0.6973 -0.2747
  127OSM   H11A13564   1.308   6.366   6.257  0.7728 -0.8839  0.3617
  127OSM   H11B13565   1.387   6.448   6.392  1.5020  1.3853 -0.1325
  127OSM      P13566   1.511   6.639   6.243  0.0436  0.2389  0.2059
  127OSM    O1313567   1.607   6.667   6.133 -0.3085  0.3269 -0.3571
  127OSM    O1413568   1.427   6.748   6.292 -0.9073  0.0469 -0.5500
  127OSM    O1113569   1.589   6.568   6.364  0.5039  1.0962  0.1593
  127OSM    O1213570   1.419   6.523   6.195 -0.7559  0.0278 -0.0688
  127OSM    C1S13571   1.579   6.622   6.498 -0.2713 -0.2067 -0.2141
  127OSM    H1S13572   1.474   6.634   6.531  0.9865 -0.8409  4.4257
  127OSM    H1T13573   1.643   6.712   6.515  2.9078 -2.3681 -0.2294
  127OSM     NF13574   1.609   6.544   6.730  0.4253  0.2306 -0.6013
  127OSM    HNF13575   1.688   6.585   6.776 -0.4405 -0.2658  1.3771
  127OSM    C2S13576   1.632   6.511   6.590 -0.1710 -0.3450 -0.5019
  127OSM    H2S13577   1.557   6.431   6.577  1.1092 -1.2367 -2.5825
  127OSM    C3S13578   1.774   6.473   6.559  0.7394  0.3661 -0.4456
  127OSM    H3S13579   1.837   6.564   6.571  1.0202 -0.0330  1.2691
  127OSM     O313580   1.799   6.436   6.427 -0.0295  0.0539  0.0653
  127OSM    HO313581   1.726   6.474   6.378 -2.7698 -0.2698  3.6635
  127OSM    C4S13582   1.815   6.357   6.643 -0.0490 -0.2354  0.7151
  127OSM    H4S13583   1.752   6.269   6.624  0.8857 -0.9416  0.8532
  127OSM    C5S13584   1.899   6.344   6.744 -0.8784 -0.3827 -1.1275
  127OSM    H5S13585   1.949   6.437   6.776  0.0969 -1.4193  0.5072
  127OSM    C6S13586   1.928   6.212   6.819  0.4770  0.1315 -0.0841
  127OSM    H6S13587   2.035   6.186   6.829  1.4713  3.6824 -0.8465
  127OSM    H6T13588   1.875   6.133   6.762  0.1884 -0.1041  0.5095
  127OSM    C7S13589   1.867   6.213   6.963 -0.4641 -0.2225 -0.2952
  127OSM    H7S13590   1.854   6.110   7.002  0.4598 -0.7403 -1.3187
  127OSM    H7T13591   1.762   6.249   6.956 -0.1300  0.3114 -3.4180
  127OSM    C8S13592   1.943   6.308   7.058 -0.5141  0.1811  0.2662
  127OSM    H8S13593   1.925   6.415   7.033 -2.2723 -0.3244 -0.7016
  127OSM    H8T13594   2.051   6.293   7.035 -0.0628  2.6433  0.5878
  127OSM    C9S13595   1.918   6.276   7.210 -0.3429  0.5670  0.0064
  127OSM    H9S13596   1.811   6.249   7.212 -0.5036  1.1193 -1.2042
  127OSM    H9T13597   1.938   6.371   7.266 -2.5860  0.3177  1.2813
  127OSM   C10S13598   2.023   6.183   7.271 -0.1779 -0.1273  0.0341
  127OSM   H10S13599   2.107   6.255   7.276 -0.5999  0.5004 -1.5175
  127OSM   H10T13600   2.060   6.100   7.207 -0.6447 -1.4132  1.4025
  127OSM   C11S13601   1.988   6.133   7.412 -0.8208  0.0385  0.7258
  127OSM   H11S13602   1.907   6.059   7.395  0.2853 -1.2744  1.1581
  127OSM   H11T13603   1.948   6.223   7.463  1.9157  2.4523 -1.2356
  127OSM   C12S13604   2.107   6.059   7.481 -0.0377 -0.2214 -0.4769
  127OSM   H12S13605   2.193   6.128   7.496  0.5911 -0.8598 -1.0444
  127OSM   H12T13606   2.141   5.981   7.409  2.8880  0.8947 -0.3874
  127OSM   C13S13607   2.065   5.986   7.610  0.5755  0.3244  0.0200
  127OSM   H13S13608   1.985   5.914   7.583 -0.8678  2.0214 -0.3735
  127OSM   H13T13609   2.024   6.056   7.686  0.1178 -0.3427  0.3935
  127OSM   C14S13610   2.175   5.902   7.682  0.3007  0.9301 -0.1811
  127OSM   H14S13611   2.273   5.950   7.703  0.1136  0.9587  0.6232
  127OSM   H14T13612   2.199   5.823   7.607 -0.9088  1.5656 -1.2583
  127OSM   C15S13613   2.106   5.837   7.808 -0.0374  0.0103  0.4652
  127OSM   H15S13614   2.029   5.766   7.771  2.0396 -1.2733 -1.5467
  127OSM   H15T13615   2.050   5.919   7.857 -2.4135 -0.2054 -1.7992
  127OSM   C16S13616   2.200   5.785   7.919 -0.2005  0.1047 -0.1873
  127OSM   H16S13617   2.284   5.854   7.940  1.0223 -2.0170  2.3611
  127OSM   H16T13618   2.252   5.689   7.896 -1.2259 -0.5515  0.1712
  127OSM   C17S13619   2.148   5.764   8.061  0.2110  0.1355  0.8833
  127OSM   H17S13620   2.064   5.692   8.047  1.9426 -1.7946  0.1466
  127OSM   H17T13621   2.117   5.863   8.100  0.3504  0.2206  0.7798
  127OSM   C18S13622   2.240   5.688   8.160 -0.9104  0.2610 -0.3625
  127OSM   H18S13623   2.182   5.666   8.252 -0.9012 -0.5224 -0.5472
  127OSM   H18T13624   2.318   5.755   8.202  0.7894 -0.7567 -1.8476
  127OSM   H18U13625   2.286   5.592   8.130 -0.3410  0.8945 -1.5335
  127OSM    C1F13626   1.509   6.535   6.814 -0.1408  1.1279  0.3734
  127OSM     OF13627   1.410   6.471   6.778  0.6502  0.5418 -0.2179
  127OSM    C2F13628   1.520   6.611   6.941 -0.2968  0.1119  0.3238
  127OSM    H2F13629   1.473   6.709   6.918 -0.6386  0.5143  2.5605
  127OSM    H2G13630   1.628   6.629   6.962  0.0521 -0.1029 -1.2749
  127OSM    C3F13631   1.457   6.542   7.060  0.0862  0.2547 -0.8343
  127OSM    H3F13632   1.492   6.437   7.068 -2.2832 -0.4891  0.3409
  127OSM    H3G13633   1.346   6.548   7.055 -0.1435 -0.6903  2.0906
  127OSM    C4F13634   1.497   6.607   7.197  0.1674  0.8469 -0.5704
  127OSM    H4F13635   1.434   6.564   7.278 -1.1905  2.4642 -0.7498
  127OSM    H4G13636   1.473   6.715   7.194  0.7368  0.9284 -2.9304
  127OSM    C5F13637   1.642   6.567   7.229  0.3392  0.5557  0.0972
  127OSM    H5F13638   1.721   6.605   7.161 -0.6903  0.3695 -1.2206
  127OSM    H5G13639   1.664   6.461   7.206  0.2929  0.6912 -0.5776
  127OSM    C6F13640   1.683   6.594   7.378  0.2957 -0.4071 -0.0365
  127OSM    H6F13641   1.676   6.705   7.382 -2.3682 -0.2977 -4.0967
  127OSM    H6G13642   1.787   6.555   7.387 -0.0190 -0.9212  1.4763
  127OSM    C7F13643   1.586   6.529   7.477  0.6847 -0.9334 -0.6450
  127OSM    H7F13644   1.571   6.420   7.461 -1.0317 -1.2911  2.9876
  127OSM    H7G13645   1.490   6.583   7.472  0.7671 -0.8423 -1.3121
  127OSM    C8F13646   1.619   6.544   7.629  0.7656 -1.2403  0.4811
  127OSM    H8F13647   1.520   6.522   7.674  0.1418  1.3089  0.4582
  127OSM    H8G13648   1.629   6.654   7.645 -0.1879 -1.4735  2.9443
  127OSM    C9F13649   1.738   6.476   7.680  0.2188 -0.1603 -0.1052
  127OSM    H9F13650   1.826   6.459   7.615  2.1631 -1.0348  2.6364
  127OSM   C10F13651   1.743   6.434   7.806 -0.0592 -0.1862  0.0474
  127OSM   H10F13652   1.839   6.386   7.829 -1.1219 -2.6476 -0.5133
  127OSM   C11F13653   1.627   6.450   7.907 -0.6047 -0.3793 -0.3264
  127OSM   H11F13654   1.570   6.355   7.894 -1.1680  0.1236 -1.6411
  127OSM   H11G13655   1.556   6.532   7.883 -3.8704 -1.8102  3.6150
  127OSM   C12F13656   1.677   6.469   8.052 -0.4360 -0.0245  0.0305
  127OSM   H12F13657   1.739   6.559   8.031  0.2096 -0.5893 -0.5082
  127OSM   H12G13658   1.719   6.375   8.093 -1.3484 -0.1303  0.7429
  127OSM   C13F13659   1.551   6.513   8.134 -0.2470 -0.1690 -1.3667
  127OSM   H13F13660   1.466   6.443   8.119  0.0892 -0.7723 -0.5236
  127OSM   H13G13661   1.527   6.618   8.107 -1.1124  0.6897  2.4239
  127OSM   C14F13662   1.580   6.505   8.278 -0.8358 -0.2394 -0.0129
  127OSM   H14F13663   1.663   6.575   8.303 -1.5438 -0.2178  2.3904
  127OSM   H14G13664   1.618   6.404   8.303  1.6815  0.2176 -1.7285
  127OSM   C15F13665   1.467   6.546   8.375  1.0143 -0.0771  0.6943
  127OSM   H15F13666   1.439   6.643   8.330  0.8598 -1.2209 -1.7343
  127OSM   H15G13667   1.518   6.553   8.474  2.1792 -0.3582  0.1216
  127OSM   C16F13668   1.342   6.458   8.367  0.0217 -0.0449  0.4691
  127OSM   H16F13669   1.374   6.356   8.399 -1.4408 -0.9636 -0.8753
  127OSM   H16G13670   1.303   6.423   8.268  0.0690 -0.8592  0.7360
  127OSM   C17F13671   1.233   6.500   8.456  0.6768  0.7752  0.5964
  127OSM   H17F13672   1.196   6.596   8.413 -2.5054 -0.8146 -0.3843
  127OSM   H17G13673   1.276   6.522   8.556  0.7828 -1.5558  1.0793
  127OSM   C18F13674   1.114   6.405   8.478  1.2890 -0.1107  0.2439
  127OSM   H18F13675   1.046   6.453   8.551  1.9027  1.7031 -0.3526
  127OSM   H18G13676   1.151   6.311   8.524  0.3555 -0.9697 -0.7188
  127OSM   H18H13677   1.063   6.381   8.382  0.7763 -0.2419  0.5425
  128OSM      N13678   4.056   3.180   5.893 -0.8104  0.0795 -0.0372
  128OSM    C1513679   4.107   3.043   5.862  0.2295  0.8718  0.6684
  128OSM   H15A13680   4.172   3.042   5.776  0.9061 -2.3900  1.1341
  128OSM   H15B13681   4.036   2.962   5.858  0.0238  1.0929 -0.1770
  128OSM   H15C13682   4.180   3.007   5.934 -0.6663  0.2529  1.2809
  128OSM    C1413683   4.172   3.276   5.894  0.5581  0.2404  0.5118
  128OSM   H14A13684   4.137   3.372   5.931 -1.3675 -0.4969  0.6457
  128OSM   H14B13685   4.208   3.293   5.794 -0.2818 -1.3718 -0.0841
  128OSM   H14C13686   4.254   3.241   5.955  0.2983  0.5918  1.0702
  128OSM    C1313687   3.966   3.224   5.779 -0.0979  0.4643 -0.3037
  128OSM   H13A13688   3.920   3.322   5.783 -0.7016  0.1439  0.6499
  128OSM   H13B13689   3.881   3.158   5.766  0.6855 -0.2027 -2.1481
  128OSM   H13C13690   4.022   3.225   5.687 -0.1402  0.4786 -0.3297
  128OSM    C1213691   3.976   3.173   6.019 -0.3223  0.0216  0.2506
  128OSM   H12A13692   3.898   3.099   6.017 -1.0980  0.6949  3.2945
  128OSM   H12B13693   3.931   3.269   6.036 -0.7319 -0.2866  0.9572
  128OSM    C1113694   4.060   3.161   6.149  0.3527  0.2015  0.1539
  128OSM   H11A13695   4.007   3.178   6.246  0.6818  0.6240  0.2637
  128OSM   H11B13696   4.122   3.253   6.143 -0.9416  1.0773 -0.1696
  128OSM      P13697   4.126   2.913   6.221  0.4622  0.0851 -0.2009
  128OSM    O1313698   4.066   2.818   6.125  0.2219 -0.0024  0.0561
  128OSM    O1413699   4.254   2.873   6.282  0.5759 -0.5507 -0.2393
  128OSM    O1113700   4.016   2.950   6.329 -0.1011 -0.0219 -0.6099
  128OSM    O1213701   4.152   3.050   6.150 -0.0035 -0.1920 -0.2779
  128OSM    C1S13702   4.000   2.865   6.446 -0.5860  0.3961  1.5314
  128OSM    H1S13703   4.031   2.760   6.427 -0.1972  0.4323  1.9541
  128OSM    H1T13704   3.895   2.866   6.482 -1.4524 -3.3473 -0.6656
  128OSM     NF13705   4.065   2.815   6.678 -0.0124  0.1525 -0.6090
  128OSM    HNF13706   4.013   2.853   6.754 -0.5625 -1.3865 -0.2023
  128OSM    C2S13707   4.091   2.911   6.567  0.0032  0.5291  0.3735
  128OSM    H2S13708   4.198   2.908   6.537 -0.5156  0.6835 -1.5634
  128OSM    C3S13709   4.059   3.067   6.607  0.2305  0.4161  0.2412
  128OSM    H3S13710   3.956   3.081   6.647  0.5238 -1.2645  1.6586
  128OSM     O313711   4.084   3.160   6.502 -0.3528 -0.3431 -0.2098
  128OSM    HO313712   4.105   3.102   6.429 -1.2763  1.8937 -2.3230
  128OSM    C4S13713   4.139   3.106   6.727 -0.5173 -0.3330  0.5895
  128OSM    H4S13714   4.090   3.068   6.818  2.0054 -1.0272  1.7041
  128OSM    C5S13715   4.255   3.172   6.736 -0.6545 -0.1528 -0.4792
  128OSM    H5S13716   4.310   3.186   6.642 -0.3918 -0.8460 -0.4312
  128OSM    C6S13717   4.323   3.197   6.873  0.0493  0.0720  0.7432
  128OSM    H6S13718   4.346   3.306   6.870  0.6393 -0.1045 -1.8207
  128OSM    H6T13719   4.420   3.144   6.875  0.3180  0.5037 -0.4357
  128OSM    C7S13720   4.242   3.154   6.991 -0.2696 -0.2001 -0.6650
  128OSM    H7S13721   4.224   3.044   6.988  0.6154 -0.3386 -1.0786
  128OSM    H7T13722   4.139   3.195   6.995  0.0074  0.3534  2.2067
  128OSM    C8S13723   4.302   3.195   7.128 -0.2552  0.0082 -0.0156
  128OSM    H8S13724   4.298   3.306   7.126  0.9690  0.1147  1.9868
  128OSM    H8T13725   4.404   3.150   7.127 -0.1009  0.3435 -1.8784
  128OSM    C9S13726   4.207   3.154   7.240  0.2038  0.1705 -0.2187
  128OSM    H9S13727   4.206   3.043   7.249  0.7967  0.2543  1.1206
  128OSM    H9T13728   4.107   3.189   7.208  0.8122  2.0177 -0.1254
  128OSM   C10S13729   4.237   3.203   7.382  0.0763 -0.7805 -0.4039
  128OSM   H10S13730   4.262   3.312   7.383  2.4064 -1.3092  1.4754
  128OSM   H10T13731   4.328   3.160   7.427  0.8898  1.4760  0.2071
  128OSM   C11S13732   4.123   3.187   7.476  0.0023  0.3461  0.1991
  128OSM   H11S13733   4.075   3.088   7.462  1.8675 -0.3480 -1.6087
  128OSM   H11T13734   4.053   3.266   7.443  0.5971  1.0333  0.5574
  128OSM   C12S13735   4.157   3.192   7.622  0.3446  0.8839 -0.7999
  128OSM   H12S13736   4.254   3.242   7.642  0.0392  0.7298  1.2146
  128OSM   H12T13737   4.160   3.088   7.661  0.1465  1.3573  0.5065
  128OSM   C13S13738   4.043   3.262   7.707  0.0857 -1.2760  0.3514
  128OSM   H13S13739   3.939   3.224   7.690 -0.1489 -1.1369  1.4752
  128OSM   H13T13740   4.059   3.368   7.679  2.0175 -2.0012 -1.4503
  128OSM   C14S13741   4.071   3.244   7.862 -0.2210 -0.6776  0.2369
  128OSM   H14S13742   4.168   3.295   7.882 -0.2477 -0.1536 -0.9274
  128OSM   H14T13743   4.080   3.135   7.883  1.0332 -1.2582 -2.9876
  128OSM   C15S13744   3.970   3.300   7.956 -0.0216  0.7200 -0.0835
  128OSM   H15S13745   3.886   3.227   7.960 -1.3431  2.1747 -0.5570
  128OSM   H15T13746   3.914   3.391   7.926 -1.3883 -0.4439 -1.1545
  128OSM   C16S13747   4.018   3.315   8.098 -0.1978 -0.3524  0.0635
  128OSM   H16S13748   4.094   3.395   8.109 -0.5537 -0.0554  0.3836
  128OSM   H16T13749   4.073   3.223   8.127  1.0612  0.6101  0.7544
  128OSM   C17S13750   3.907   3.338   8.203  0.1118 -0.0620 -0.0751
  128OSM   H17S13751   3.818   3.274   8.188 -0.4025  0.8551 -0.9963
  128OSM   H17T13752   3.878   3.445   8.203  0.7889  0.1277  0.5638
  128OSM   C18S13753   3.945   3.312   8.351  0.0983 -0.8916  0.2071
  128OSM   H18S13754   4.032   3.373   8.381 -0.2284  0.3147 -1.2173
  128OSM   H18T13755   3.975   3.206   8.364 -1.3030 -1.2192  0.9315
  128OSM   H18U13756   3.855   3.333   8.412  0.3501 -2.2715  1.0827
  128OSM    C1F13757   4.099   2.681   6.665  0.1284 -0.3404 -0.5046
  128OSM     OF13758   4.169   2.636   6.577 -0.0667  0.5130 -0.5363
  128OSM    C2F13759   4.051   2.595   6.780  0.1092 -0.2694 -0.1154
  128OSM    H2F13760   4.050   2.488   6.752  3.1118 -0.7431  1.4148
  128OSM    H2G13761   3.950   2.628   6.811  0.9109  2.1111  0.1084
  128OSM    C3F13762   4.152   2.604   6.901  0.1347 -0.1508 -0.4706
  128OSM    H3F13763   4.163   2.708   6.937 -0.2492 -0.3407  0.2105
  128OSM    H3G13764   4.252   2.571   6.868  0.1205  0.8204 -1.5302
  128OSM    C4F13765   4.106   2.519   7.018  0.3950 -0.7006 -0.0514
  128OSM    H4F13766   4.116   2.412   6.993 -1.2171 -1.0249  0.6602
  128OSM    H4G13767   3.998   2.540   7.035  0.5852 -0.5267  1.0088
  128OSM    C5F13768   4.183   2.554   7.151  0.2809  0.2079  0.4707
  128OSM    H5F13769   4.163   2.656   7.191 -0.8274  0.0305  0.3939
  128OSM    H5G13770   4.292   2.536   7.139  0.3575  0.8872  0.1431
  128OSM    C6F13771   4.131   2.449   7.244  0.6879  0.4364 -0.6582
  128OSM    H6F13772   4.154   2.347   7.208  0.0447  0.5816 -1.5061
  128OSM    H6G13773   4.021   2.452   7.256  0.8046 -0.5706  0.7151
  128OSM    C7F13774   4.184   2.450   7.384  0.1537  0.6990 -0.0156
  128OSM    H7F13775   4.294   2.434   7.395 -0.2061 -0.5790  2.0091
  128OSM    H7G13776   4.136   2.369   7.443  0.9280  0.4639  0.3122
  128OSM    C8F13777   4.164   2.578   7.461  0.3753 -0.5998  0.6680
  128OSM    H8F13778   4.212   2.665   7.412 -2.1094  0.4476  0.0117
  128OSM    H8G13779   4.204   2.571   7.564 -0.5504  1.1571  1.1771
  128OSM    C9F13780   4.011   2.609   7.481  0.0708  0.1959 -0.6892
  128OSM    H9F13781   3.962   2.660   7.396  1.1423  1.8376 -0.3583
  128OSM   C10F13782   3.935   2.596   7.593  0.1660 -0.5019 -0.1541
  128OSM   H10F13783   3.828   2.615   7.582 -0.1497 -2.9693 -1.8739
  128OSM   C11F13784   3.984   2.539   7.724 -0.2391 -0.3298 -0.3866
  128OSM   H11F13785   4.082   2.486   7.724  0.6757  1.2867  1.6914
  128OSM   H11G13786   3.916   2.456   7.753 -1.7961  1.0018 -0.1530
  128OSM   C12F13787   3.985   2.656   7.832  0.2504  0.6665 -0.1685
  128OSM   H12F13788   4.013   2.600   7.923 -0.3388  2.0424  0.8819
  128OSM   H12G13789   3.886   2.705   7.848  2.3057  4.2727  2.2857
  128OSM   C13F13790   4.101   2.757   7.796  0.1205  0.2244  0.6101
  128OSM   H13F13791   4.050   2.839   7.742  0.1780  0.1526  0.4474
  128OSM   H13G13792   4.175   2.705   7.731 -0.4791 -2.2745  1.8368
  128OSM   C14F13793   4.173   2.828   7.911 -0.5236  0.3998 -0.4182
  128OSM   H14F13794   4.239   2.910   7.874  0.9209  0.2930  1.8468
  128OSM   H14G13795   4.247   2.750   7.938  0.1270  1.2240  0.1955
  128OSM   C15F13796   4.089   2.873   8.030 -0.2575 -0.2803 -0.5335
  128OSM   H15F13797   3.984   2.897   8.001  0.0757 -0.7239 -2.1514
  128OSM   H15G13798   4.140   2.969   8.052  0.2277 -1.0880  2.0501
  128OSM   C16F13799   4.098   2.797   8.160 -0.4242 -0.1030  0.5414
  128OSM   H16F13800   4.201   2.781   8.198 -0.4204 -0.7089  0.2729
  128OSM   H16G13801   4.056   2.695   8.145  0.8091 -0.6148  0.5012
  128OSM   C17F13802   4.029   2.877   8.274 -0.0772 -0.3891  0.1289
  128OSM   H17F13803   3.919   2.885   8.262 -0.0718 -1.0394 -0.3557
  128OSM   H17G13804   4.059   2.984   8.266 -0.7639 -0.2748 -0.9303
  128OSM   C18F13805   4.055   2.829   8.423 -0.3049 -0.4706 -1.2294
  128OSM   H18F13806   4.158   2.858   8.454 -0.2486 -1.1698 -0.7570
  128OSM   H18G13807   4.049   2.719   8.429  1.2571 -0.5347 -0.4742
  128OSM   H18H13808   3.987   2.883   8.493 -0.2224  1.1741 -2.3821
  129OSM      N13809   1.218   5.808   5.941  0.2697 -0.2686 -0.2482
  129OSM    C1513810   1.312   5.919   5.917  0.2462  0.1381  0.0555
  129OSM   H15A13811   1.416   5.892   5.928 -0.3294 -2.0841  0.4263
  129OSM   H15B13812   1.311   5.987   6.000  1.1602 -0.2862  0.4208
  129OSM   H15C13813   1.287   5.964   5.822  0.1980  0.1072  0.0526
  129OSM    C1413814   1.073   5.861   5.954 -0.3639  0.5426  0.1642
  129OSM   H14A13815   1.004   5.785   5.989 -0.0278  0.4669  0.6759
  129OSM   H14B13816   1.035   5.898   5.861 -2.1500 -1.0678  0.2143
  129OSM   H14C13817   1.066   5.937   6.031 -2.3709  1.5314 -0.9667
  129OSM    C1313818   1.223   5.710   5.823 -0.4780 -0.0351 -0.5809
  129OSM   H13A13819   1.324   5.672   5.823 -0.5088 -0.1147 -1.1505
  129OSM   H13B13820   1.221   5.742   5.720  0.2211  0.3924 -0.4614
  129OSM   H13C13821   1.153   5.627   5.827 -0.8983  0.3808  1.2773
  129OSM    C1213822   1.252   5.729   6.069  0.1644 -0.5193 -0.7337
  129OSM   H12A13823   1.351   5.688   6.076 -0.2267 -1.0775  2.1130
  129OSM   H12B13824   1.177   5.652   6.085 -0.0351 -0.3417 -0.8022
  129OSM    C1113825   1.243   5.804   6.202 -1.0286  0.0174 -0.8422
  129OSM   H11A13826   1.237   5.735   6.289 -2.2001  0.4587 -0.5591
  129OSM   H11B13827   1.150   5.865   6.214 -1.0995 -0.6184  2.2644
  129OSM      P13828   1.383   6.035   6.249 -0.1154  0.3634  0.2708
  129OSM    O1313829   1.520   6.075   6.222  0.2768  0.0143 -0.5029
  129OSM    O1413830   1.279   6.112   6.182 -0.1675  0.8228  0.9399
  129OSM    O1113831   1.360   6.048   6.403  0.1759 -0.3108  0.1958
  129OSM    O1213832   1.362   5.879   6.214  0.1741 -0.1075  0.4446
  129OSM    C1S13833   1.330   6.170   6.470 -0.0819  0.3790 -0.2030
  129OSM    H1S13834   1.223   6.190   6.450  0.0513 -0.9547 -2.3858
  129OSM    H1T13835   1.394   6.257   6.444 -0.6440  0.3112 -1.8671
  129OSM     NF13836   1.269   6.240   6.704 -0.7247  0.3067 -0.0367
  129OSM    HNF13837   1.319   6.322   6.731 -1.5739  0.2376  1.8133
  129OSM    C2S13838   1.342   6.147   6.623  0.1525  0.7131  0.2346
  129OSM    H2S13839   1.294   6.048   6.639  0.0169  0.4331 -1.7051
  129OSM    C3S13840   1.496   6.143   6.669 -0.0213 -0.1075 -0.2271
  129OSM    H3S13841   1.538   6.243   6.646 -2.8240  1.1321 -0.2155
  129OSM     O313842   1.584   6.051   6.598  0.2001  0.0057 -0.3391
  129OSM    HO313843   1.525   6.027   6.526 -0.2052 -0.7504  0.2380
  129OSM    C4S13844   1.518   6.133   6.814  0.1214 -0.2405  0.1088
  129OSM    H4S13845   1.509   6.230   6.866  2.7537  0.3335 -0.4278
  129OSM    C5S13846   1.528   6.017   6.883  0.2690  0.0781  0.8772
  129OSM    H5S13847   1.521   5.922   6.828 -0.5809  0.5597  0.1342
  129OSM    C6S13848   1.542   6.008   7.031  0.2182  0.2909 -0.0840
  129OSM    H6S13849   1.634   5.947   7.044 -0.7448 -2.0348 -3.4135
  129OSM    H6T13850   1.456   5.945   7.063 -0.8809  0.1885 -3.0905
  129OSM    C7S13851   1.527   6.127   7.121 -0.1293 -0.6500  0.2845
  129OSM    H7S13852   1.435   6.178   7.084 -0.4383  0.6792  2.7639
  129OSM    H7T13853   1.609   6.201   7.111  1.1424 -2.3243 -2.2142
  129OSM    C8S13854   1.488   6.083   7.265  0.4152 -0.4611 -0.0399
  129OSM    H8S13855   1.401   6.015   7.263 -0.7943  1.0870 -1.2225
  129OSM    H8T13856   1.451   6.180   7.304  0.1554 -0.4773 -0.2491
  129OSM    C9S13857   1.598   6.033   7.358  0.6385 -0.1446  0.8825
  129OSM    H9S13858   1.698   6.076   7.335  0.4695 -0.0382  0.3415
  129OSM    H9T13859   1.606   5.923   7.348  0.3451 -0.1147  0.2894
  129OSM   C10S13860   1.559   6.069   7.506 -0.3741  0.3040  0.0967
  129OSM   H10S13861   1.469   6.010   7.533  0.4887 -1.6851 -1.2966
  129OSM   H10T13862   1.535   6.177   7.508  1.5462  0.7961 -1.8122
  129OSM   C11S13863   1.674   6.052   7.603  0.7813 -0.3829 -0.2822
  129OSM   H11S13864   1.755   6.123   7.578 -0.7237  1.3540 -0.2839
  129OSM   H11T13865   1.719   5.952   7.584  0.9503 -0.0190 -1.8306
  129OSM   C12S13866   1.638   6.056   7.762 -0.8733  0.0073  0.6544
  129OSM   H12S13867   1.554   5.983   7.765 -0.3968 -0.4953  1.7965
  129OSM   H12T13868   1.594   6.156   7.779 -1.1378  0.7746 -4.0239
  129OSM   C13S13869   1.766   6.023   7.845 -0.0144 -0.0723  0.2748
  129OSM   H13S13870   1.830   6.101   7.800  0.7941  0.3989  2.1692
  129OSM   H13T13871   1.786   5.916   7.823 -2.4072 -0.7996  1.4736
  129OSM   C14S13872   1.768   6.066   7.992 -0.1092  0.1484 -0.2687
  129OSM   H14S13873   1.698   5.995   8.041  0.8844  0.9107  2.3413
  129OSM   H14T13874   1.720   6.166   7.998 -0.8354 -0.0739 -1.9674
  129OSM   C15S13875   1.903   6.067   8.054  0.8105 -0.3000 -0.4287
  129OSM   H15S13876   1.968   6.123   7.983  0.4465 -1.4218 -1.6593
  129OSM   H15T13877   1.959   5.971   8.054  3.3602  1.0851  1.6967
  129OSM   C16S13878   1.895   6.138   8.197 -0.6914 -0.1212  0.1454
  129OSM   H16S13879   1.830   6.228   8.190  1.1808  1.4471  2.2302
  129OSM   H16T13880   2.000   6.171   8.217 -1.2029  1.4130  0.3457
  129OSM   C17S13881   1.858   6.053   8.313 -1.1303 -0.9816  0.7448
  129OSM   H17S13882   1.759   6.006   8.291 -0.5667 -1.4383 -0.8330
  129OSM   H17T13883   1.854   6.109   8.409 -0.2031 -0.5103  0.5060
  129OSM   C18S13884   1.942   5.932   8.345  0.3546 -0.3012 -0.0650
  129OSM   H18S13885   1.966   5.870   8.256 -0.6867 -0.3995 -0.2937
  129OSM   H18T13886   1.885   5.854   8.400 -1.6466  1.3838  0.3286
  129OSM   H18U13887   2.037   5.966   8.390 -1.4993  2.3949  1.9701
  129OSM    C1F13888   1.134   6.236   6.725 -0.4518  0.3750  0.0472
  129OSM     OF13889   1.058   6.154   6.679 -0.3009  0.0595  0.1431
  129OSM    C2F13890   1.082   6.356   6.804  0.2634  0.3963 -0.5758
  129OSM    H2F13891   1.082   6.436   6.727  1.0132 -0.6092 -1.6233
  129OSM    H2G13892   1.168   6.376   6.872  0.6524 -1.8330 -0.3658
  129OSM    C3F13893   0.955   6.328   6.883 -0.9089 -0.0149  0.5231
  129OSM    H3F13894   0.897   6.250   6.830 -1.0561  0.1866  0.3841
  129OSM    H3G13895   0.909   6.429   6.876  2.7850  1.5114 -5.1813
  129OSM    C4F13896   0.981   6.284   7.027 -0.3970  0.0600  0.4419
  129OSM    H4F13897   1.061   6.207   7.029  2.3024  2.7904  1.3663
  129OSM    H4G13898   0.888   6.233   7.060 -1.7185  0.0520 -3.0693
  129OSM    C5F13899   1.018   6.392   7.129 -0.0207  0.0722 -0.6859
  129OSM    H5F13900   0.921   6.437   7.159  1.1231  1.3440  1.1951
  129OSM    H5G13901   1.084   6.469   7.084 -0.1883 -0.6862 -2.2983
  129OSM    C6F13902   1.069   6.326   7.257 -0.3420 -0.6089  0.1235
  129OSM    H6F13903   1.166   6.279   7.233  0.1501  1.7658 -2.9397
  129OSM    H6G13904   1.008   6.237   7.285  1.4583 -1.4316  1.5126
  129OSM    C7F13905   1.091   6.423   7.374 -0.7966 -0.2395 -0.7071
  129OSM    H7F13906   1.001   6.489   7.373 -1.6575 -1.4084 -2.3182
  129OSM    H7G13907   1.166   6.500   7.345  0.7260 -2.1011 -1.7839
  129OSM    C8F13908   1.119   6.369   7.515  0.3071  0.0543 -0.0175
  129OSM    H8F13909   1.046   6.285   7.519  1.2376 -0.7541  0.1871
  129OSM    H8G13910   1.092   6.445   7.591  1.5475  0.9572 -0.4693
  129OSM    C9F13911   1.262   6.334   7.542 -0.3470  0.5530 -0.2784
  129OSM    H9F13912   1.320   6.303   7.454 -0.9679 -0.4118 -0.3637
  129OSM   C10F13913   1.330   6.336   7.653 -0.2425 -0.3764 -0.3374
  129OSM   H10F13914   1.433   6.300   7.663 -0.7494 -1.3209  2.0200
  129OSM   C11F13915   1.267   6.380   7.783  0.7124  0.0543  0.2369
  129OSM   H11F13916   1.159   6.404   7.777  0.9854  0.8955 -1.8534
  129OSM   H11G13917   1.310   6.480   7.807 -0.5084  0.5666  0.2961
  129OSM   C12F13918   1.290   6.290   7.904 -0.4822  0.5090 -0.6711
  129OSM   H12F13919   1.234   6.338   7.987  0.3145  0.3897 -0.0578
  129OSM   H12G13920   1.395   6.276   7.938 -1.1600  3.0436  2.7771
  129OSM   C13F13921   1.228   6.148   7.893  0.0816 -0.1385  0.1218
  129OSM   H13F13922   1.293   6.070   7.848 -0.8489 -0.9593  0.1634
  129OSM   H13G13923   1.143   6.149   7.822 -1.1196  1.9733  1.5297
  129OSM   C14F13924   1.174   6.092   8.024 -0.3480  0.4393 -0.7485
  129OSM   H14F13925   1.135   5.988   8.013  0.6562 -0.1086  0.6014
  129OSM   H14G13926   1.092   6.153   8.067  0.3203  1.2850 -0.6635
  129OSM   C15F13927   1.280   6.091   8.138  0.1097  0.0448  0.3384
  129OSM   H15F13928   1.231   6.091   8.238  1.4443  0.4367  1.0011
  129OSM   H15G13929   1.346   6.180   8.127 -1.3374  1.3519  1.9443
  129OSM   C16F13930   1.371   5.967   8.136 -1.1282 -0.5792  0.2421
  129OSM   H16F13931   1.417   5.941   8.038  2.3380 -1.0668  1.9257
  129OSM   H16G13932   1.323   5.872   8.168  0.0908 -1.6401 -0.9925
  129OSM   C17F13933   1.490   5.986   8.239 -0.2844 -0.0847 -0.0565
  129OSM   H17F13934   1.563   6.069   8.224  2.0229 -1.8645  0.9753
  129OSM   H17G13935   1.545   5.889   8.241  0.5068  0.3721  2.1132
  129OSM   C18F13936   1.438   6.014   8.384 -0.0500  0.3859  0.2539
  129OSM   H18F13937   1.385   6.112   8.387 -0.7381  0.0162  0.3480
  129OSM   H18G13938   1.528   6.012   8.449  0.7777 -0.0505 -0.8813
  129OSM   H18H13939   1.376   5.939   8.437  0.7633  0.0065  0.6814
  130OSM      N13940   3.775   1.813   6.062 -0.4296  0.2601 -0.2554
  130OSM    C1513941   3.641   1.764   6.025 -0.9964  0.2931  0.4792
  130OSM   H15A13942   3.590   1.850   5.984  0.4623 -0.2670 -2.6286
  130OSM   H15B13943   3.582   1.734   6.111 -1.8970 -1.3044 -0.6593
  130OSM   H15C13944   3.639   1.676   5.962  1.3648  0.3562  0.2814
  130OSM    C1413945   3.837   1.852   5.934  0.6275  0.5334  0.2092
  130OSM   H14A13946   3.859   1.958   5.939  0.6176  0.5001  1.1397
  130OSM   H14B13947   3.778   1.834   5.845 -0.0718  0.2771  0.7184
  130OSM   H14C13948   3.933   1.805   5.920 -0.9378 -2.8731  0.4362
  130OSM    C1313949   3.763   1.916   6.167 -0.9110  0.7169 -0.0816
  130OSM   H13A13950   3.857   1.952   6.208 -0.0150  1.5355 -2.7368
  130OSM   H13B13951   3.705   1.875   6.248 -1.4121 -0.1066 -0.8451
  130OSM   H13C13952   3.727   2.006   6.121 -0.7962  0.5755 -0.4517
  130OSM    C1213953   3.859   1.691   6.111  0.0664  0.3469 -0.1857
  130OSM   H12A13954   3.884   1.634   6.023  1.2154  1.0812 -0.3446
  130OSM   H12B13955   3.794   1.627   6.168 -0.5746  0.8765 -0.3150
  130OSM    C1113956   3.987   1.728   6.184 -0.6335 -0.2296 -0.2309
  130OSM   H11A13957   4.036   1.631   6.206 -0.0572  0.4104  1.3674
  130OSM   H11B13958   3.967   1.775   6.283 -0.4427  1.5463 -1.0135
  130OSM      P13959   4.229   1.796   6.119 -0.4077 -0.6559 -0.1923
  130OSM    O1313960   4.267   1.666   6.054 -0.5325 -0.0683 -0.3037
  130OSM    O1413961   4.295   1.920   6.072 -0.2936  0.1467  0.3112
  130OSM    O1113962   4.264   1.772   6.275 -0.2139  0.1395  0.4672
  130OSM    O1213963   4.075   1.806   6.107  0.1195  0.1977 -0.1606
  130OSM    C1S13964   4.227   1.874   6.365  0.5418  0.3325  0.6532
  130OSM    H1S13965   4.119   1.899   6.361  0.7957  1.3190 -0.3590
  130OSM    H1T13966   4.285   1.967   6.348 -0.6226  1.4514  2.5549
  130OSM     NF13967   4.215   1.939   6.599  0.4843 -0.1680 -0.4500
  130OSM    HNF13968   4.274   1.986   6.665 -0.5824 -2.7635  2.5196
  130OSM    C2S13969   4.260   1.833   6.516  0.8790 -0.0041  1.0031
  130OSM    H2S13970   4.190   1.752   6.548  0.9917  0.5000  2.5363
  130OSM    C3S13971   4.398   1.781   6.536  0.2300 -0.2323 -0.0389
  130OSM    H3S13972   4.476   1.848   6.494 -1.7139  2.6543  0.7656
  130OSM     O313973   4.427   1.661   6.466  0.1188  0.2257  0.1711
  130OSM    HO313974   4.346   1.643   6.419  0.0137  2.0981 -0.4353
  130OSM    C4S13975   4.432   1.773   6.681 -0.2233 -0.0386  0.3131
  130OSM    H4S13976   4.512   1.847   6.696  0.4457 -0.1841 -2.2494
  130OSM    C5S13977   4.393   1.672   6.762 -0.1778 -0.0515  0.5761
  130OSM    H5S13978   4.336   1.588   6.719  0.6731 -1.0790  1.4037
  130OSM    C6S13979   4.434   1.672   6.908  0.3715 -0.2592 -0.5314
  130OSM    H6S13980   4.518   1.600   6.919  0.7861  0.0330 -1.7397
  130OSM    H6T13981   4.353   1.630   6.971 -0.1289 -1.2302 -1.7925
  130OSM    C7S13982   4.486   1.805   6.975 -0.3538 -0.5155  0.3255
  130OSM    H7S13983   4.400   1.871   6.998  0.4280  0.6921 -0.1461
  130OSM    H7T13984   4.557   1.859   6.908  0.0349 -1.3395  0.0684
  130OSM    C8S13985   4.556   1.795   7.112  0.3987 -1.1497 -0.0456
  130OSM    H8S13986   4.622   1.882   7.132  0.8152 -1.9834  2.4055
  130OSM    H8T13987   4.622   1.705   7.107  1.3808 -0.4914  0.7518
  130OSM    C9S13988   4.455   1.774   7.223 -0.3737  0.2546 -0.0736
  130OSM    H9S13989   4.400   1.679   7.208 -1.7553  1.3397 -2.2019
  130OSM    H9T13990   4.377   1.854   7.225 -0.7017 -0.0990  3.2826
  130OSM   C10S13991   4.525   1.789   7.364  0.1206  0.4600 -0.3130
  130OSM   H10S13992   4.557   1.893   7.385  0.0243 -0.3304  4.5219
  130OSM   H10T13993   4.614   1.722   7.373 -2.2031 -3.0729 -2.4116
  130OSM   C11S13994   4.419   1.747   7.469  0.1421 -0.2971 -0.3148
  130OSM   H11S13995   4.397   1.640   7.449  1.0182 -0.4457 -0.5357
  130OSM   H11T13996   4.325   1.804   7.456  0.9229  1.0151 -0.2359
  130OSM   C12S13997   4.456   1.744   7.609 -0.2198  0.0498  0.0613
  130OSM   H12S13998   4.488   1.845   7.641 -0.1895 -0.9885  3.5087
  130OSM   H12T13999   4.544   1.680   7.632 -0.5209  0.7261  3.2541
  130OSM   C13S14000   4.346   1.689   7.705 -0.0852 -0.1068 -0.3677
  130OSM   H13S14001   4.328   1.583   7.677 -0.4670 -0.2852  0.5267
  130OSM   H13T14002   4.255   1.753   7.702  0.7346  1.0527 -0.8096
  130OSM   C14S14003   4.387   1.688   7.848 -0.2028  0.2249  0.4929
  130OSM   H14S14004   4.488   1.644   7.863 -0.5206 -1.8734 -2.8154
  130OSM   H14T14005   4.309   1.636   7.907  0.0411  1.1383  1.6382
  130OSM   C15S14006   4.399   1.829   7.913  0.5222  0.1187 -0.0913
  130OSM   H15S14007   4.305   1.887   7.900  1.8033  1.6601 -3.0093
  130OSM   H15T14008   4.479   1.881   7.856  0.4222  1.0954  0.6437
  130OSM   C16S14009   4.431   1.806   8.063  0.2531 -0.1748  0.2092
  130OSM   H16S14010   4.532   1.759   8.070  0.3130 -0.5397 -2.5283
  130OSM   H16T14011   4.349   1.752   8.114  0.7598 -1.0773  0.0754
  130OSM   C17S14012   4.435   1.945   8.124 -0.3660  0.5509 -0.6135
  130OSM   H17S14013   4.338   1.990   8.092 -0.1194  0.7791 -1.0424
  130OSM   H17T14014   4.520   2.001   8.081 -0.8191  2.0547  0.3871
  130OSM   C18S14015   4.453   1.947   8.276 -0.5019 -0.4276  0.0296
  130OSM   H18S14016   4.418   2.045   8.315 -2.0468 -0.4501 -1.2246
  130OSM   H18T14017   4.559   1.932   8.303  0.0508  0.8384 -1.3327
  130OSM   H18U14018   4.385   1.873   8.325  0.3754 -1.2920 -0.0481
  130OSM    C1F14019   4.090   1.972   6.609 -0.4428 -0.0144  0.8749
  130OSM     OF14020   4.007   1.886   6.592 -0.3173  0.7009 -0.2012
  130OSM    C2F14021   4.061   2.109   6.645  0.3743 -0.2674 -0.0773
  130OSM    H2F14022   3.989   2.150   6.571 -3.0277 -1.2033  2.5771
  130OSM    H2G14023   4.157   2.164   6.652 -0.8548  1.7863  1.2592
  130OSM    C3F14024   3.984   2.121   6.776  0.4175 -0.1748  0.7435
  130OSM    H3F14025   3.906   2.042   6.781  1.1365 -1.0872 -1.6284
  130OSM    H3G14026   3.948   2.226   6.779  1.7373  0.2947  0.7686
  130OSM    C4F14027   4.077   2.094   6.889  0.2122  0.2021 -0.4169
  130OSM    H4F14028   4.169   2.157   6.887  0.3948  0.1029  2.6178
  130OSM    H4G14029   4.124   1.994   6.875  3.5469  1.6350  0.0452
  130OSM    C5F14030   4.015   2.116   7.028 -0.0375 -0.4109  0.3931
  130OSM    H5F14031   3.906   2.095   7.022 -0.6399  2.0744  1.7876
  130OSM    H5G14032   4.012   2.226   7.047 -0.2494 -0.2579 -0.4810
  130OSM    C6F14033   4.086   2.035   7.134  0.2067 -0.1805 -0.1133
  130OSM    H6F14034   4.192   2.067   7.147 -0.0890  1.7286 -2.2510
  130OSM    H6G14035   4.093   1.928   7.104  3.4177  0.0096 -0.2544
  130OSM    C7F14036   4.003   2.056   7.269 -0.1010 -0.1008 -0.1433
  130OSM    H7F14037   3.909   1.996   7.272 -0.2629  0.1317 -0.5435
  130OSM    H7G14038   3.968   2.161   7.267 -0.8287 -0.3188  0.7761
  130OSM    C8F14039   4.074   2.024   7.402 -0.8750 -0.5660 -0.2770
  130OSM    H8F14040   4.174   2.072   7.396 -1.0213 -0.0227  1.4505
  130OSM    H8G14041   4.085   1.914   7.408 -1.4186 -0.6796 -1.2201
  130OSM    C9F14042   4.012   2.094   7.525  0.2793  0.0914  0.3590
  130OSM    H9F14043   3.967   2.194   7.508  0.5659  0.1004 -0.3932
  130OSM   C10F14044   4.003   2.053   7.656  0.8745  0.3489  0.5585
  130OSM   H10F14045   3.951   2.120   7.725 -0.3750 -0.0381  0.0001
  130OSM   C11F14046   4.040   1.911   7.703 -1.1844 -0.7037  0.5316
  130OSM   H11F14047   4.143   1.911   7.744 -1.1774 -0.7213  0.5139
  130OSM   H11G14048   4.031   1.841   7.618  2.6639 -0.6936  0.0442
  130OSM   C12F14049   3.950   1.850   7.816 -0.5966 -0.4222  0.1043
  130OSM   H12F14050   3.948   1.743   7.789 -0.9344  0.2943 -3.0139
  130OSM   H12G14051   3.844   1.884   7.806 -0.6273  0.5397  3.1680
  130OSM   C13F14052   4.009   1.880   7.948  0.2419 -0.7538  0.1550
  130OSM   H13F14053   4.053   1.982   7.953 -1.2885 -0.0525 -0.2738
  130OSM   H13G14054   4.091   1.811   7.975  0.0539 -1.7842 -1.8280
  130OSM   C14F14055   3.902   1.872   8.060 -0.7909  0.8036  0.6466
  130OSM   H14F14056   3.878   1.764   8.073  0.2380  0.1418 -2.4416
  130OSM   H14G14057   3.812   1.922   8.018 -2.5956 -2.6574  0.2159
  130OSM   C15F14058   3.951   1.927   8.194  0.0599 -0.6044  0.3714
  130OSM   H15F14059   4.053   1.887   8.210  0.7272  0.3268 -1.3993
  130OSM   H15G14060   3.883   1.893   8.276  0.7469  0.3676  1.3678
  130OSM   C16F14061   3.956   2.087   8.197  0.0636 -0.8464  0.2617
  130OSM   H16F14062   3.849   2.117   8.189 -0.6122 -2.7587  1.8636
  130OSM   H16G14063   3.999   2.136   8.107 -3.2276  1.1429 -0.3140
  130OSM   C17F14064   4.011   2.139   8.329  0.1106  0.1810  0.2217
  130OSM   H17F14065   4.122   2.136   8.326  0.0212 -1.6642 -3.4323
  130OSM   H17G14066   3.966   2.072   8.406  0.8646  0.1937  0.6789
  130OSM   C18F14067   3.965   2.273   8.349  0.8930 -0.8332 -0.1906
  130OSM   H18F14068   4.014   2.319   8.437  1.9684 -0.3773 -1.0120
  130OSM   H18G14069   3.855   2.277   8.361  1.0184 -1.4486  1.1825
  130OSM   H18H14070   3.995   2.336   8.262  3.3622  0.7784  1.7594
  131OSM      N14071   1.874   4.685   5.780  0.1605  0.0821 -0.5608
  131OSM    C1514072   1.797   4.800   5.721  0.2007  0.6744 -0.5879
  131OSM   H15A14073   1.702   4.760   5.686 -0.0003  0.2385  0.4530
  131OSM   H15B14074   1.842   4.849   5.636 -1.1045 -3.0129 -3.5874
  131OSM   H15C14075   1.767   4.867   5.800  1.7183  0.6820 -0.0080
  131OSM    C1414076   1.875   4.567   5.690  0.2182 -0.1814  0.3421
  131OSM   H14A14077   1.934   4.586   5.601 -0.7569 -1.6838 -0.6551
  131OSM   H14B14078   1.782   4.542   5.642  0.1215  0.3715  0.2376
  131OSM   H14C14079   1.910   4.480   5.743 -0.7257  0.4714  2.0478
  131OSM    C1314080   2.019   4.738   5.799 -0.6578  0.6751  0.8078
  131OSM   H13A14081   2.074   4.656   5.842  0.5469  2.2016  2.2435
  131OSM   H13B14082   2.029   4.814   5.875  1.8399 -0.1360  1.3122
  131OSM   H13C14083   2.066   4.763   5.705 -0.5064 -0.2861  0.6259
  131OSM    C1214084   1.822   4.632   5.921 -0.5974 -0.6234  0.9307
  131OSM   H12A14085   1.894   4.569   5.970 -0.0257 -1.0192 -0.4042
  131OSM   H12B14086   1.727   4.581   5.912 -0.9957  0.2530  0.1249
  131OSM    C1114087   1.793   4.750   6.030  0.2484  0.2123 -0.1547
  131OSM   H11A14088   1.882   4.817   6.031  2.2412 -2.3858  0.8980
  131OSM   H11B14089   1.804   4.687   6.121  1.1928  0.4532 -0.0941
  131OSM      P14090   1.533   4.733   6.039  0.2835 -0.0432  0.3795
  131OSM    O1314091   1.430   4.841   6.048 -0.2510  0.3249  0.8313
  131OSM    O1414092   1.511   4.627   5.942  0.2537 -0.8020 -0.2188
  131OSM    O1114093   1.553   4.666   6.181  0.5299  0.5720 -0.1526
  131OSM    O1214094   1.666   4.815   6.019  0.7276 -0.0087  0.2915
  131OSM    C1S14095   1.589   4.745   6.299 -0.1201 -0.2752  0.2035
  131OSM    H1S14096   1.511   4.819   6.325  0.2284 -0.6629  2.4593
  131OSM    H1T14097   1.686   4.798   6.285 -1.3187  1.5873 -1.2056
  131OSM     NF14098   1.633   4.736   6.548  0.2476  0.2199  0.0386
  131OSM    HNF14099   1.722   4.727   6.591  0.4492  0.0736 -0.3997
  131OSM    C2S14100   1.609   4.656   6.430 -0.0198 -0.6859  0.5394
  131OSM    H2S14101   1.518   4.593   6.424  0.0096 -0.5980 -0.9747
  131OSM    C3S14102   1.720   4.539   6.410  0.4349  0.4356 -0.2628
  131OSM    H3S14103   1.816   4.595   6.405  0.8891 -0.1497  1.7791
  131OSM     O314104   1.708   4.473   6.285  0.6233  0.5165  1.0300
  131OSM    HO314105   1.643   4.521   6.233  1.0525  1.5015  1.3846
  131OSM    C4S14106   1.725   4.451   6.535  0.1460 -0.8824 -0.1967
  131OSM    H4S14107   1.780   4.506   6.612 -2.0349  0.2454  0.5859
  131OSM    C5S14108   1.676   4.331   6.571 -0.0389  1.1152 -0.1736
  131OSM    H5S14109   1.602   4.281   6.507 -0.8674  1.6512  0.3611
  131OSM    C6S14110   1.688   4.272   6.710  0.3121 -0.3552 -0.3061
  131OSM    H6S14111   1.793   4.247   6.736  0.9473  1.0410 -1.4491
  131OSM    H6T14112   1.630   4.179   6.700  2.8466 -1.9216 -0.8230
  131OSM    C7S14113   1.625   4.345   6.828 -0.4287 -0.0609  0.1825
  131OSM    H7S14114   1.515   4.341   6.816 -0.4673  0.4683  0.3519
  131OSM    H7T14115   1.672   4.445   6.815  3.0576 -1.8069 -1.2892
  131OSM    C8S14116   1.649   4.295   6.970  0.3852  0.3959 -0.5907
  131OSM    H8S14117   1.758   4.307   6.985  0.1419  2.3660 -0.3163
  131OSM    H8T14118   1.620   4.188   6.968  0.5190  0.3618 -0.6910
  131OSM    C9S14119   1.552   4.358   7.076 -0.4356  0.2821  0.1985
  131OSM    H9S14120   1.447   4.323   7.061 -0.1678 -0.4050 -0.0591
  131OSM    H9T14121   1.550   4.469   7.063 -1.3852  0.0668 -1.7518
  131OSM   C10S14122   1.587   4.319   7.218  0.5713  0.0361 -0.9907
  131OSM   H10S14123   1.587   4.209   7.233  1.4455  0.0007 -1.2028
  131OSM   H10T14124   1.512   4.351   7.293  0.6946 -1.7150 -0.0957
  131OSM   C11S14125   1.720   4.353   7.271 -0.2831  0.5426 -1.0148
  131OSM   H11S14126   1.793   4.315   7.196 -2.5679 -2.5165 -1.8015
  131OSM   H11T14127   1.744   4.327   7.376  1.4746 -3.3466 -2.2845
  131OSM   C12S14128   1.733   4.504   7.267  0.6446  0.3566  0.0720
  131OSM   H12S14129   1.652   4.555   7.323 -0.2799 -1.3791  0.3331
  131OSM   H12T14130   1.722   4.540   7.163 -1.6862 -1.7711 -0.4479
  131OSM   C13S14131   1.876   4.557   7.312 -0.1205  0.3165  0.2993
  131OSM   H13S14132   1.888   4.664   7.287  1.4306  0.4635  1.5714
  131OSM   H13T14133   1.956   4.497   7.264 -1.6903 -1.4694 -0.1828
  131OSM   C14S14134   1.897   4.524   7.469 -0.2886  0.6424  0.4792
  131OSM   H14S14135   2.000   4.554   7.498  0.6401 -0.7598 -1.2878
  131OSM   H14T14136   1.887   4.413   7.475  0.0786  0.6291  0.9105
  131OSM   C15S14137   1.793   4.578   7.567  0.4026  0.0427 -0.1219
  131OSM   H15S14138   1.686   4.567   7.537 -0.3769  3.0803  1.3203
  131OSM   H15T14139   1.811   4.687   7.574 -0.8970  0.2166  0.7115
  131OSM   C16S14140   1.807   4.501   7.701  0.3097 -0.2749  0.3689
  131OSM   H16S14141   1.905   4.510   7.752  0.9628 -0.7130 -0.7913
  131OSM   H16T14142   1.787   4.394   7.684 -1.3997 -0.1798  1.6907
  131OSM   C17S14143   1.716   4.543   7.817  0.1579 -0.4455 -0.7365
  131OSM   H17S14144   1.611   4.514   7.791  0.8446  0.0434 -4.3978
  131OSM   H17T14145   1.728   4.653   7.821  1.1874 -0.5881 -0.0349
  131OSM   C18S14146   1.758   4.463   7.943 -0.7569 -0.2945  0.0448
  131OSM   H18S14147   1.862   4.480   7.977 -0.2984 -2.2767 -0.2854
  131OSM   H18T14148   1.741   4.355   7.923  1.9507 -0.6923 -0.2665
  131OSM   H18U14149   1.688   4.479   8.028 -0.5538 -0.6518  0.2807
  131OSM    C1F14150   1.548   4.836   6.588  0.3587  0.0744 -0.0147
  131OSM     OF14151   1.441   4.863   6.532 -0.3862 -0.7322 -0.1896
  131OSM    C2F14152   1.591   4.913   6.710 -0.2877  0.5917  0.1138
  131OSM    H2F14153   1.542   5.012   6.704 -0.4305  0.4738 -0.7453
  131OSM    H2G14154   1.702   4.917   6.714 -0.1433 -1.5031 -1.0054
  131OSM    C3F14155   1.551   4.838   6.844 -0.0241 -0.0031  0.4693
  131OSM    H3F14156   1.589   4.733   6.845  1.8023  0.6200 -0.5025
  131OSM    H3G14157   1.442   4.819   6.842  0.0281 -0.2068 -0.8223
  131OSM    C4F14158   1.583   4.913   6.982 -0.0466  0.0055  0.2803
  131OSM    H4F14159   1.560   5.021   6.964 -0.3548  0.1586  1.5222
  131OSM    H4G14160   1.692   4.903   6.999  0.0171  0.9897  0.5102
  131OSM    C5F14161   1.511   4.852   7.097  0.1805 -0.2316 -0.4175
  131OSM    H5F14162   1.522   4.741   7.102 -2.3810 -0.4770  0.4561
  131OSM    H5G14163   1.402   4.872   7.087  0.1598  0.1469  0.5393
  131OSM    C6F14164   1.572   4.918   7.217 -0.3851 -0.7926 -0.6917
  131OSM    H6F14165   1.554   5.027   7.209  3.7415  0.0810  0.8627
  131OSM    H6G14166   1.680   4.897   7.200 -0.2131  0.0201 -0.6229
  131OSM    C7F14167   1.528   4.865   7.352  0.8718 -0.3147 -0.9322
  131OSM    H7F14168   1.513   4.755   7.348  2.0152 -0.4484 -1.4721
  131OSM    H7G14169   1.426   4.908   7.366  0.6130 -0.6269 -1.8092
  131OSM    C8F14170   1.629   4.913   7.457 -0.2253  0.4865 -0.2368
  131OSM    H8F14171   1.640   5.024   7.456 -0.3914  0.5031 -0.1544
  131OSM    H8G14172   1.727   4.863   7.441  0.1457  0.0479  2.9554
  131OSM    C9F14173   1.574   4.880   7.595 -0.5185  0.2051 -0.3578
  131OSM    H9F14174   1.563   4.774   7.625  1.1496  0.7042  2.2505
  131OSM   C10F14175   1.539   4.964   7.691  1.1214  0.6979  0.2221
  131OSM   H10F14176   1.509   4.923   7.788  0.4456  1.5982  0.3994
  131OSM   C11F14177   1.548   5.118   7.689  0.2999  0.1229  0.3477
  131OSM   H11F14178   1.470   5.164   7.753 -2.5847 -0.7929 -2.3946
  131OSM   H11G14179   1.521   5.148   7.586  1.8717  1.3203  0.2650
  131OSM   C12F14180   1.676   5.187   7.732 -0.7627 -0.6643 -0.6844
  131OSM   H12F14181   1.657   5.290   7.696 -0.9007 -0.9041 -1.2912
  131OSM   H12G14182   1.771   5.150   7.688 -0.0198  0.7913 -0.3200
  131OSM   C13F14183   1.682   5.186   7.884  0.6329  0.1085 -0.1846
  131OSM   H13F14184   1.583   5.161   7.928  0.7762  1.0339  0.6663
  131OSM   H13G14185   1.705   5.286   7.926 -2.2111  0.4974  0.5290
  131OSM   C14F14186   1.789   5.084   7.947  0.5947 -0.6126 -1.1633
  131OSM   H14F14187   1.885   5.114   7.900  1.6245  2.1933  2.5005
  131OSM   H14G14188   1.762   4.980   7.921  0.2178 -0.6466 -0.6367
  131OSM   C15F14189   1.799   5.093   8.105  0.7659 -0.5043 -0.4167
  131OSM   H15F14190   1.699   5.082   8.152 -0.1746 -0.2234 -2.3184
  131OSM   H15G14191   1.825   5.198   8.128 -0.5443 -0.0521 -0.9929
  131OSM   C16F14192   1.909   5.004   8.158 -0.2294 -0.0518 -0.2569
  131OSM   H16F14193   2.001   5.021   8.098  0.2413 -0.6330  0.2977
  131OSM   H16G14194   1.868   4.904   8.133 -2.5026  0.9936 -0.9107
  131OSM   C17F14195   1.942   5.021   8.305  0.4041  0.1678  0.0960
  131OSM   H17F14196   1.843   5.003   8.351  0.4926 -1.0650 -0.1639
  131OSM   H17G14197   1.981   5.122   8.329  2.7296 -0.0850 -2.2861
  131OSM   C18F14198   2.042   4.912   8.354  0.2634  0.4330  0.1352
  131OSM   H18F14199   2.024   4.870   8.455  1.0437  2.1283  0.9957
  131OSM   H18G14200   2.143   4.958   8.349 -0.3504  1.8328  0.2403
  131OSM   H18H14201   2.040   4.822   8.288  0.1212  0.0808  0.6211
  132OSM      N14202   2.929   6.734   6.338 -0.0173  0.1374 -0.2762
  132OSM    C1514203   2.802   6.724   6.409 -0.2458  0.4991 -0.6399
  132OSM   H15A14204   2.761   6.822   6.428  1.4260  1.1106 -0.0882
  132OSM   H15B14205   2.803   6.675   6.505 -2.4756  2.3962  0.4137
  132OSM   H15C14206   2.723   6.671   6.358 -1.0435 -0.8219  1.8570
  132OSM    C1414207   2.895   6.811   6.215  0.1007  0.0262  1.0866
  132OSM   H14A14208   2.983   6.841   6.161 -0.2938 -0.8545 -0.0930
  132OSM   H14B14209   2.844   6.902   6.240  2.5357  1.2728  1.6057
  132OSM   H14C14210   2.836   6.747   6.150  1.9077  0.3967 -0.9812
  132OSM    C1314211   3.021   6.825   6.415  0.7365 -0.3259 -0.0720
  132OSM   H13A14212   3.035   6.788   6.515  0.6068  1.0373  0.4614
  132OSM   H13B14213   2.968   6.919   6.427 -0.3888 -0.9897  0.2461
  132OSM   H13C14214   3.115   6.846   6.367  0.2693 -0.6112 -1.1173
  132OSM    C1214215   2.997   6.598   6.311  0.1304  0.0650 -0.0672
  132OSM   H12A14216   3.093   6.610   6.264 -1.0013 -2.3242 -3.1404
  132OSM   H12B14217   2.938   6.537   6.244  0.4716  0.1244 -0.4164
  132OSM    C1114218   3.030   6.514   6.447 -0.1219 -0.5821  0.1157
  132OSM   H11A14219   2.932   6.506   6.499 -0.7492 -0.5198 -1.0323
  132OSM   H11B14220   3.109   6.562   6.507 -0.5268 -0.9998  0.9917
  132OSM      P14221   3.214   6.342   6.395  0.3659 -0.1268 -0.0888
  132OSM    O1314222   3.206   6.196   6.358  0.0313 -0.3626 -0.0803
  132OSM    O1414223   3.274   6.428   6.291 -0.7387 -0.4721  0.4771
  132OSM    O1114224   3.282   6.367   6.529  0.0521 -0.1379 -0.0350
  132OSM    O1214225   3.063   6.381   6.408 -0.0693 -0.1136 -0.2736
  132OSM    C1S14226   3.231   6.293   6.641 -0.7848 -0.4703 -0.5514
  132OSM    H1S14227   3.268   6.189   6.645  0.0135 -0.1513  0.6217
  132OSM    H1T14228   3.123   6.313   6.660  0.0131  0.0660  3.9455
  132OSM     NF14229   3.281   6.282   6.897 -0.3264  0.4254 -0.3102
  132OSM    HNF14230   3.218   6.324   6.961  1.2907  0.1657  1.4924
  132OSM    C2S14231   3.294   6.359   6.769  0.5793 -0.8638 -0.6999
  132OSM    H2S14232   3.404   6.368   6.758  0.4692  2.4792  0.6026
  132OSM    C3S14233   3.245   6.508   6.779  0.0894 -0.1341 -0.1687
  132OSM    H3S14234   3.134   6.503   6.772  0.2104 -2.9797 -0.4519
  132OSM     O314235   3.298   6.585   6.678  0.7540 -0.5790 -0.2932
  132OSM    HO314236   3.306   6.518   6.609 -0.8372 -0.2173 -0.8709
  132OSM    C4S14237   3.276   6.562   6.920 -0.0493 -0.2781 -0.1184
  132OSM    H4S14238   3.185   6.561   6.982  0.8522 -0.8791  1.2241
  132OSM    C5S14239   3.395   6.587   6.978  0.2059 -0.1490 -0.3160
  132OSM    H5S14240   3.489   6.603   6.922 -0.3114  1.7904 -0.6641
  132OSM    C6S14241   3.410   6.639   7.121  0.0320  0.1615  0.1226
  132OSM    H6S14242   3.412   6.750   7.120 -2.9988  0.2930  2.1992
  132OSM    H6T14243   3.501   6.594   7.166 -0.1186 -1.3112 -0.9947
  132OSM    C7S14244   3.296   6.605   7.221 -0.1396 -0.6478  0.4510
  132OSM    H7S14245   3.280   6.496   7.227  2.3310 -0.9837  1.3588
  132OSM    H7T14246   3.199   6.650   7.190  0.3003  1.2808  1.7966
  132OSM    C8S14247   3.325   6.659   7.358 -0.0202  0.1315  0.0396
  132OSM    H8S14248   3.325   6.770   7.356 -1.5353  0.1305 -0.1025
  132OSM    H8T14249   3.423   6.627   7.400 -0.1935 -0.7821 -0.2562
  132OSM    C9S14250   3.228   6.611   7.472  0.1461 -0.6375 -0.2134
  132OSM    H9S14251   3.210   6.507   7.437  1.3932 -0.4082 -1.5876
  132OSM    H9T14252   3.137   6.673   7.459 -0.4688 -1.5185 -0.1465
  132OSM   C10S14253   3.291   6.629   7.614  0.6438  0.4396 -0.0486
  132OSM   H10S14254   3.317   6.735   7.636 -1.5947  0.9867  0.0249
  132OSM   H10T14255   3.382   6.566   7.618  0.2273 -0.1897 -0.5993
  132OSM   C11S14256   3.194   6.588   7.721  0.9967  0.3553  0.4945
  132OSM   H11S14257   3.189   6.477   7.723  0.0296  0.3611 -1.0153
  132OSM   H11T14258   3.096   6.628   7.687 -0.5942 -2.6128  1.4112
  132OSM   C12S14259   3.226   6.656   7.855  0.0074  0.1372  0.4382
  132OSM   H12S14260   3.240   6.761   7.824  3.8036 -0.6599 -0.7208
  132OSM   H12T14261   3.315   6.620   7.910 -0.4181 -0.8440  0.5026
  132OSM   C13S14262   3.108   6.628   7.945  0.0171 -0.4981  0.8101
  132OSM   H13S14263   3.117   6.519   7.966  0.2298 -0.3707  1.3834
  132OSM   H13T14264   3.012   6.654   7.895  1.0194 -0.0580 -0.9204
  132OSM   C14S14265   3.114   6.705   8.081 -0.6450  0.7849  0.4577
  132OSM   H14S14266   3.019   6.705   8.138 -1.4400  0.8292 -0.8474
  132OSM   H14T14267   3.139   6.811   8.059  4.2966  0.7361  4.9129
  132OSM   C15S14268   3.224   6.641   8.178 -0.4765  0.2505  0.3037
  132OSM   H15S14269   3.315   6.694   8.142  1.1121 -2.4458  0.2134
  132OSM   H15T14270   3.216   6.530   8.174  2.7555 -0.1961  3.4977
  132OSM   C16S14271   3.198   6.675   8.321 -0.3008  0.3936 -0.1404
  132OSM   H16S14272   3.104   6.629   8.358 -0.8921  2.7054  1.3213
  132OSM   H16T14273   3.191   6.784   8.342 -1.5982  0.1915  0.4997
  132OSM   C17S14274   3.307   6.622   8.411  0.0883 -0.1820 -0.4936
  132OSM   H17S14275   3.405   6.664   8.378 -0.0409 -0.4356 -1.1973
  132OSM   H17T14276   3.321   6.512   8.400  0.4582 -0.1998  0.1139
  132OSM   C18S14277   3.285   6.661   8.560  0.7382 -0.4957 -0.7950
  132OSM   H18S14278   3.377   6.640   8.618  1.2345 -0.2948 -1.5046
  132OSM   H18T14279   3.209   6.598   8.612 -0.0239  1.3363  0.3664
  132OSM   H18U14280   3.254   6.767   8.569  2.0802 -0.0815 -0.9506
  132OSM    C1F14281   3.335   6.159   6.908 -0.0449 -1.2018 -0.6328
  132OSM     OF14282   3.411   6.117   6.820 -0.4012  0.5387  0.4105
  132OSM    C2F14283   3.284   6.082   7.028  0.4118  0.4496  0.4844
  132OSM    H2F14284   3.179   6.052   7.008  0.4493  0.4845  0.2305
  132OSM    H2G14285   3.288   6.136   7.125  0.7867  0.4624  0.4637
  132OSM    C3F14286   3.376   5.964   7.047 -0.4596 -0.6098 -0.5593
  132OSM    H3F14287   3.481   5.996   7.067 -0.3282 -0.3172 -1.7028
  132OSM    H3G14288   3.369   5.895   6.960  2.7116  0.8306 -2.0444
  132OSM    C4F14289   3.327   5.886   7.174 -0.2009 -0.3889  0.3139
  132OSM    H4F14290   3.369   5.939   7.262  0.1847  0.4298 -0.3490
  132OSM    H4G14291   3.354   5.778   7.171  1.6648  0.0732 -0.5223
  132OSM    C5F14292   3.181   5.865   7.194  0.0375 -0.3662  0.4228
  132OSM    H5F14293   3.133   5.805   7.114 -3.1945 -1.4292  3.0171
  132OSM    H5G14294   3.120   5.958   7.192  0.0130 -0.2999  2.6946
  132OSM    C6F14295   3.144   5.781   7.325 -0.1273 -0.0983 -0.5226
  132OSM    H6F14296   3.207   5.691   7.337 -0.6145  0.0214  3.7094
  132OSM    H6G14297   3.043   5.738   7.311 -1.0816  2.5297 -2.0591
  132OSM    C7F14298   3.136   5.854   7.460 -0.2924 -0.8610 -0.5093
  132OSM    H7F14299   3.058   5.933   7.445 -0.5000 -0.4715  2.3804
  132OSM    H7G14300   3.232   5.906   7.478 -0.2567 -1.4564  0.9897
  132OSM    C8F14301   3.107   5.753   7.579  0.3710 -0.0308 -0.4009
  132OSM    H8F14302   3.028   5.685   7.542  1.2874 -0.5133 -1.4798
  132OSM    H8G14303   3.058   5.817   7.655  0.3650 -1.3170  0.6975
  132OSM    C9F14304   3.230   5.689   7.640 -0.6521  0.2729  0.7418
  132OSM    H9F14305   3.280   5.616   7.575  0.9443  2.8337 -1.0030
  132OSM   C10F14306   3.302   5.715   7.751  0.9467 -0.6581  0.4563
  132OSM   H10F14307   3.397   5.667   7.777  0.6434 -1.2111  0.5738
  132OSM   C11F14308   3.251   5.820   7.845 -0.2977  0.4906 -0.2555
  132OSM   H11F14309   3.159   5.875   7.817 -0.3229 -0.5289 -2.3113
  132OSM   H11G14310   3.334   5.893   7.858 -1.5402  1.4267  2.8812
  132OSM   C12F14311   3.218   5.771   7.984  0.0766 -0.1126  0.2967
  132OSM   H12F14312   3.142   5.694   7.957 -0.1418  0.6574 -1.3347
  132OSM   H12G14313   3.178   5.855   8.044  0.3629  0.2301  0.0100
  132OSM   C13F14314   3.327   5.707   8.069  0.4231  0.0418 -0.3748
  132OSM   H13F14315   3.415   5.775   8.067  0.6396 -0.2520 -0.9414
  132OSM   H13G14316   3.356   5.609   8.026  0.0643  0.8402 -2.4737
  132OSM   C14F14317   3.282   5.666   8.217  0.1107  0.7544 -0.3761
  132OSM   H14F14318   3.329   5.571   8.251 -1.0550  0.4156  0.3390
  132OSM   H14G14319   3.177   5.636   8.194  0.2772  0.8998 -1.3170
  132OSM   C15F14320   3.285   5.763   8.331  0.0719 -0.6601 -0.3556
  132OSM   H15F14321   3.242   5.862   8.304 -0.0533 -0.4742  0.4906
  132OSM   H15G14322   3.395   5.779   8.334 -0.0548  0.1475  0.8659
  132OSM   C16F14323   3.224   5.719   8.464  0.2069 -0.5200  0.2127
  132OSM   H16F14324   3.288   5.763   8.542  0.0084  0.3505 -0.1132
  132OSM   H16G14325   3.233   5.608   8.464 -2.3632 -0.7722 -0.3682
  132OSM   C17F14326   3.072   5.748   8.476 -0.9029 -1.2112 -0.6765
  132OSM   H17F14327   3.019   5.666   8.423 -2.9910 -1.9271  2.3354
  132OSM   H17G14328   3.048   5.847   8.433  1.8726 -0.2901 -0.1943
  132OSM   C18F14329   3.024   5.745   8.616  0.4347  0.2253 -0.3017
  132OSM   H18F14330   3.072   5.656   8.663  2.8814  0.7251 -1.7595
  132OSM   H18G14331   2.915   5.732   8.631  0.5020 -0.8692 -0.6921
  132OSM   H18H14332   3.059   5.828   8.681 -2.7869  1.5142 -0.1509
  133OSM      N14333   3.472   6.073   6.026  0.3533 -0.2933 -0.6989
  133OSM    C1514334   3.380   6.146   5.934  0.6156  0.0699  0.2295
  133OSM   H15A14335   3.346   6.073   5.863  3.4934  0.1703 -1.3481
  133OSM   H15B14336   3.425   6.223   5.872 -0.8871 -0.3094 -1.3649
  133OSM   H15C14337   3.307   6.197   5.994 -0.1689 -0.1643 -0.5173
  133OSM    C1414338   3.410   5.949   6.086 -0.5798  0.4070  0.0508
  133OSM   H14A14339   3.481   5.907   6.155  0.4594  0.2285 -1.1231
  133OSM   H14B14340   3.380   5.871   6.018  2.8409 -1.1626  0.2552
  133OSM   H14C14341   3.322   5.959   6.148 -0.2069 -0.0604  0.6531
  133OSM    C1314342   3.600   6.034   5.947 -0.4814 -0.3193  0.1145
  133OSM   H13A14343   3.643   6.123   5.905 -0.2790  0.3822  1.7968
  133OSM   H13B14344   3.581   5.961   5.870  1.1376  0.1513 -0.7501
  133OSM   H13C14345   3.672   5.998   6.019 -1.5127 -2.1185  0.2968
  133OSM    C1214346   3.510   6.185   6.135  0.4323 -0.6729  0.9732
  133OSM   H12A14347   3.412   6.205   6.175  0.8223 -0.9591  2.0870
  133OSM   H12B14348   3.548   6.262   6.069 -3.8207 -1.0624 -2.1643
  133OSM    C1114349   3.596   6.137   6.258 -0.3780 -0.0523  0.2692
  133OSM   H11A14350   3.541   6.060   6.316 -1.9379  1.4900  0.8814
  133OSM   H11B14351   3.601   6.222   6.329 -0.0007 -0.1495  0.3609
  133OSM      P14352   3.843   6.188   6.217 -0.0846 -0.0336  0.7391
  133OSM    O1314353   3.962   6.122   6.157  0.0530  0.2239 -0.5966
  133OSM    O1414354   3.806   6.315   6.147  0.5507 -0.5315  0.1263
  133OSM    O1114355   3.868   6.206   6.370 -0.0479 -0.4895 -0.5729
  133OSM    O1214356   3.718   6.084   6.211 -0.4674 -0.2295  0.3843
  133OSM    C1S14357   3.856   6.099   6.465  0.3224 -0.0357 -0.2886
  133OSM    H1S14358   3.933   6.019   6.457 -0.3440 -0.6802 -0.3162
  133OSM    H1T14359   3.759   6.045   6.457  0.1797  0.3287 -1.0439
  133OSM     NF14360   3.875   6.056   6.713  0.3600 -0.5412  0.2142
  133OSM    HNF14361   3.791   6.017   6.750  0.2881 -0.6487 -0.0644
  133OSM    C2S14362   3.863   6.158   6.616  0.2168 -0.8522  0.4600
  133OSM    H2S14363   3.953   6.222   6.622 -0.9670  1.0494 -1.3153
  133OSM    C3S14364   3.746   6.248   6.642  0.2427 -0.1059 -0.4392
  133OSM    H3S14365   3.650   6.209   6.601 -0.4743 -0.1704  1.2451
  133OSM     O314366   3.749   6.372   6.567 -0.6245 -0.8003 -0.5620
  133OSM    HO314367   3.809   6.352   6.494 -0.2657 -0.1727 -0.4404
  133OSM    C4S14368   3.729   6.275   6.791  0.2461  0.0816  0.8622
  133OSM    H4S14369   3.654   6.211   6.840  1.8314 -1.5227  1.2416
  133OSM    C5S14370   3.798   6.364   6.870 -0.3780  0.7775  0.5517
  133OSM    H5S14371   3.871   6.434   6.827 -1.3879  0.6259 -1.4622
  133OSM    C6S14372   3.782   6.386   7.018 -0.1761 -0.2594 -0.6197
  133OSM    H6S14373   3.726   6.480   7.041  0.8734  0.7048 -1.9462
  133OSM    H6T14374   3.881   6.399   7.068  0.5458 -0.9904 -1.8508
  133OSM    C7S14375   3.717   6.272   7.094  0.1012 -0.0135  0.5553
  133OSM    H7S14376   3.780   6.181   7.094  2.2557  1.4343  0.4208
  133OSM    H7T14377   3.617   6.262   7.046 -2.3608  1.8684  4.9268
  133OSM    C8S14378   3.694   6.309   7.239  0.6379  0.2265 -0.3787
  133OSM    H8S14379   3.633   6.401   7.249 -0.4171 -0.6493  1.4686
  133OSM    H8T14380   3.797   6.333   7.272  0.5618  0.3014 -0.1980
  133OSM    C9S14381   3.629   6.200   7.323  0.0246 -0.4496 -1.0753
  133OSM    H9S14382   3.708   6.123   7.328 -1.7410 -2.3324 -1.5268
  133OSM    H9T14383   3.545   6.163   7.261 -0.3185 -1.7276  0.1310
  133OSM   C10S14384   3.568   6.257   7.450  0.4327  0.1296 -0.0577
  133OSM   H10S14385   3.470   6.304   7.426 -0.5518 -1.3340  0.9546
  133OSM   H10T14386   3.636   6.334   7.492 -2.7463  1.0594  3.7532
  133OSM   C11S14387   3.554   6.152   7.561 -0.0456 -0.0940  0.1733
  133OSM   H11S14388   3.655   6.116   7.589 -0.3294 -1.1325 -0.1047
  133OSM   H11T14389   3.503   6.065   7.513  1.0927 -0.9035  0.4057
  133OSM   C12S14390   3.488   6.215   7.686 -0.2295  0.1681  0.1439
  133OSM   H12S14391   3.473   6.136   7.763 -1.2860  2.2518  2.1462
  133OSM   H12T14392   3.392   6.259   7.651  0.4370  2.3551  0.9230
  133OSM   C13S14393   3.582   6.320   7.756  0.2271 -0.3238 -0.3394
  133OSM   H13S14394   3.595   6.410   7.692 -1.9272  0.9068  0.8809
  133OSM   H13T14395   3.685   6.288   7.779  0.9276  0.4217 -2.3370
  133OSM   C14S14396   3.520   6.384   7.882 -0.1676 -0.0917 -0.6931
  133OSM   H14S14397   3.411   6.405   7.878  0.0144  1.3251  1.1672
  133OSM   H14T14398   3.567   6.483   7.900 -1.5139 -0.0171  2.7939
  133OSM   C15S14399   3.537   6.283   8.004 -0.0479  0.4356  0.9554
  133OSM   H15S14400   3.647   6.277   8.014  0.0235 -2.1223 -0.7179
  133OSM   H15T14401   3.499   6.186   7.965 -0.5178  1.0907 -0.2600
  133OSM   C16S14402   3.456   6.325   8.121  0.0009 -0.2284 -0.8873
  133OSM   H16S14403   3.348   6.325   8.098 -0.3301  1.6033  0.5561
  133OSM   H16T14404   3.481   6.430   8.147 -0.8316 -0.1156 -0.5463
  133OSM   C17S14405   3.480   6.239   8.247 -0.0464  0.1984 -0.2600
  133OSM   H17S14406   3.452   6.296   8.339 -0.0773 -1.2308  0.6341
  133OSM   H17T14407   3.588   6.219   8.263 -0.2748  0.8255  2.3005
  133OSM   C18S14408   3.416   6.104   8.258 -0.0781 -0.5733  0.0319
  133OSM   H18S14409   3.307   6.124   8.254  0.3563  2.1504  0.4732
  133OSM   H18T14410   3.423   6.071   8.363 -0.9754  1.8658  0.8903
  133OSM   H18U14411   3.435   6.024   8.183  0.4112 -1.1451  0.7605
  133OSM    C1F14412   3.991   5.999   6.755  0.4585 -0.3506 -0.1396
  133OSM     OF14413   4.096   6.032   6.701 -0.1759 -0.1792  0.2051
  133OSM    C2F14414   3.987   5.907   6.879  0.5229  0.2604  0.9054
  133OSM    H2F14415   3.993   5.806   6.832  0.3845  0.0661  1.3033
  133OSM    H2G14416   3.886   5.921   6.922  0.0839 -2.4422  0.8819
  133OSM    C3F14417   4.085   5.938   6.992  1.3972  0.2090 -0.2756
  133OSM    H3F14418   4.191   5.925   6.965  1.6154  0.5517  0.4082
  133OSM    H3G14419   4.068   5.865   7.074  2.7676  0.3669  0.1533
  133OSM    C4F14420   4.081   6.083   7.044 -0.0826 -0.7913  0.2804
  133OSM    H4F14421   3.980   6.094   7.089  0.4237 -1.2172  1.5377
  133OSM    H4G14422   4.093   6.161   6.966 -1.7851 -0.6783  0.1135
  133OSM    C5F14423   4.182   6.097   7.162  0.4349 -0.6856 -0.1226
  133OSM    H5F14424   4.155   6.200   7.194 -2.1652 -1.5632  0.6454
  133OSM    H5G14425   4.290   6.090   7.137  0.1531 -0.2361 -1.5125
  133OSM    C6F14426   4.124   6.022   7.287  0.4313  0.7383 -0.1202
  133OSM    H6F14427   4.142   5.914   7.270  0.3952  0.4492  1.5694
  133OSM    H6G14428   4.014   6.038   7.281  0.5922  1.9398 -0.0122
  133OSM    C7F14429   4.175   6.071   7.428  0.3193  0.3857 -0.7596
  133OSM    H7F14430   4.285   6.082   7.420  0.7603 -2.2897  0.8606
  133OSM    H7G14431   4.158   5.996   7.509  1.5735 -0.5320 -1.3230
  133OSM    C8F14432   4.116   6.201   7.484 -0.1373  0.6363 -0.5326
  133OSM    H8F14433   4.166   6.287   7.435 -0.3285  0.6353 -0.7288
  133OSM    H8G14434   4.152   6.204   7.589 -1.4548  1.3359 -0.0917
  133OSM    C9F14435   3.967   6.218   7.503  0.4056 -0.0425  0.2759
  133OSM    H9F14436   3.918   6.120   7.489 -1.5951  1.1306 -1.2775
  133OSM   C10F14437   3.915   6.319   7.570 -0.1180  0.1042  0.6605
  133OSM   H10F14438   3.806   6.321   7.583 -0.2025  0.2485 -0.0324
  133OSM   C11F14439   3.988   6.439   7.613  0.3547  0.0967 -0.3388
  133OSM   H11F14440   3.925   6.523   7.576 -0.7960 -0.4000  0.4956
  133OSM   H11G14441   4.095   6.442   7.583 -0.1141  1.1030 -1.9849
  133OSM   C12F14442   3.977   6.438   7.770  0.8111  0.4748  0.3664
  133OSM   H12F14443   3.871   6.415   7.792  0.1428  0.7865 -2.3837
  133OSM   H12G14444   3.994   6.539   7.812 -3.7651  1.0464  1.0914
  133OSM   C13F14445   4.081   6.346   7.846 -0.2140 -0.1595  0.3992
  133OSM   H13F14446   4.186   6.356   7.812  0.1023  1.8183  1.8612
  133OSM   H13G14447   4.046   6.245   7.814 -2.6187  0.8725 -0.4261
  133OSM   C14F14448   4.067   6.346   7.998 -0.2718 -0.1528 -0.4551
  133OSM   H14F14449   3.958   6.343   8.022 -0.4044 -1.3529 -1.1846
  133OSM   H14G14450   4.127   6.425   8.049  3.5584 -1.9994 -1.9844
  133OSM   C15F14451   4.113   6.214   8.050 -0.3178  0.5792 -0.3039
  133OSM   H15F14452   4.214   6.191   8.009 -1.4787 -1.6705 -2.0238
  133OSM   H15G14453   4.037   6.135   8.033  0.6994 -0.5397  0.3067
  133OSM   C16F14454   4.151   6.216   8.192 -0.1085  0.5255  0.3077
  133OSM   H16F14455   4.064   6.264   8.241 -0.1481  0.5406  0.2197
  133OSM   H16G14456   4.237   6.283   8.214 -0.0273  0.1306  1.2224
  133OSM   C17F14457   4.164   6.072   8.252  0.7412  0.5252 -0.2216
  133OSM   H17F14458   4.242   6.020   8.192  1.7959  0.1847  1.3833
  133OSM   H17G14459   4.071   6.020   8.222  0.7693  0.8577 -0.8746
  133OSM   C18F14460   4.183   6.055   8.404  0.1898 -0.0497  0.7760
  133OSM   H18F14461   4.273   6.100   8.451 -0.4277 -0.6488  2.5658
  133OSM   H18G14462   4.207   5.949   8.428  2.8067  0.6819  1.5710
  133OSM   H18H14463   4.092   6.070   8.465 -1.1842  1.8574 -1.6608
  134OSM      N14464   4.654   1.835   6.111 -0.2204  0.3382  0.0285
  134OSM    C1514465   4.580   1.749   6.013  0.7284 -0.6045  0.3259
  134OSM   H15A14466   4.639   1.668   5.973 -0.0975 -0.7926 -0.5262
  134OSM   H15B14467   4.552   1.814   5.932 -0.9379  2.2439  3.0441
  134OSM   H15C14468   4.496   1.708   6.066  0.1597 -0.3706 -0.4002
  134OSM    C1414469   4.794   1.851   6.057 -0.0005 -0.2728  0.2675
  134OSM   H14A14470   4.848   1.757   6.048 -1.5972 -1.1083 -0.8687
  134OSM   H14B14471   4.841   1.916   6.128 -1.7265  0.6273  0.6013
  134OSM   H14C14472   4.789   1.907   5.965 -1.8092  0.5479  0.8327
  134OSM    C1314473   4.577   1.967   6.120 -0.6406  0.5209 -0.4232
  134OSM   H13A14474   4.573   2.002   6.018 -0.8267 -0.8236 -0.8839
  134OSM   H13B14475   4.630   2.033   6.187 -0.4406 -0.5137  0.4463
  134OSM   H13C14476   4.474   1.949   6.147 -0.3624 -1.0892 -0.3565
  134OSM    C1214477   4.653   1.772   6.254  0.1953  0.8592 -0.3232
  134OSM   H12A14478   4.691   1.671   6.243  0.5018  1.1262 -1.8146
  134OSM   H12B14479   4.550   1.761   6.286  0.6091  1.3086  1.2286
  134OSM    C1114480   4.735   1.843   6.371 -0.1973 -0.4704  0.2865
  134OSM   H11A14481   4.719   1.802   6.473  0.2099 -0.7538  0.2388
  134OSM   H11B14482   4.678   1.936   6.356 -1.1807 -1.0065  0.6794
  134OSM      P14483   4.966   1.943   6.423 -0.3539 -0.2459  0.2110
  134OSM    O1314484   5.104   1.887   6.419  0.1426 -0.2877  0.2338
  134OSM    O1414485   4.956   2.083   6.375 -0.7069 -0.2044 -0.3709
  134OSM    O1114486   4.892   1.936   6.560 -0.4186  0.6376 -0.0040
  134OSM    O1214487   4.875   1.852   6.339  0.5919  0.2627 -0.1250
  134OSM    C1S14488   4.956   1.980   6.680 -0.8935 -0.0984 -0.2188
  134OSM    H1S14489   4.937   2.086   6.704 -0.8217 -0.3703  1.0541
  134OSM    H1T14490   5.066   1.968   6.665 -0.9172 -1.4570  0.5390
  134OSM     NF14491   4.994   1.941   6.925 -0.6787 -0.5142 -0.5110
  134OSM    HNF14492   5.079   1.897   6.953  0.7834  2.9900  0.8383
  134OSM    C2S14493   4.917   1.893   6.804 -0.5305 -0.8415  0.1607
  134OSM    H2S14494   4.807   1.904   6.807 -0.5353 -0.4725 -1.3325
  134OSM    C3S14495   4.948   1.736   6.771 -0.5224 -0.8300  0.2038
  134OSM    H3S14496   5.051   1.718   6.733 -0.9174 -1.6926 -0.4636
  134OSM     O314497   4.861   1.687   6.666  0.4780  0.9051 -0.0368
  134OSM    HO314498   4.828   1.760   6.613 -1.1200 -1.6334 -2.7243
  134OSM    C4S14499   4.917   1.663   6.893  1.0351 -0.2580  0.0157
  134OSM    H4S14500   4.810   1.639   6.902  1.0515 -0.3818 -0.1232
  134OSM    C5S14501   5.008   1.618   6.980  0.5024 -0.3575  0.6063
  134OSM    H5S14502   5.114   1.632   6.956  0.6128  1.6988  2.0930
  134OSM    C6S14503   4.976   1.545   7.109  0.4768 -0.7744 -0.1694
  134OSM    H6S14504   5.059   1.473   7.126  0.7169 -0.6167 -0.6671
  134OSM    H6T14505   4.882   1.489   7.094  0.0721 -0.5990  1.6723
  134OSM    C7S14506   4.978   1.639   7.239 -0.1689  0.1831  0.4465
  134OSM    H7S14507   4.909   1.723   7.221  1.5885  1.2787 -1.5133
  134OSM    H7T14508   5.082   1.675   7.258 -0.4960  0.6541  1.3457
  134OSM    C8S14509   4.923   1.550   7.354  0.7076  0.1975  1.2533
  134OSM    H8S14510   4.977   1.452   7.352  1.6002  0.6787 -3.0497
  134OSM    H8T14511   4.821   1.514   7.330  0.9661 -0.9936  1.8719
  134OSM    C9S14512   4.929   1.620   7.485 -0.4474  0.3303  0.2775
  134OSM    H9S14513   4.843   1.691   7.484 -1.0151 -0.3262  1.0908
  134OSM    H9T14514   5.015   1.689   7.494 -1.2168  0.9677  3.3329
  134OSM   C10S14515   4.922   1.528   7.616  0.8601  0.0159 -0.1375
  134OSM   H10S14516   5.023   1.483   7.624  1.2752  0.8795 -0.5173
  134OSM   H10T14517   4.858   1.439   7.596  1.3994 -0.3445 -0.2688
  134OSM   C11S14518   4.863   1.600   7.732  0.2681 -0.5400 -0.2873
  134OSM   H11S14519   4.753   1.602   7.725  0.0830 -0.3112  2.1570
  134OSM   H11T14520   4.890   1.708   7.737  0.0235 -0.5375  1.1556
  134OSM   C12S14521   4.921   1.550   7.865  0.4515 -0.0660  0.1152
  134OSM   H12S14522   5.032   1.542   7.862  0.6187  1.6276  1.3060
  134OSM   H12T14523   4.876   1.449   7.875 -1.3271  0.5210 -1.7468
  134OSM   C13S14524   4.887   1.645   7.981  0.6332 -0.0475 -0.5217
  134OSM   H13S14525   4.777   1.635   7.992  0.8006 -0.6576  0.6988
  134OSM   H13T14526   4.902   1.754   7.966 -1.7634  0.0502 -2.4333
  134OSM   C14S14527   4.961   1.607   8.115 -0.3230 -0.6558  0.0445
  134OSM   H14S14528   5.051   1.666   8.141  0.1205 -0.9733 -0.7729
  134OSM   H14T14529   4.977   1.497   8.118 -1.6605 -0.8406  1.5427
  134OSM   C15S14530   4.876   1.653   8.244 -0.6074  0.6000 -0.1940
  134OSM   H15S14531   4.830   1.752   8.227 -1.9607 -0.0783 -0.5852
  134OSM   H15T14532   4.945   1.670   8.329  1.3457  0.2952 -1.6885
  134OSM   C16S14533   4.770   1.559   8.275  1.1380  0.3433 -0.4266
  134OSM   H16S14534   4.825   1.464   8.291 -1.6842 -1.2370  0.4223
  134OSM   H16T14535   4.701   1.552   8.188 -0.9909 -0.1821  1.2611
  134OSM   C17S14536   4.692   1.590   8.399  0.3465  0.2608 -0.4137
  134OSM   H17S14537   4.618   1.509   8.415  1.6919 -0.8440  0.3478
  134OSM   H17T14538   4.643   1.687   8.376  0.7661  0.2269 -1.4802
  134OSM   C18S14539   4.776   1.604   8.526  0.6607  0.1901 -0.2190
  134OSM   H18S14540   4.715   1.640   8.612  1.5311 -0.0610  0.5043
  134OSM   H18T14541   4.858   1.677   8.509  0.6726  0.2246 -0.0092
  134OSM   H18U14542   4.819   1.504   8.549 -1.4418 -0.7449 -0.2482
  134OSM    C1F14543   4.964   2.054   6.984  0.6099  0.0347  0.2709
  134OSM     OF14544   4.861   2.109   6.953  0.9384 -0.4378 -0.8751
  134OSM    C2F14545   5.058   2.112   7.083  0.1015 -0.2898  0.1624
  134OSM    H2F14546   5.095   2.207   7.039 -0.9956  0.1181  0.0880
  134OSM    H2G14547   5.145   2.045   7.099 -0.5571 -1.9341 -2.6935
  134OSM    C3F14548   4.981   2.142   7.205  0.1188 -0.1478  0.0708
  134OSM    H3F14549   4.958   2.045   7.255 -0.7826 -0.2726 -0.5769
  134OSM    H3G14550   4.879   2.182   7.187  0.7675  2.0808  1.1491
  134OSM    C4F14551   5.059   2.237   7.296 -1.1273 -0.1128 -0.9140
  134OSM    H4F14552   5.080   2.328   7.236  2.9450  0.9007  1.8354
  134OSM    H4G14553   5.159   2.193   7.314 -2.0593 -1.1090  2.1666
  134OSM    C5F14554   4.992   2.297   7.427 -0.0682  0.0069 -0.2351
  134OSM    H5F14555   4.901   2.349   7.392  0.2338 -0.1772 -1.3269
  134OSM    H5G14556   5.064   2.374   7.463  0.0402  0.8758 -2.2019
  134OSM    C6F14557   4.965   2.199   7.543 -0.7335  0.9014  0.5822
  134OSM    H6F14558   5.060   2.186   7.598  0.3657 -0.5180 -1.5852
  134OSM    H6G14559   4.942   2.103   7.491  1.2284  2.2161 -2.8671
  134OSM    C7F14560   4.851   2.237   7.637  0.8860 -0.5268 -0.6054
  134OSM    H7F14561   4.862   2.175   7.729 -0.8695 -1.8803 -1.3047
  134OSM    H7G14562   4.757   2.207   7.588 -0.4108 -0.6702  1.8835
  134OSM    C8F14563   4.843   2.388   7.689  0.5885 -0.6160 -0.8086
  134OSM    H8F14564   4.758   2.400   7.760 -0.0840  2.8335 -2.1033
  134OSM    H8G14565   4.817   2.460   7.609  1.0334 -0.9779 -1.2774
  134OSM    C9F14566   4.970   2.432   7.755 -0.7123 -0.1947  0.8064
  134OSM    H9F14567   5.038   2.491   7.691 -1.4231 -0.6820 -0.4126
  134OSM   C10F14568   5.000   2.410   7.885  0.1253 -0.8392  0.5742
  134OSM   H10F14569   5.091   2.456   7.928  0.5505 -1.7581  0.6664
  134OSM   C11F14570   4.915   2.331   7.983  0.0333 -0.1039 -0.5169
  134OSM   H11F14571   4.966   2.235   8.006 -1.2743 -0.7751 -0.3745
  134OSM   H11G14572   4.814   2.305   7.943  0.1592  0.5030 -1.2570
  134OSM   C12F14573   4.887   2.402   8.115 -0.5722  0.3128  0.0888
  134OSM   H12F14574   4.807   2.478   8.118  0.2081  1.1637 -0.1834
  134OSM   H12G14575   4.976   2.463   8.142  0.6118 -1.5355  0.4532
  134OSM   C13F14576   4.869   2.301   8.234  0.8372 -1.0326  0.1244
  134OSM   H13F14577   4.900   2.356   8.326  1.3643 -1.1316  0.0120
  134OSM   H13G14578   4.924   2.205   8.224  0.2167 -1.6029  2.0281
  134OSM   C14F14579   4.724   2.262   8.270 -0.3018 -0.1062 -0.3143
  134OSM   H14F14580   4.688   2.189   8.194  0.6272 -0.6555 -0.2337
  134OSM   H14G14581   4.656   2.349   8.258 -0.4272  0.1941  2.2148
  134OSM   C15F14582   4.713   2.207   8.409  0.1592 -0.0630 -0.8235
  134OSM   H15F14583   4.605   2.183   8.416 -0.1865  0.9033 -2.4838
  134OSM   H15G14584   4.751   2.290   8.472 -0.8046 -1.3328  1.5115
  134OSM   C16F14585   4.801   2.081   8.435  0.6357 -0.5428  0.4454
  134OSM   H16F14586   4.905   2.121   8.430  0.0363  0.9584 -0.2094
  134OSM   H16G14587   4.796   1.991   8.370 -3.4192 -0.9728  1.2569
  134OSM   C17F14588   4.781   2.029   8.576  1.2131 -0.1274 -0.2617
  134OSM   H17F14589   4.781   2.106   8.656  1.7313 -1.7580  1.3499
  134OSM   H17G14590   4.871   1.967   8.596  0.0004 -1.4504  1.2612
  134OSM   C18F14591   4.662   1.926   8.586  0.0867 -0.7780 -0.6264
  134OSM   H18F14592   4.563   1.977   8.588 -0.2112 -1.3524 -0.3322
  134OSM   H18G14593   4.664   1.886   8.690 -0.3455  0.9832  0.0767
  134OSM   H18H14594   4.665   1.851   8.504 -0.2018 -2.1140  0.5546
  135OSM      N14595   4.474   2.655   6.160 -0.3818  0.7318 -0.7229
  135OSM    C1514596   4.478   2.790   6.093  0.0156 -0.4639  0.2958
  135OSM   H15A14597   4.569   2.840   6.124 -0.6245  0.7299  0.2671
  135OSM   H15B14598   4.392   2.850   6.119  1.8066  1.1281  2.8057
  135OSM   H15C14599   4.476   2.790   5.985 -1.2362  0.6975  0.3100
  135OSM    C1414600   4.358   2.572   6.115 -0.1831  0.0581  0.7728
  135OSM   H14A14601   4.362   2.475   6.163 -0.4827  0.1774  1.0399
  135OSM   H14B14602   4.368   2.571   6.007 -0.8178  0.1386  0.7058
  135OSM   H14C14603   4.265   2.610   6.155 -0.5522  1.9408 -1.7129
  135OSM    C1314604   4.593   2.566   6.123  0.0995 -0.3803 -0.4877
  135OSM   H13A14605   4.594   2.478   6.186 -0.0371  0.5569  0.8360
  135OSM   H13B14606   4.677   2.624   6.155 -1.1004  1.6308 -0.9185
  135OSM   H13C14607   4.589   2.542   6.017  0.4076  1.2671 -0.8832
  135OSM    C1214608   4.467   2.674   6.312  0.5730  0.2953 -0.2112
  135OSM   H12A14609   4.394   2.752   6.328  0.4292 -0.0433  0.8181
  135OSM   H12B14610   4.560   2.712   6.352 -1.0263  2.1526  1.8145
  135OSM    C1114611   4.423   2.548   6.394 -0.2760  0.3611  0.2863
  135OSM   H11A14612   4.312   2.541   6.385 -0.6419  2.0547  2.9850
  135OSM   H11B14613   4.438   2.563   6.503 -0.6904 -0.4747  0.4680
  135OSM      P14614   4.434   2.282   6.374 -0.3050  0.3097  0.0001
  135OSM    O1314615   4.284   2.282   6.359  0.2970 -0.0661  0.1566
  135OSM    O1414616   4.518   2.192   6.294  0.1774 -0.1493 -0.4447
  135OSM    O1114617   4.470   2.254   6.530  0.3855 -0.2469  0.3930
  135OSM    O1214618   4.489   2.434   6.346 -0.2406 -0.1292  0.1439
  135OSM    C1S14619   4.597   2.279   6.587  0.3038  0.4643 -0.5125
  135OSM    H1S14620   4.641   2.374   6.550 -1.2223  0.7698 -1.5902
  135OSM    H1T14621   4.669   2.197   6.567  0.4108  0.6452 -0.8623
  135OSM     NF14622   4.727   2.313   6.793 -0.1980 -0.4315  0.1411
  135OSM    HNF14623   4.776   2.249   6.852  1.0177  1.3595  1.1156
  135OSM    C2S14624   4.595   2.283   6.746 -0.4025 -0.4025 -0.0393
  135OSM    H2S14625   4.518   2.356   6.781 -0.8265 -0.2623 -1.2593
  135OSM    C3S14626   4.527   2.158   6.806  0.3059 -0.1422  0.0032
  135OSM    H3S14627   4.598   2.079   6.774  0.4871 -0.5157  1.2932
  135OSM     O314628   4.403   2.108   6.746 -0.1068  0.0759 -0.2653
  135OSM    HO314629   4.410   2.139   6.656  1.7812 -1.0488 -0.5200
  135OSM    C4S14630   4.521   2.176   6.957  0.8135  0.2143  0.1610
  135OSM    H4S14631   4.610   2.128   6.999  1.5586 -0.0953 -1.6922
  135OSM    C5S14632   4.425   2.226   7.041 -0.0765  0.4182  0.8882
  135OSM    H5S14633   4.335   2.259   6.987 -0.6287 -0.0475  1.5120
  135OSM    C6S14634   4.427   2.239   7.191  0.2399 -0.2087  0.6876
  135OSM    H6S14635   4.344   2.182   7.237  0.0149  1.0637  1.8955
  135OSM    H6T14636   4.418   2.346   7.218  0.0048  0.0385 -0.3461
  135OSM    C7S14637   4.559   2.192   7.255 -0.0214  0.3065  0.7299
  135OSM    H7S14638   4.630   2.276   7.271 -0.9826  1.2721 -0.0055
  135OSM    H7T14639   4.602   2.104   7.204 -3.1858 -0.7700 -0.1628
  135OSM    C8S14640   4.530   2.144   7.395 -1.0129 -0.0654 -0.1894
  135OSM    H8S14641   4.624   2.096   7.430  0.9885  1.7899 -2.8358
  135OSM    H8T14642   4.458   2.060   7.387  0.0273 -0.9607 -0.2629
  135OSM    C9S14643   4.500   2.249   7.504 -0.2556 -0.4363 -0.0134
  135OSM    H9S14644   4.425   2.327   7.481 -3.0598 -2.7170  1.1104
  135OSM    H9T14645   4.590   2.304   7.539  0.6244 -2.3194  0.7549
  135OSM   C10S14646   4.445   2.179   7.628 -0.0406 -0.1163 -0.5488
  135OSM   H10S14647   4.509   2.092   7.655  0.3048  0.7508  1.5487
  135OSM   H10T14648   4.355   2.118   7.608  1.0612 -2.4465  1.2753
  135OSM   C11S14649   4.426   2.270   7.749  0.1959 -0.5700  0.3542
  135OSM   H11S14650   4.393   2.372   7.719  1.3883 -0.4666 -0.6797
  135OSM   H11T14651   4.526   2.273   7.798  1.4434 -0.2264 -2.1020
  135OSM   C12S14652   4.317   2.217   7.844 -0.5764 -0.4785 -0.2973
  135OSM   H12S14653   4.353   2.118   7.880 -2.6000 -0.7392  1.1270
  135OSM   H12T14654   4.221   2.213   7.789 -1.5915 -0.0137  1.3812
  135OSM   C13S14655   4.292   2.312   7.968  0.3515 -0.1883  0.1742
  135OSM   H13S14656   4.215   2.266   8.033 -0.6340 -1.2578 -1.7023
  135OSM   H13T14657   4.247   2.404   7.925 -0.5069  0.4494  2.3810
  135OSM   C14S14658   4.418   2.326   8.059 -0.5575  0.5415  0.2515
  135OSM   H14S14659   4.509   2.345   8.000 -1.0215  1.2789 -0.2276
  135OSM   H14T14660   4.431   2.241   8.130  3.3415  0.4214 -0.5235
  135OSM   C15S14661   4.401   2.448   8.153  0.0392  0.2170  0.1075
  135OSM   H15S14662   4.350   2.529   8.097  1.0796  1.1532  0.5079
  135OSM   H15T14663   4.500   2.488   8.184  0.2840 -1.7299  1.9508
  135OSM   C16S14664   4.318   2.420   8.280 -0.1353 -0.1070 -0.4837
  135OSM   H16S14665   4.371   2.337   8.330  0.5102  0.9626  0.6304
  135OSM   H16T14666   4.212   2.406   8.250  0.6450  0.5120 -3.6615
  135OSM   C17S14667   4.318   2.543   8.379 -0.3546 -0.0532 -0.5775
  135OSM   H17S14668   4.298   2.636   8.321  0.9936 -0.3376 -1.5236
  135OSM   H17T14669   4.424   2.546   8.413 -0.5845  0.1209  0.1187
  135OSM   C18S14670   4.230   2.521   8.494  0.5129  0.9538 -0.4457
  135OSM   H18S14671   4.245   2.612   8.557  0.7528  1.5850 -1.3961
  135OSM   H18T14672   4.262   2.433   8.554 -2.6067  0.2462  0.2693
  135OSM   H18U14673   4.124   2.520   8.461  1.0430  1.2569 -2.2203
  135OSM    C1F14674   4.786   2.431   6.760  0.5380 -1.3186 -0.4221
  135OSM     OF14675   4.720   2.524   6.716  0.5115 -0.0487  0.1398
  135OSM    C2F14676   4.939   2.441   6.773 -0.4749 -0.1850  0.2178
  135OSM    H2F14677   4.975   2.455   6.669  1.6869 -1.2098  0.7972
  135OSM    H2G14678   4.981   2.351   6.822  1.7318 -0.7811 -2.6066
  135OSM    C3F14679   4.981   2.566   6.849 -0.2569  0.1972  0.4406
  135OSM    H3F14680   4.926   2.644   6.793 -1.8295 -1.1774  0.0554
  135OSM    H3G14681   5.089   2.579   6.825 -0.6449 -0.6515 -1.8869
  135OSM    C4F14682   4.956   2.558   7.000  0.1139  0.5279  0.2374
  135OSM    H4F14683   5.011   2.466   7.029 -1.3229 -0.2057  0.6788
  135OSM    H4G14684   4.849   2.542   7.027  0.1241  1.1871  0.6834
  135OSM    C5F14685   5.017   2.674   7.077  0.4669 -0.0010 -0.0615
  135OSM    H5F14686   4.973   2.769   7.040 -0.3657  1.0355  3.3919
  135OSM    H5G14687   5.125   2.671   7.052  0.5917 -3.9191  0.4989
  135OSM    C6F14688   4.987   2.666   7.232  0.5966 -0.2289  0.0820
  135OSM    H6F14689   5.037   2.579   7.279  1.1173 -0.6935 -1.2952
  135OSM    H6G14690   4.877   2.663   7.251  0.7980  1.0633  1.5366
  135OSM    C7F14691   5.026   2.793   7.298 -0.3917  0.0095  0.7631
  135OSM    H7F14692   4.962   2.872   7.252 -0.2399 -0.4335 -0.2159
  135OSM    H7G14693   5.126   2.818   7.258 -0.7107 -1.8466 -1.2443
  135OSM    C8F14694   5.017   2.789   7.453  0.5917  0.1710  0.5063
  135OSM    H8F14695   5.076   2.701   7.487  0.4574 -0.3365 -0.5705
  135OSM    H8G14696   4.912   2.785   7.488 -0.0680  1.5915 -1.2721
  135OSM    C9F14697   5.063   2.914   7.513 -0.2237 -0.5614  1.1606
  135OSM    H9F14698   5.077   2.996   7.441 -0.0838 -0.0525  1.7583
  135OSM   C10F14699   5.083   2.944   7.640 -0.1570 -0.5604  0.8041
  135OSM   H10F14700   5.101   3.051   7.662  3.6590 -0.6618 -1.3467
  135OSM   C11F14701   5.072   2.847   7.756 -0.0598 -0.1826  0.6721
  135OSM   H11F14702   5.162   2.786   7.774 -1.5557 -2.2967  1.1958
  135OSM   H11G14703   5.004   2.762   7.732 -0.0480 -0.2864  1.0145
  135OSM   C12F14704   5.038   2.919   7.886  0.3914 -0.2955 -0.0200
  135OSM   H12F14705   4.931   2.947   7.895  0.0895 -1.4026 -0.0062
  135OSM   H12G14706   5.088   3.016   7.902 -2.7295  1.5103 -0.7543
  135OSM   C13F14707   5.087   2.827   8.001  0.0981 -0.5849  0.4334
  135OSM   H13F14708   5.192   2.799   7.977  0.3056  0.4973  0.0472
  135OSM   H13G14709   5.019   2.739   8.002 -2.0451  0.9366 -2.7215
  135OSM   C14F14710   5.086   2.902   8.135  0.1232 -0.2732  1.0456
  135OSM   H14F14711   4.994   2.962   8.150 -0.4291 -1.1402  1.1736
  135OSM   H14G14712   5.157   2.986   8.120 -1.4842  1.2795  1.9876
  135OSM   C15F14713   5.109   2.807   8.250  0.1848 -0.0096 -0.2639
  135OSM   H15F14714   5.206   2.754   8.244  0.2474  0.3845 -3.6979
  135OSM   H15G14715   5.039   2.721   8.242  0.1836 -0.0289 -0.0754
  135OSM   C16F14716   5.101   2.878   8.387  0.1511  0.1805 -0.0727
  135OSM   H16F14717   5.009   2.939   8.391 -1.5555 -2.3400  0.4549
  135OSM   H16G14718   5.182   2.953   8.394 -1.9330  2.4028  0.8991
  135OSM   C17F14719   5.114   2.786   8.513  0.3617 -0.5176  0.0841
  135OSM   H17F14720   5.219   2.751   8.509  0.7103  0.6367 -1.7403
  135OSM   H17G14721   5.038   2.705   8.512  0.6069 -0.7677  1.5177
  135OSM   C18F14722   5.080   2.867   8.636 -0.6885 -0.4674  0.0136
  135OSM   H18F14723   5.130   2.965   8.644  1.1007 -1.2345 -1.2497
  135OSM   H18G14724   5.096   2.813   8.732  0.2642 -0.6969 -0.2691
  135OSM   H18H14725   4.974   2.902   8.636 -0.1404  1.2237 -0.4192
  136OSM      N14726   3.086   4.539   6.174  0.5087  0.1009 -0.2346
  136OSM    C1514727   3.193   4.549   6.282  0.0160  0.4711 -0.4326
  136OSM   H15A14728   3.224   4.451   6.315 -1.8118  0.2664  0.7431
  136OSM   H15B14729   3.167   4.614   6.364  0.4680 -1.3388  1.1604
  136OSM   H15C14730   3.284   4.590   6.240  1.1843 -1.8589 -0.2318
  136OSM    C1414731   3.057   4.672   6.112  0.4782  0.4228  0.2058
  136OSM   H14A14732   2.992   4.728   6.178 -2.7528 -1.2419 -1.4518
  136OSM   H14B14733   2.996   4.663   6.023  2.3052 -0.9041 -0.9326
  136OSM   H14C14734   3.145   4.734   6.105  0.6246  0.2004  0.0693
  136OSM    C1314735   3.124   4.438   6.072  0.4337  0.1287  0.5062
  136OSM   H13A14736   3.138   4.341   6.117 -1.1324  0.1244  1.0392
  136OSM   H13B14737   3.221   4.462   6.032  0.9996 -1.8159  0.6989
  136OSM   H13C14738   3.055   4.426   5.990 -1.1043 -0.6266  1.8818
  136OSM    C1214739   2.955   4.490   6.236  0.8132 -0.3475 -0.1536
  136OSM   H12A14740   2.889   4.464   6.155 -0.0533  0.4872  0.2797
  136OSM   H12B14741   2.907   4.575   6.282  0.9528 -0.0630 -0.5339
  136OSM    C1114742   2.959   4.373   6.337 -0.2404 -0.7000  0.3102
  136OSM   H11A14743   2.857   4.340   6.368 -0.8713  0.6155 -0.3382
  136OSM   H11B14744   3.015   4.400   6.429  0.4939 -0.7634 -0.1105
  136OSM      P14745   3.126   4.168   6.320 -0.0920  0.1635  0.4508
  136OSM    O1314746   3.122   4.028   6.275 -0.2053 -0.2133 -0.4495
  136OSM    O1414747   3.256   4.236   6.302 -0.2185  0.3799 -0.0217
  136OSM    O1114748   3.105   4.165   6.478  0.2753 -0.8222 -0.0792
  136OSM    O1214749   3.011   4.259   6.269  0.3625  0.2395 -0.1471
  136OSM    C1S14750   2.989   4.107   6.534  0.1235 -0.8198  0.2307
  136OSM    H1S14751   2.979   4.004   6.495 -0.0753 -0.3172 -1.0795
  136OSM    H1T14752   2.898   4.168   6.517  1.6038  1.4762  0.2348
  136OSM     NF14753   2.896   3.990   6.731 -0.0934  0.1905  0.0117
  136OSM    HNF14754   2.823   4.030   6.787 -0.6613 -3.5939  2.1021
  136OSM    C2S14755   2.998   4.084   6.691  0.6726  0.2045 -0.6855
  136OSM    H2S14756   3.098   4.041   6.716 -0.9821 -2.3961  1.7003
  136OSM    C3S14757   2.992   4.226   6.757 -0.1972  1.1973 -0.1124
  136OSM    H3S14758   2.890   4.266   6.740  0.1254  0.7667 -3.2649
  136OSM     O314759   3.082   4.325   6.707  0.0241  0.4197 -0.5501
  136OSM    HO314760   3.126   4.287   6.631  0.6296  2.6785 -1.3634
  136OSM    C4S14761   3.006   4.207   6.907 -0.0684  0.1565  0.8019
  136OSM    H4S14762   2.917   4.165   6.957  0.2496 -3.0837 -1.2008
  136OSM    C5S14763   3.103   4.250   6.988 -0.0274 -0.2398  0.2108
  136OSM    H5S14764   3.194   4.302   6.953  0.5111 -0.0204  1.8912
  136OSM    C6S14765   3.087   4.233   7.140  0.5418  0.2291  0.4567
  136OSM    H6S14766   3.189   4.213   7.182  1.3349  2.0180 -0.5610
  136OSM    H6T14767   3.015   4.152   7.166 -0.1995  0.1279 -1.8326
  136OSM    C7S14768   3.049   4.362   7.219  0.4425 -0.2969 -0.7305
  136OSM    H7S14769   3.118   4.446   7.199  1.4947 -1.0260 -0.2089
  136OSM    H7T14770   3.055   4.327   7.325 -2.1917  0.2916 -0.3474
  136OSM    C8S14771   2.904   4.394   7.197  0.2408 -0.5325 -0.0116
  136OSM    H8S14772   2.841   4.302   7.203 -0.4031 -0.1027 -0.1295
  136OSM    H8T14773   2.875   4.435   7.098  0.5519  2.5428  1.1308
  136OSM    C9S14774   2.859   4.493   7.305  0.0049 -0.5478 -0.0799
  136OSM    H9S14775   2.920   4.584   7.283 -1.5697  0.5638  0.0809
  136OSM    H9T14776   2.869   4.474   7.414  0.4039 -1.2570 -0.2328
  136OSM   C10S14777   2.715   4.526   7.282 -0.3545  0.6454  0.2600
  136OSM   H10S14778   2.653   4.434   7.278  0.3248  0.1779  0.3901
  136OSM   H10T14779   2.698   4.576   7.184  0.5347 -0.7139 -0.5839
  136OSM   C11S14780   2.661   4.627   7.385  0.0154  0.3746  0.1622
  136OSM   H11S14781   2.741   4.684   7.437  0.9807  0.4104 -1.3490
  136OSM   H11T14782   2.596   4.578   7.461  0.5695  0.6987  0.8450
  136OSM   C12S14783   2.568   4.727   7.326 -0.5626  0.7229 -0.7899
  136OSM   H12S14784   2.624   4.798   7.261  4.0849 -0.8456  1.2713
  136OSM   H12T14785   2.528   4.787   7.410 -0.6173 -0.4808  0.0490
  136OSM   C13S14786   2.444   4.673   7.248  0.0701  0.2319  0.2476
  136OSM   H13S14787   2.391   4.597   7.309 -1.3010  0.2495 -0.8928
  136OSM   H13T14788   2.497   4.613   7.171  0.2383  0.4128  0.2241
  136OSM   C14S14789   2.349   4.781   7.207  0.1807  0.7058 -0.0140
  136OSM   H14S14790   2.406   4.870   7.171  1.2269  0.3535  0.7687
  136OSM   H14T14791   2.293   4.826   7.292 -0.6262  2.0072 -1.1995
  136OSM   C15S14792   2.257   4.743   7.091  0.0852 -0.5004  0.1356
  136OSM   H15S14793   2.189   4.671   7.141  1.5975 -1.2628  1.1450
  136OSM   H15T14794   2.313   4.702   7.004 -0.9250 -1.1820 -0.1972
  136OSM   C16S14795   2.180   4.863   7.045 -0.2475 -0.2543 -0.6798
  136OSM   H16S14796   2.241   4.943   7.000  0.4810 -0.5711 -0.2628
  136OSM   H16T14797   2.124   4.900   7.133  0.3100  0.1721 -0.5035
  136OSM   C17S14798   2.085   4.828   6.932 -0.5619  0.6305 -0.4302
  136OSM   H17S14799   2.135   4.771   6.851  0.3337  2.3191 -1.0822
  136OSM   H17T14800   2.066   4.927   6.886 -1.2339  0.5637 -0.2984
  136OSM   C18S14801   1.957   4.754   6.970 -0.6599 -0.2493  0.4578
  136OSM   H18S14802   1.882   4.807   7.033  0.8752 -1.0886  3.0727
  136OSM   H18T14803   1.980   4.662   7.028 -0.4738 -0.8278 -0.5089
  136OSM   H18U14804   1.913   4.716   6.875 -1.4295  2.5754 -0.3610
  136OSM    C1F14805   2.911   3.861   6.693 -0.4846  0.0420 -0.6702
  136OSM     OF14806   3.017   3.821   6.644 -0.4742  0.0623 -0.5158
  136OSM    C2F14807   2.793   3.769   6.709  0.4749 -0.2182 -0.7111
  136OSM    H2F14808   2.796   3.696   6.625 -1.6036 -0.3005 -0.7433
  136OSM    H2G14809   2.695   3.820   6.709 -1.6554 -4.0961 -0.2232
  136OSM    C3F14810   2.815   3.679   6.826  1.0891 -1.0474  0.4597
  136OSM    H3F14811   2.904   3.619   6.796  0.9876  0.3860 -3.0257
  136OSM    H3G14812   2.722   3.618   6.825 -1.5270  2.7554  1.8704
  136OSM    C4F14813   2.836   3.752   6.960  0.1356  0.4678 -0.2548
  136OSM    H4F14814   2.745   3.814   6.975 -1.0143 -0.2470 -3.8505
  136OSM    H4G14815   2.928   3.815   6.966  0.1228  0.3372  1.6497
  136OSM    C5F14816   2.863   3.651   7.066 -0.2610 -0.7915  0.3865
  136OSM    H5F14817   2.967   3.615   7.051 -1.0302 -1.8951 -2.5839
  136OSM    H5G14818   2.799   3.560   7.055 -1.4436  0.1755 -0.9893
  136OSM    C6F14819   2.853   3.702   7.207 -0.0774 -0.2347 -0.0589
  136OSM    H6F14820   2.752   3.743   7.225  1.4248  2.7467  2.1210
  136OSM    H6G14821   2.932   3.780   7.203 -0.6754  0.2998 -2.6606
  136OSM    C7F14822   2.866   3.593   7.302  0.7126 -0.0231 -0.2061
  136OSM    H7F14823   2.953   3.525   7.291 -0.9295 -2.2863  0.5816
  136OSM    H7G14824   2.772   3.535   7.294  0.3143  0.7029 -0.9675
  136OSM    C8F14825   2.882   3.642   7.451  0.3258  0.3164  0.6512
  136OSM    H8F14826   2.835   3.742   7.460  0.2558  0.3669 -0.2385
  136OSM    H8G14827   2.988   3.650   7.483  0.5029 -2.3882  0.8815
  136OSM    C9F14828   2.824   3.544   7.559  0.3272 -0.9569  0.1803
  136OSM    H9F14829   2.867   3.442   7.554 -2.0366 -2.0441  1.1115
  136OSM   C10F14830   2.735   3.565   7.659  0.1974  0.3167  0.6397
  136OSM   H10F14831   2.694   3.482   7.719  2.0376 -1.2795 -0.2475
  136OSM   C11F14832   2.661   3.697   7.679  0.1235 -0.0182 -0.0984
  136OSM   H11F14833   2.555   3.685   7.710  0.8404 -0.2483  2.3580
  136OSM   H11G14834   2.661   3.774   7.598 -0.4126 -1.7351 -1.7796
  136OSM   C12F14835   2.725   3.774   7.799 -0.4919 -0.6270 -0.4087
  136OSM   H12F14836   2.828   3.809   7.777 -0.3682 -1.0176 -0.4556
  136OSM   H12G14837   2.735   3.706   7.887 -2.4520 -1.6322 -0.9431
  136OSM   C13F14838   2.644   3.899   7.826 -0.1569 -0.1191  0.7123
  136OSM   H13F14839   2.540   3.869   7.855 -0.2211  0.0397  0.6426
  136OSM   H13G14840   2.640   3.962   7.735  0.8558 -0.3254  0.5283
  136OSM   C14F14841   2.689   3.965   7.960  0.0148 -0.5601  0.4717
  136OSM   H14F14842   2.643   4.063   7.986  0.3110  0.6408 -3.2112
  136OSM   H14G14843   2.799   3.982   7.960 -0.4640  3.1013 -2.0775
  136OSM   C15F14844   2.654   3.877   8.081 -0.5906  0.2429  0.2062
  136OSM   H15F14845   2.705   3.779   8.072  0.2148  0.8782 -2.5408
  136OSM   H15G14846   2.550   3.841   8.070 -0.3108 -0.5604  0.1610
  136OSM   C16F14847   2.667   3.941   8.220  0.7839 -0.4558  0.0560
  136OSM   H16F14848   2.611   4.035   8.231  0.5209 -0.5667 -0.3264
  136OSM   H16G14849   2.774   3.963   8.239  0.7667 -0.5589  0.2696
  136OSM   C17F14850   2.618   3.851   8.330 -0.2219  0.0575  0.4453
  136OSM   H17F14851   2.692   3.768   8.325  0.4305  0.7383 -4.7156
  136OSM   H17G14852   2.520   3.806   8.306  0.2201  0.1905 -1.7439
  136OSM   C18F14853   2.620   3.911   8.471  0.0194 -0.0787 -0.1160
  136OSM   H18F14854   2.564   4.007   8.474  0.3269  0.1131 -0.5095
  136OSM   H18G14855   2.725   3.930   8.501  0.1997 -3.5506  1.7137
  136OSM   H18H14856   2.571   3.838   8.539  2.0498 -1.1945  0.1908
  137OSM      N14857   5.898   0.699   6.250  0.2959 -0.3847  0.2732
  137OSM    C1514858   5.784   0.624   6.191 -0.2408  0.7913  0.2528
  137OSM   H15A14859   5.754   0.544   6.257 -0.5744  0.9959  0.3532
  137OSM   H15B14860   5.814   0.583   6.096 -1.7758  0.4767 -0.1174
  137OSM   H15C14861   5.693   0.672   6.158 -1.5215 -2.3840 -1.0273
  137OSM    C1414862   6.010   0.602   6.262 -0.9018  0.1099  0.4623
  137OSM   H14A14863   6.022   0.553   6.167 -1.3486 -0.2500  0.5921
  137OSM   H14B14864   5.975   0.531   6.336 -0.8468 -1.5743 -1.1039
  137OSM   H14C14865   6.098   0.657   6.292 -0.5613 -0.4088  0.4087
  137OSM    C1314866   5.926   0.805   6.151  0.1256  0.1198 -0.0173
  137OSM   H13A14867   5.970   0.766   6.061  0.3559  1.3366 -0.4403
  137OSM   H13B14868   5.999   0.873   6.193 -0.0001 -0.3736  1.0296
  137OSM   H13C14869   5.840   0.866   6.131  0.2904 -0.0676 -1.3350
  137OSM    C1214870   5.861   0.767   6.380  0.8044 -0.2979  0.0939
  137OSM   H12A14871   5.820   0.697   6.452 -0.1669  2.7644  2.6147
  137OSM   H12B14872   5.783   0.841   6.370  1.4568  0.8975  3.2705
  137OSM    C1114873   5.966   0.857   6.445 -0.1901 -0.2940  0.4660
  137OSM   H11A14874   6.069   0.814   6.443  0.8706  2.2107 -1.1654
  137OSM   H11B14875   5.925   0.866   6.548 -1.4013 -1.8192  0.1340
  137OSM      P14876   5.929   1.129   6.419 -0.5071  0.2521  0.2741
  137OSM    O1314877   6.048   1.213   6.416 -1.3055 -0.3706  0.7764
  137OSM    O1414878   5.799   1.183   6.358  0.4476 -0.0835  0.4202
  137OSM    O1114879   5.892   1.104   6.570  0.0197 -0.5275  0.3003
  137OSM    O1214880   5.968   0.983   6.373 -0.7285  0.5860  0.1680
  137OSM    C1S14881   5.971   1.153   6.677 -0.2778 -0.5655  0.3961
  137OSM    H1S14882   6.027   1.248   6.659 -2.0344  0.5448  0.6542
  137OSM    H1T14883   6.045   1.075   6.704  0.6858  1.1245  2.8109
  137OSM     NF14884   5.953   1.263   6.900 -0.0181 -0.1622 -0.2290
  137OSM    HNF14885   6.004   1.219   6.973  0.0022  1.4062  0.7347
  137OSM    C2S14886   5.887   1.179   6.801  0.4423  0.3514 -0.7059
  137OSM    H2S14887   5.805   1.250   6.776 -0.9115 -0.0860  2.2563
  137OSM    C3S14888   5.836   1.047   6.859 -1.2855 -0.5481  0.7528
  137OSM    H3S14889   5.929   0.993   6.889 -1.4679 -0.7016  1.0499
  137OSM     O314890   5.767   0.967   6.763 -0.0968  0.3759  0.0599
  137OSM    HO314891   5.796   0.986   6.674  0.5424  1.0825  0.4141
  137OSM    C4S14892   5.734   1.073   6.966  0.6581  0.2962 -0.1706
  137OSM    H4S14893   5.634   1.111   6.939  0.7187 -0.4595 -1.5235
  137OSM    C5S14894   5.759   1.043   7.098 -0.0824  0.7883  0.6250
  137OSM    H5S14895   5.860   1.009   7.125  0.3460  0.4560 -1.3260
  137OSM    C6S14896   5.657   1.065   7.208 -0.3758 -0.2124 -0.4188
  137OSM    H6S14897   5.655   0.978   7.276 -0.5486 -0.3142 -0.5560
  137OSM    H6T14898   5.561   1.102   7.165  0.1511  3.3646  1.2319
  137OSM    C7S14899   5.716   1.168   7.308 -0.0124  0.0720 -0.9420
  137OSM    H7S14900   5.735   1.264   7.254 -0.7835  0.7228 -0.0840
  137OSM    H7T14901   5.822   1.145   7.330  0.4421  2.1023 -0.9236
  137OSM    C8S14902   5.657   1.191   7.446  0.3565 -0.1793 -0.9177
  137OSM    H8S14903   5.548   1.208   7.433  0.6435  1.9766 -0.7499
  137OSM    H8T14904   5.710   1.277   7.492  0.6009 -1.0450  0.4369
  137OSM    C9S14905   5.686   1.069   7.527 -0.2292  0.4016 -0.6373
  137OSM    H9S14906   5.788   1.033   7.506 -0.0578  0.8582 -0.5938
  137OSM    H9T14907   5.611   0.993   7.495  0.1960 -0.5701  0.6193
  137OSM   C10S14908   5.660   1.101   7.671 -0.4585 -0.0602 -0.1577
  137OSM   H10S14909   5.558   1.143   7.683 -1.3051 -2.1667  0.2244
  137OSM   H10T14910   5.728   1.185   7.700  0.0201 -1.1836  2.1295
  137OSM   C11S14911   5.695   0.982   7.760 -0.6177 -0.2015 -0.1237
  137OSM   H11S14912   5.805   0.971   7.758 -0.7597 -2.3311  1.0694
  137OSM   H11T14913   5.655   0.884   7.724 -0.2598  0.0388 -1.1800
  137OSM   C12S14914   5.641   0.993   7.906 -0.2533 -0.3621  0.4574
  137OSM   H12S14915   5.667   0.907   7.971 -0.3106  0.8675  2.1335
  137OSM   H12T14916   5.530   0.989   7.903 -0.3248  1.6630 -0.5981
  137OSM   C13S14917   5.688   1.122   7.979 -0.1093  0.2515 -0.0168
  137OSM   H13S14918   5.631   1.207   7.935 -1.5732  0.3347  1.9714
  137OSM   H13T14919   5.793   1.141   7.951  0.5297 -0.7289  1.6225
  137OSM   C14S14920   5.674   1.134   8.137  0.3733  0.3371 -0.3545
  137OSM   H14S14921   5.567   1.122   8.164  0.5485 -1.1454 -0.2746
  137OSM   H14T14922   5.718   1.230   8.171 -0.8389  0.0911  2.0138
  137OSM   C15S14923   5.755   1.019   8.208 -0.0844  0.1978  0.2154
  137OSM   H15S14924   5.854   0.999   8.163 -1.2763 -2.3537 -1.4216
  137OSM   H15T14925   5.697   0.926   8.189  0.9279 -0.0891 -1.4948
  137OSM   C16S14926   5.781   1.044   8.353 -0.3208  0.6693 -0.5205
  137OSM   H16S14927   5.685   1.058   8.408 -0.3052  0.0376 -0.3369
  137OSM   H16T14928   5.824   1.144   8.374 -1.1328  0.8143  0.4930
  137OSM   C17S14929   5.876   0.942   8.420 -0.5437 -0.2915 -0.0088
  137OSM   H17S14930   5.886   0.978   8.525 -2.2004 -0.3664  0.1883
  137OSM   H17T14931   5.969   0.938   8.359 -0.5033 -0.9522  0.0988
  137OSM   C18S14932   5.831   0.800   8.426 -0.1662  0.3842  0.3061
  137OSM   H18S14933   5.734   0.799   8.481  0.7603  1.6290  1.9728
  137OSM   H18T14934   5.906   0.740   8.482  2.6345  2.3386 -1.2326
  137OSM   H18U14935   5.811   0.754   8.326 -2.0705 -2.5639  1.9609
  137OSM    C1F14936   5.968   1.394   6.886  0.2878 -0.0342  0.8637
  137OSM     OF14937   5.934   1.454   6.784  0.1784 -0.5122  0.0277
  137OSM    C2F14938   6.021   1.475   7.003  0.1249  0.4766  0.1079
  137OSM    H2F14939   6.062   1.572   6.970 -0.5203  0.5554 -0.4790
  137OSM    H2G14940   6.108   1.419   7.042 -1.1244  0.1837  2.6108
  137OSM    C3F14941   5.917   1.483   7.125 -0.1646  0.0267 -0.2767
  137OSM    H3F14942   5.925   1.380   7.164  0.6149  0.3678  0.5021
  137OSM    H3G14943   5.821   1.511   7.076 -0.7158  0.9696  1.3209
  137OSM    C4F14944   5.950   1.588   7.235  0.9146 -0.1303 -0.3028
  137OSM    H4F14945   5.920   1.687   7.195 -2.2348 -0.9129  0.0188
  137OSM    H4G14946   6.059   1.580   7.252  0.6528 -0.8051  1.0735
  137OSM    C5F14947   5.877   1.560   7.374 -0.0639 -0.5243  0.2826
  137OSM    H5F14948   5.894   1.459   7.415 -0.3340 -0.7538 -0.1583
  137OSM    H5G14949   5.767   1.555   7.354 -0.2186  2.0357  0.3549
  137OSM    C6F14950   5.937   1.663   7.472  0.1939  0.2692  0.1119
  137OSM    H6F14951   5.922   1.768   7.442  1.2269  0.3846 -0.0466
  137OSM    H6G14952   6.045   1.640   7.488  0.2084  0.3303  0.1012
  137OSM    C7F14953   5.893   1.653   7.623  0.5684 -0.4706  0.2178
  137OSM    H7F14954   5.941   1.737   7.677 -3.8328  2.1190  0.3148
  137OSM    H7G14955   5.935   1.557   7.661  0.3715  0.2211  2.1758
  137OSM    C8F14956   5.741   1.660   7.645 -0.1982  0.6350  0.5618
  137OSM    H8F14957   5.683   1.594   7.577  2.6616 -0.2922 -1.0372
  137OSM    H8G14958   5.707   1.765   7.633 -0.9156  0.3663  0.2303
  137OSM    C9F14959   5.716   1.604   7.777 -0.4511  0.6143 -0.5835
  137OSM    H9F14960   5.702   1.495   7.783 -0.8830  0.7008 -0.0260
  137OSM   C10F14961   5.714   1.675   7.891 -0.1665 -0.4782  0.2026
  137OSM   H10F14962   5.675   1.622   7.979 -1.3324  1.5957  0.9916
  137OSM   C11F14963   5.723   1.821   7.904 -0.7630  0.0419 -0.3870
  137OSM   H11F14964   5.623   1.867   7.892 -0.2772  0.6922 -2.2134
  137OSM   H11G14965   5.789   1.857   7.822 -0.8990  1.1521 -0.0179
  137OSM   C12F14966   5.770   1.870   8.043 -0.2740 -0.7418 -0.4724
  137OSM   H12F14967   5.691   1.846   8.117 -0.1582  0.6518  0.1223
  137OSM   H12G14968   5.781   1.980   8.033 -0.5729 -0.6544  0.1255
  137OSM   C13F14969   5.906   1.825   8.083  0.0502  0.2366 -0.4856
  137OSM   H13F14970   5.965   1.911   8.122  2.0215 -0.5591 -1.6027
  137OSM   H13G14971   5.962   1.786   7.995  0.1662 -0.0044 -0.3020
  137OSM   C14F14972   5.892   1.713   8.196  0.1173  0.1987  0.6106
  137OSM   H14F14973   5.976   1.645   8.169 -0.6243  0.2304 -1.8384
  137OSM   H14G14974   5.797   1.657   8.188  0.6660 -0.8203  1.0342
  137OSM   C15F14975   5.907   1.778   8.331  0.1434 -0.3137  0.5045
  137OSM   H15F14976   5.858   1.877   8.321 -0.2063 -0.6226 -1.1115
  137OSM   H15G14977   6.014   1.788   8.360 -0.4868 -1.3778  3.3014
  137OSM   C16F14978   5.847   1.706   8.441  0.2242 -0.9360 -0.4319
  137OSM   H16F14979   5.736   1.708   8.450  0.2408 -1.2042 -0.1604
  137OSM   H16G14980   5.889   1.754   8.532 -0.5137  0.5757 -0.8838
  137OSM   C17F14981   5.898   1.558   8.454 -0.6279 -0.7101  0.2541
  137OSM   H17F14982   5.847   1.497   8.376 -0.1004 -0.9513  0.0914
  137OSM   H17G14983   5.859   1.513   8.548 -0.0392  1.4535  1.5456
  137OSM   C18F14984   6.044   1.536   8.444 -1.0633 -0.1317  0.6645
  137OSM   H18F14985   6.069   1.428   8.454 -0.0223  0.1689  1.4082
  137OSM   H18G14986   6.103   1.601   8.512  0.6181 -1.1876  0.2531
  137OSM   H18H14987   6.082   1.560   8.343 -0.6633  1.5264  1.1828
  138OSM      N14988   6.690   3.113   6.280  0.7858  0.2595 -0.1269
  138OSM    C1514989   6.615   3.064   6.403  0.5573  0.0937  0.1923
  138OSM   H15A14990   6.668   3.101   6.489  0.2638  0.1254  0.3597
  138OSM   H15B14991   6.612   2.956   6.414 -3.5674 -0.1016 -1.7684
  138OSM   H15C14992   6.518   3.109   6.421 -0.6507 -1.2096 -2.6730
  138OSM    C1414993   6.835   3.073   6.297  0.3184 -0.7491  0.9802
  138OSM   H14A14994   6.880   3.123   6.381 -0.3971 -0.1542  1.0149
  138OSM   H14B14995   6.890   3.100   6.208  0.6906  1.4422  1.8358
  138OSM   H14C14996   6.842   2.966   6.308  1.4982 -0.4840  2.9556
  138OSM    C1314997   6.633   3.051   6.150 -0.6149  0.1702 -1.3425
  138OSM   H13A14998   6.528   3.036   6.170 -0.3716 -1.4864 -1.1936
  138OSM   H13B14999   6.667   2.952   6.123 -0.0577 -0.6948  2.2553
  138OSM   H13C15000   6.649   3.118   6.067  0.9636 -1.2865 -2.2582
  138OSM    C1215001   6.685   3.264   6.268  0.2964 -0.5899  0.4860
  138OSM   H12A15002   6.739   3.312   6.349 -0.9140  3.8383 -1.2072
  138OSM   H12B15003   6.582   3.294   6.272 -0.6784 -3.6897 -0.0583
  138OSM    C1115004   6.743   3.342   6.138 -0.0692 -0.2992  0.4955
  138OSM   H11A15005   6.852   3.326   6.124 -0.0657 -0.5324  0.7710
  138OSM   H11B15006   6.728   3.448   6.168  1.9771  0.6414 -1.6950
  138OSM      P15007   6.588   3.410   5.943  0.0327  0.0058  0.4236
  138OSM    O1315008   6.670   3.464   5.832 -0.9710 -0.0671  0.1659
  138OSM    O1415009   6.457   3.358   5.895  0.0698  0.4563  0.1557
  138OSM    O1115010   6.556   3.526   6.051 -0.1646 -0.3459 -0.0470
  138OSM    O1215011   6.662   3.300   6.030 -0.0879  0.3731  0.5552
  138OSM    C1S15012   6.456   3.502   6.155 -0.1993 -0.3026 -0.2153
  138OSM    H1S15013   6.466   3.397   6.192 -3.1006 -0.1635  1.1162
  138OSM    H1T15014   6.359   3.509   6.101 -0.7296  3.0560  1.0617
  138OSM     NF15015   6.374   3.581   6.373  0.2095  0.3492 -0.4322
  138OSM    HNF15016   6.300   3.647   6.386 -0.1728  0.0208 -0.9104
  138OSM    C2S15017   6.467   3.602   6.267  0.2223 -0.4936  1.0962
  138OSM    H2S15018   6.568   3.595   6.312  0.1518  1.5372  1.6488
  138OSM    C3S15019   6.459   3.753   6.220  0.1284 -0.0843 -0.4976
  138OSM    H3S15020   6.353   3.775   6.197 -0.3848 -2.5708 -0.6326
  138OSM     O315021   6.532   3.781   6.102 -0.1554 -0.1353 -0.5274
  138OSM    HO315022   6.591   3.706   6.091  0.3569  0.4341 -1.7752
  138OSM    C4S15023   6.511   3.842   6.339  0.4151 -0.1558  0.2771
  138OSM    H4S15024   6.429   3.883   6.400  0.1092  2.0693 -1.5468
  138OSM    C5S15025   6.636   3.885   6.373  0.5272 -0.1933 -0.1913
  138OSM    H5S15026   6.721   3.840   6.321 -0.3635 -4.1181  1.5479
  138OSM    C6S15027   6.663   3.977   6.483 -0.8507 -0.1307 -0.6241
  138OSM    H6S15028   6.579   4.045   6.509 -0.4764  1.3951 -3.1983
  138OSM    H6T15029   6.747   4.048   6.462 -0.5780 -0.2018  0.2158
  138OSM    C7S15030   6.705   3.879   6.599  0.5606  0.4311  1.0234
  138OSM    H7S15031   6.797   3.819   6.585  0.2249 -0.0149  0.6993
  138OSM    H7T15032   6.627   3.800   6.602  0.5416  0.2860 -1.8064
  138OSM    C8S15033   6.703   3.956   6.734 -0.7434  0.0468 -0.6955
  138OSM    H8S15034   6.612   4.020   6.735  0.5296  1.8810 -0.0712
  138OSM    H8T15035   6.791   4.022   6.749 -1.7846  1.2014  0.5854
  138OSM    C9S15036   6.701   3.866   6.860  0.0629  0.3311 -0.1451
  138OSM    H9S15037   6.778   3.789   6.835  2.3249  2.4058  0.2691
  138OSM    H9T15038   6.601   3.821   6.877 -0.8033  1.4945 -2.1046
  138OSM   C10S15039   6.736   3.937   6.986 -0.0133  0.5987  0.3137
  138OSM   H10S15040   6.671   4.025   7.007  1.3827  1.2265  2.2620
  138OSM   H10T15041   6.845   3.962   6.988  0.2334 -0.5072  4.2362
  138OSM   C11S15042   6.720   3.850   7.111  0.8211 -0.4657  0.0014
  138OSM   H11S15043   6.790   3.765   7.106  0.9548 -0.3707  0.2619
  138OSM   H11T15044   6.613   3.821   7.116 -0.1496  2.9659  0.8635
  138OSM   C12S15045   6.739   3.940   7.240  0.4031  0.3372  0.3056
  138OSM   H12S15046   6.677   4.030   7.223  0.5058  0.5860  1.2619
  138OSM   H12T15047   6.844   3.974   7.247 -0.1597  1.6360  2.7228
  138OSM   C13S15048   6.684   3.858   7.356  0.0425 -0.4465 -0.3198
  138OSM   H13S15049   6.721   3.753   7.351 -0.9410 -0.8894  1.2330
  138OSM   H13T15050   6.575   3.839   7.341 -0.3279  0.1303  1.5401
  138OSM   C14S15051   6.716   3.927   7.489  0.8594  0.3572 -0.3701
  138OSM   H14S15052   6.678   4.031   7.480 -0.6878 -0.2107 -0.5666
  138OSM   H14T15053   6.826   3.931   7.506  0.8922 -0.7009 -0.2992
  138OSM   C15S15054   6.651   3.862   7.610 -0.1842  0.2213  0.4316
  138OSM   H15S15055   6.647   3.751   7.606 -1.3016  0.2633  0.1667
  138OSM   H15T15056   6.544   3.892   7.616 -0.0957  0.5586  0.3637
  138OSM   C16S15057   6.716   3.896   7.748  0.2399 -0.1082  0.3373
  138OSM   H16S15058   6.727   4.007   7.751 -1.3124  0.2257 -3.3441
  138OSM   H16T15059   6.813   3.844   7.734  1.9392  2.6936  1.3415
  138OSM   C17S15060   6.644   3.847   7.867 -0.4629  0.1223 -0.2393
  138OSM   H17S15061   6.617   3.740   7.850 -3.0054  0.4629  1.4103
  138OSM   H17T15062   6.545   3.897   7.877 -0.6133 -0.4360  1.2428
  138OSM   C18S15063   6.715   3.860   7.996  0.6949 -0.4439  0.1295
  138OSM   H18S15064   6.731   3.967   8.019 -3.5842  0.6590 -1.6026
  138OSM   H18T15065   6.815   3.811   7.991 -0.3512 -2.4611 -2.3768
  138OSM   H18U15066   6.649   3.834   8.082 -0.4104  2.0851  0.0744
  138OSM    C1F15067   6.372   3.472   6.444 -0.2392 -1.0001 -0.3437
  138OSM     OF15068   6.451   3.377   6.425  0.2950  0.0775 -0.0876
  138OSM    C2F15069   6.276   3.455   6.557 -0.0680  0.5488  0.3721
  138OSM    H2F15070   6.174   3.428   6.522 -0.7442  2.4231  0.8373
  138OSM    H2G15071   6.283   3.553   6.609  2.9406  0.2545  0.6060
  138OSM    C3F15072   6.313   3.353   6.663 -0.9751 -0.0076 -0.2358
  138OSM    H3F15073   6.296   3.249   6.627 -2.4140  0.8481 -2.0950
  138OSM    H3G15074   6.249   3.359   6.754 -1.1253  0.3251 -0.3640
  138OSM    C4F15075   6.448   3.362   6.737  0.0510 -0.1013  0.3908
  138OSM    H4F15076   6.542   3.348   6.679  1.1079 -1.1480  2.2831
  138OSM    H4G15077   6.449   3.273   6.805 -1.4452  0.2930  0.9374
  138OSM    C5F15078   6.469   3.496   6.825  0.8494 -0.4424  0.3488
  138OSM    H5F15079   6.393   3.499   6.906 -1.0801  0.9251 -1.4736
  138OSM    H5G15080   6.454   3.589   6.766 -1.1069 -1.4039 -0.7089
  138OSM    C6F15081   6.612   3.496   6.884  0.4679  1.0987 -0.1258
  138OSM    H6F15082   6.625   3.595   6.933 -1.5687  1.2630  0.1266
  138OSM    H6G15083   6.683   3.488   6.799 -1.3894  1.2800 -1.7532
  138OSM    C7F15084   6.652   3.385   6.985 -0.8045 -0.0280 -0.5303
  138OSM    H7F15085   6.650   3.281   6.946 -1.5677 -0.6798  1.2170
  138OSM    H7G15086   6.574   3.377   7.063  0.0862 -2.9826  0.1128
  138OSM    C8F15087   6.784   3.429   7.060 -0.2337  0.1846 -0.1817
  138OSM    H8F15088   6.753   3.531   7.093  0.2921  0.9703 -2.0275
  138OSM    H8G15089   6.873   3.433   6.993  2.1282  0.5049  2.8636
  138OSM    C9F15090   6.815   3.324   7.163  0.5056  0.1451  0.1757
  138OSM    H9F15091   6.832   3.227   7.114 -1.1359  0.7895 -1.7182
  138OSM   C10F15092   6.829   3.339   7.298 -0.2680 -0.7571  0.2967
  138OSM   H10F15093   6.853   3.255   7.365 -0.0926 -2.6392 -2.0489
  138OSM   C11F15094   6.819   3.468   7.377  0.6771  0.1457  0.1841
  138OSM   H11F15095   6.747   3.535   7.326  2.6560  1.5060 -0.8806
  138OSM   H11G15096   6.916   3.520   7.387  1.7717 -1.6317 -0.7565
  138OSM   C12F15097   6.775   3.460   7.523 -0.6327  0.9864  0.2868
  138OSM   H12F15098   6.686   3.394   7.528  0.3927 -0.3672  0.8929
  138OSM   H12G15099   6.734   3.558   7.556 -1.4794  0.8090 -0.2303
  138OSM   C13F15100   6.893   3.415   7.607 -0.3441  0.2947  0.3358
  138OSM   H13F15101   6.968   3.496   7.610 -0.4040  0.2625  3.8351
  138OSM   H13G15102   6.927   3.319   7.563  1.0373  0.4446  1.0519
  138OSM   C14F15103   6.860   3.394   7.753  0.2232  0.1526 -0.3369
  138OSM   H14F15104   6.774   3.324   7.745 -1.0921  1.5588  1.1443
  138OSM   H14G15105   6.831   3.496   7.788  0.5523  0.2948 -0.4715
  138OSM   C15F15106   6.977   3.340   7.830  0.1815  0.3085 -0.4939
  138OSM   H15F15107   7.016   3.243   7.793  1.2724  0.6946 -0.3583
  138OSM   H15G15108   6.954   3.324   7.937  0.4960  0.3923 -0.4139
  138OSM   C16F15109   7.099   3.431   7.832 -0.0471  0.2304 -0.6741
  138OSM   H16F15110   7.069   3.522   7.889 -1.1063  1.9288 -3.8424
  138OSM   H16G15111   7.138   3.465   7.734 -1.3046  2.6122 -0.4071
  138OSM   C17F15112   7.219   3.365   7.907 -0.3575 -0.0678 -0.2815
  138OSM   H17F15113   7.256   3.273   7.856 -0.6930 -0.1694 -0.3498
  138OSM   H17G15114   7.175   3.332   8.003  0.3612  0.8144  0.3479
  138OSM   C18F15115   7.340   3.464   7.943  0.1217  0.2543 -0.1287
  138OSM   H18F15116   7.320   3.530   8.030 -1.3568 -0.8134  0.3728
  138OSM   H18G15117   7.356   3.525   7.851  0.3538  0.1834 -0.1358
  138OSM   H18H15118   7.439   3.418   7.958 -1.4482 -2.3853  2.6910
  139OSM      N15119   5.371   4.778   6.227  1.1025 -0.0047 -0.6095
  139OSM    C1515120   5.305   4.871   6.133 -0.1779  0.0544 -0.1906
  139OSM   H15A15121   5.299   4.846   6.028  1.1743  1.9166 -0.7501
  139OSM   H15B15122   5.342   4.973   6.140 -0.6904  0.3098 -1.1485
  139OSM   H15C15123   5.201   4.855   6.158  0.1504 -0.8855  0.5963
  139OSM    C1415124   5.509   4.764   6.180  0.3533 -0.1933  1.2434
  139OSM   H14A15125   5.564   4.692   6.239 -0.1908 -0.7283  1.1075
  139OSM   H14B15126   5.546   4.865   6.189 -0.1012 -0.0242  1.2312
  139OSM   H14C15127   5.520   4.723   6.081  1.3914 -0.3593  1.4208
  139OSM    C1315128   5.364   4.846   6.367 -0.1811 -0.4006  0.4789
  139OSM   H13A15129   5.411   4.776   6.435  2.1595  0.6899  0.0466
  139OSM   H13B15130   5.264   4.868   6.401 -0.5178 -0.2479 -0.5952
  139OSM   H13C15131   5.432   4.930   6.373 -1.2053  0.6459 -2.1129
  139OSM    C1215132   5.297   4.648   6.220  0.8871  0.2137 -0.2285
  139OSM   H12A15133   5.307   4.614   6.118  2.3515  1.1159 -0.3976
  139OSM   H12B15134   5.197   4.667   6.255  0.8002  0.5246 -0.6387
  139OSM    C1115135   5.355   4.544   6.314  0.1631 -0.0409 -0.4294
  139OSM   H11A15136   5.286   4.457   6.319 -0.0400  0.1547  0.2177
  139OSM   H11B15137   5.369   4.580   6.418  4.7712  1.1195 -1.3379
  139OSM      P15138   5.495   4.366   6.173 -0.0956 -0.3700 -0.4471
  139OSM    O1315139   5.370   4.348   6.097  0.1827  0.0636 -0.4661
  139OSM    O1415140   5.616   4.389   6.091  0.4169  0.3145 -0.3730
  139OSM    O1115141   5.515   4.243   6.269  0.6954  0.1242 -0.1474
  139OSM    O1215142   5.483   4.490   6.278  0.0316 -0.2336 -0.2315
  139OSM    C1S15143   5.614   4.243   6.367 -0.4086  0.0618 -0.3655
  139OSM    H1S15144   5.713   4.279   6.332  0.4044 -1.0145  0.7712
  139OSM    H1T15145   5.644   4.143   6.406 -2.5599 -0.5208 -0.1767
  139OSM     NF15146   5.683   4.309   6.596 -0.3334  0.1893 -0.1977
  139OSM    HNF15147   5.687   4.248   6.675 -1.6029  0.9899  0.4914
  139OSM    C2S15148   5.568   4.310   6.509 -0.0172 -0.3993  0.0880
  139OSM    H2S15149   5.543   4.415   6.484  0.6472 -0.0504  0.8782
  139OSM    C3S15150   5.444   4.222   6.559 -0.0392  0.3869  0.2132
  139OSM    H3S15151   5.484   4.119   6.557  3.4960  1.6733  0.2631
  139OSM     O315152   5.335   4.209   6.470  0.1088 -0.0642 -0.5094
  139OSM    HO315153   5.370   4.232   6.383 -1.3517  0.0850 -1.0797
  139OSM    C4S15154   5.396   4.262   6.700 -0.2116  0.5574 -0.6499
  139OSM    H4S15155   5.456   4.344   6.744 -0.6883  0.7466 -0.3511
  139OSM    C5S15156   5.310   4.189   6.772 -0.1457  0.5437  0.2171
  139OSM    H5S15157   5.262   4.101   6.728  1.0392  0.7439 -1.5106
  139OSM    C6S15158   5.266   4.220   6.918 -0.3265 -0.3834  0.6334
  139OSM    H6S15159   5.320   4.311   6.951 -0.2500  0.4356 -1.6513
  139OSM    H6T15160   5.289   4.137   6.990  0.6475 -1.1192 -0.5045
  139OSM    C7S15161   5.113   4.241   6.909 -0.2103 -0.7782 -0.7299
  139OSM    H7S15162   5.061   4.148   6.877 -0.8058  0.2069 -2.7032
  139OSM    H7T15163   5.079   4.309   6.828 -1.8097 -1.9876 -1.1006
  139OSM    C8S15164   5.036   4.289   7.031  0.4396 -0.1048 -0.4099
  139OSM    H8S15165   5.086   4.381   7.067 -0.4731  0.7938 -1.4127
  139OSM    H8T15166   5.045   4.213   7.112  1.4113 -1.7570 -2.0099
  139OSM    C9S15167   4.891   4.308   7.005 -0.0544  1.0181 -0.1389
  139OSM    H9S15168   4.850   4.207   6.982 -0.4730  0.4334  2.9746
  139OSM    H9T15169   4.895   4.372   6.914  2.2205 -1.4065 -1.8504
  139OSM   C10S15170   4.807   4.364   7.120  0.1905  0.0630 -0.0918
  139OSM   H10S15171   4.696   4.355   7.111  0.2125  0.9350 -1.3613
  139OSM   H10T15172   4.819   4.474   7.114 -0.6800  0.3674  2.7706
  139OSM   C11S15173   4.854   4.322   7.263 -0.3212  0.0149  0.2399
  139OSM   H11S15174   4.961   4.334   7.290 -0.5733  0.6812  0.9545
  139OSM   H11T15175   4.823   4.216   7.276  0.2127 -0.2810 -0.8256
  139OSM   C12S15176   4.772   4.398   7.365  0.0223  0.3976  0.3964
  139OSM   H12S15177   4.669   4.367   7.337  0.2776 -0.4894  0.4196
  139OSM   H12T15178   4.811   4.502   7.360  0.9300  0.0745  0.6024
  139OSM   C13S15179   4.782   4.343   7.507  0.2361 -0.3350 -0.2992
  139OSM   H13S15180   4.887   4.309   7.524  0.3876 -0.9832 -2.3079
  139OSM   H13T15181   4.713   4.256   7.505 -0.3284  0.1082 -0.3028
  139OSM   C14S15182   4.752   4.453   7.613  0.2200 -0.2596  0.3433
  139OSM   H14S15183   4.668   4.517   7.581  1.9801  3.0731  2.1126
  139OSM   H14T15184   4.838   4.521   7.632  0.6235 -0.7283  0.2200
  139OSM   C15S15185   4.710   4.394   7.748 -0.9998 -0.2540 -0.4749
  139OSM   H15S15186   4.649   4.301   7.745 -0.4999 -0.5983 -0.0840
  139OSM   H15T15187   4.650   4.469   7.802 -0.5799  0.8792 -1.5557
  139OSM   C16S15188   4.824   4.356   7.844  0.1150  0.5141  0.0436
  139OSM   H16S15189   4.902   4.433   7.860  0.3887  0.0778  0.8459
  139OSM   H16T15190   4.876   4.269   7.798 -2.0135 -0.0328 -1.4423
  139OSM   C17S15191   4.776   4.314   7.980  0.3584  0.0795  0.0386
  139OSM   H17S15192   4.692   4.241   7.968 -1.7682  2.6531 -1.2460
  139OSM   H17T15193   4.728   4.396   8.037 -1.9908 -0.1976 -1.4587
  139OSM   C18S15194   4.891   4.268   8.073  0.3139  0.1127  0.1000
  139OSM   H18S15195   4.948   4.358   8.104  1.1711 -0.6272  0.6997
  139OSM   H18T15196   4.948   4.186   8.024 -3.3899 -1.5553 -1.6203
  139OSM   H18U15197   4.832   4.228   8.158  0.3343 -1.6594 -0.6926
  139OSM    C1F15198   5.784   4.394   6.576  0.3587  0.5149  0.2702
  139OSM     OF15199   5.785   4.462   6.476  0.5946  0.4362  0.2616
  139OSM    C2F15200   5.905   4.407   6.674 -0.1928 -0.5870  0.2998
  139OSM    H2F15201   5.981   4.340   6.629 -0.8347 -0.9436 -0.2735
  139OSM    H2G15202   5.875   4.366   6.773  0.5455  0.5615  1.0166
  139OSM    C3F15203   5.954   4.548   6.672 -1.1144 -0.5539 -0.2732
  139OSM    H3F15204   5.977   4.580   6.568 -0.8022 -0.7747 -0.2741
  139OSM    H3G15205   6.037   4.569   6.743 -1.6522  0.7476 -0.0146
  139OSM    C4F15206   5.843   4.636   6.729 -0.1598 -0.4564  0.4839
  139OSM    H4F15207   5.748   4.632   6.672 -0.6696 -1.7888  1.4131
  139OSM    H4G15208   5.878   4.740   6.744 -1.2771 -0.1181  0.8377
  139OSM    C5F15209   5.797   4.590   6.870 -0.2266  0.5039  0.4826
  139OSM    H5F15210   5.889   4.550   6.916  1.8753 -0.3302 -4.1487
  139OSM    H5G15211   5.733   4.501   6.858 -1.5047  1.4199  0.3646
  139OSM    C6F15212   5.731   4.688   6.970 -0.2793 -0.3191  0.2753
  139OSM    H6F15213   5.626   4.712   6.941 -0.5527  1.0688  2.2905
  139OSM    H6G15214   5.790   4.782   6.972  0.9061 -0.9416 -2.9102
  139OSM    C7F15215   5.731   4.627   7.113 -0.4663 -0.5420  0.0068
  139OSM    H7F15216   5.693   4.712   7.174  1.6101  2.5414 -2.7452
  139OSM    H7G15217   5.836   4.598   7.134  0.1023  0.8551 -0.7565
  139OSM    C8F15218   5.646   4.504   7.133 -0.2486  0.5675 -0.2527
  139OSM    H8F15219   5.658   4.465   7.237 -1.3928  0.7589 -0.0376
  139OSM    H8G15220   5.669   4.422   7.062 -1.8485  0.2085 -0.3856
  139OSM    C9F15221   5.503   4.534   7.111 -0.5857 -0.1509  0.0518
  139OSM    H9F15222   5.482   4.580   7.013 -2.1037 -0.6421  0.1438
  139OSM   C10F15223   5.398   4.508   7.201 -0.7252 -0.6916  0.3648
  139OSM   H10F15224   5.296   4.516   7.162 -0.2355  0.6783 -0.6700
  139OSM   C11F15225   5.411   4.447   7.344 -0.8691  0.2336 -0.4116
  139OSM   H11F15226   5.371   4.518   7.420  1.7752 -1.0159  2.2944
  139OSM   H11G15227   5.516   4.439   7.382 -1.3088 -1.1718  0.5625
  139OSM   C12F15228   5.349   4.312   7.371 -0.0267 -0.5988  0.3218
  139OSM   H12F15229   5.416   4.263   7.444  1.1547  0.7141  0.1419
  139OSM   H12G15230   5.348   4.247   7.280  1.3435 -3.8340  2.5355
  139OSM   C13F15231   5.211   4.316   7.430  0.1007 -0.3508  0.6822
  139OSM   H13F15232   5.146   4.243   7.377 -0.0908 -0.0994  0.5702
  139OSM   H13G15233   5.163   4.416   7.420  0.2844 -0.4199 -0.9979
  139OSM   C14F15234   5.205   4.259   7.573 -0.1131  0.6716  0.3843
  139OSM   H14F15235   5.259   4.162   7.572 -2.1077 -0.4902  1.2062
  139OSM   H14G15236   5.096   4.251   7.596 -0.6155  0.1886 -2.0121
  139OSM   C15F15237   5.281   4.343   7.680  0.4413 -0.5414  0.1190
  139OSM   H15F15238   5.211   4.425   7.705  0.6304 -0.1314 -0.6915
  139OSM   H15G15239   5.370   4.385   7.627  0.3839 -0.7222 -0.1207
  139OSM   C16F15240   5.312   4.260   7.813 -0.4510 -0.0141 -0.1873
  139OSM   H16F15241   5.374   4.322   7.881 -5.0861  3.4424  1.1526
  139OSM   H16G15242   5.381   4.179   7.781 -0.3446  0.1469 -0.3690
  139OSM   C17F15243   5.191   4.220   7.902 -0.1931  0.1873  0.2746
  139OSM   H17F15244   5.123   4.161   7.836  0.3026  0.6353 -0.6542
  139OSM   H17G15245   5.133   4.309   7.936  1.7583  1.1779  1.0501
  139OSM   C18F15246   5.231   4.121   8.009 -1.0723 -0.2531  0.2746
  139OSM   H18F15247   5.309   4.169   8.071 -1.9220  1.8964 -0.2777
  139OSM   H18G15248   5.272   4.026   7.968 -0.0866  0.3889 -0.2392
  139OSM   H18H15249   5.147   4.087   8.074  0.4441 -2.8582  0.9246
  140OSM      N15250   5.492   6.529   6.106  0.2961 -0.1975 -0.1587
  140OSM    C1515251   5.348   6.505   6.115 -0.5539 -0.0050 -0.2371
  140OSM   H15A15252   5.327   6.432   6.192  2.8565  1.4651  2.2393
  140OSM   H15B15253   5.316   6.464   6.021  4.2938 -0.8823 -1.6571
  140OSM   H15C15254   5.287   6.589   6.142 -1.6634 -1.4012  1.6851
  140OSM    C1415255   5.556   6.407   6.045  0.7672  0.0066 -0.0564
  140OSM   H14A15256   5.513   6.380   5.949 -1.1044  0.4366  0.6318
  140OSM   H14B15257   5.561   6.321   6.110 -1.3043 -0.7057 -0.7683
  140OSM   H14C15258   5.660   6.421   6.019  0.1788  2.5373 -1.1280
  140OSM    C1315259   5.522   6.644   6.028  0.0366  0.3190 -0.3649
  140OSM   H13A15260   5.627   6.647   6.003 -0.4202 -2.3578 -2.8514
  140OSM   H13B15261   5.484   6.728   6.084 -0.9996 -0.7802  0.6249
  140OSM   H13C15262   5.455   6.639   5.943 -0.5427 -1.7979  0.1782
  140OSM    C1215263   5.556   6.546   6.245  0.6229  0.0362  0.4817
  140OSM   H12A15264   5.489   6.618   6.290 -0.3181 -0.0408 -0.7606
  140OSM   H12B15265   5.656   6.585   6.229  1.1792 -1.6983 -0.3498
  140OSM    C1115266   5.549   6.436   6.349 -0.3548  0.2573  0.1434
  140OSM   H11A15267   5.442   6.409   6.368 -0.4087  1.0853  1.0605
  140OSM   H11B15268   5.598   6.467   6.444  0.6027  0.2272 -0.3404
  140OSM      P15269   5.603   6.179   6.361  0.6771  0.0882 -0.1474
  140OSM    O1315270   5.459   6.136   6.341 -0.1242  0.4627  0.1013
  140OSM    O1415271   5.705   6.097   6.291  0.2166 -0.8851  0.2672
  140OSM    O1115272   5.629   6.184   6.512 -0.4592 -0.4701  0.1604
  140OSM    O1215273   5.624   6.324   6.305  0.1458  0.2234  0.1710
  140OSM    C1S15274   5.766   6.177   6.561 -0.2544  0.4044 -0.6261
  140OSM    H1S15275   5.825   6.267   6.531  1.9971 -0.4590  1.0521
  140OSM    H1T15276   5.817   6.095   6.507 -0.1304 -1.3202  2.0189
  140OSM     NF15277   5.926   6.174   6.764 -0.1819  0.6191  0.1842
  140OSM    HNF15278   5.984   6.093   6.773 -2.6259 -0.9880  2.2295
  140OSM    C2S15279   5.784   6.162   6.723  0.2898  0.2711 -0.0882
  140OSM    H2S15280   5.726   6.244   6.769 -2.1346 -0.3670 -1.9263
  140OSM    C3S15281   5.722   6.035   6.788  0.7627 -0.2181 -0.1317
  140OSM    H3S15282   5.773   5.941   6.758  1.6427 -0.0327  0.7694
  140OSM     O315283   5.586   6.017   6.733 -0.0853  0.2028 -0.0465
  140OSM    HO315284   5.577   6.081   6.662  1.3736 -1.4622 -1.8223
  140OSM    C4S15285   5.706   6.049   6.937  0.4878  0.5088  0.0526
  140OSM    H4S15286   5.654   6.142   6.963 -0.8146 -0.4223  0.8136
  140OSM    C5S15287   5.763   5.967   7.026  0.2047 -0.3026  0.7651
  140OSM    H5S15288   5.806   5.874   6.987 -0.1204 -0.0031 -0.3175
  140OSM    C6S15289   5.764   5.992   7.172 -0.0882  0.4564 -0.5025
  140OSM    H6S15290   5.713   5.905   7.219 -3.2487  2.0762 -0.7755
  140OSM    H6T15291   5.695   6.078   7.188 -0.5259 -0.1829  1.2020
  140OSM    C7S15292   5.905   6.010   7.241 -0.7803  0.2091  0.7399
  140OSM    H7S15293   5.968   6.077   7.179 -0.3842 -1.9404 -1.2771
  140OSM    H7T15294   5.959   5.913   7.232  0.2070  0.6819  1.5884
  140OSM    C8S15295   5.883   6.050   7.389  0.2210 -0.9302  0.1010
  140OSM    H8S15296   5.846   6.154   7.387  0.9215 -0.6442  1.5454
  140OSM    H8T15297   5.985   6.050   7.433  0.9567 -2.3526 -1.5586
  140OSM    C9S15298   5.771   5.974   7.465  0.4467  0.6546 -0.2009
  140OSM    H9S15299   5.778   5.867   7.438  1.1855  0.8613 -0.8555
  140OSM    H9T15300   5.672   6.011   7.428 -0.1664  1.2138  1.9402
  140OSM   C10S15301   5.779   5.996   7.620 -0.8414 -0.1168  0.3725
  140OSM   H10S15302   5.745   6.099   7.645  0.2646  0.2404  0.4442
  140OSM   H10T15303   5.884   5.989   7.657 -0.6442  0.1144 -0.1421
  140OSM   C11S15304   5.692   5.894   7.690 -0.7629 -0.4020  0.0279
  140OSM   H11S15305   5.725   5.788   7.692  0.2385 -0.0918  0.1040
  140OSM   H11T15306   5.605   5.883   7.620 -1.9489  4.5136  0.5919
  140OSM   C12S15307   5.651   5.931   7.832 -0.4557  0.2669 -0.5846
  140OSM   H12S15308   5.578   6.015   7.824  0.8685  1.4553 -0.3084
  140OSM   H12T15309   5.744   5.967   7.881 -0.3805 -0.2770 -0.3311
  140OSM   C13S15310   5.576   5.820   7.905 -0.8108  0.1352  0.1028
  140OSM   H13S15311   5.644   5.733   7.919  0.2738  0.0205 -4.8584
  140OSM   H13T15312   5.483   5.804   7.846 -2.8435  0.6660  3.0713
  140OSM   C14S15313   5.532   5.866   8.042 -0.7000 -0.2229  0.2481
  140OSM   H14S15314   5.607   5.906   8.114  0.2842 -0.9471 -0.3567
  140OSM   H14T15315   5.490   5.778   8.094  1.6351 -2.3454 -1.3243
  140OSM   C15S15316   5.428   5.983   8.055  0.0747 -0.2402 -0.1323
  140OSM   H15S15317   5.350   5.964   7.978  0.7511  0.1531 -0.9181
  140OSM   H15T15318   5.468   6.085   8.035 -0.2572  0.0925  0.8450
  140OSM   C16S15319   5.376   5.987   8.200  0.7534 -0.4942  0.0713
  140OSM   H16S15320   5.465   6.026   8.255 -0.9191  2.3700  0.8286
  140OSM   H16T15321   5.353   5.887   8.242  0.3557 -0.1411  0.6886
  140OSM   C17S15322   5.246   6.078   8.229 -0.2506 -0.4576 -0.4524
  140OSM   H17S15323   5.283   6.181   8.210  3.3523 -1.4561  0.5901
  140OSM   H17T15324   5.228   6.077   8.338 -2.2354 -0.1538 -0.7630
  140OSM   C18S15325   5.124   6.045   8.139  0.3886 -0.4564 -0.3125
  140OSM   H18S15326   5.038   6.112   8.158  1.6390  1.0922 -0.0258
  140OSM   H18T15327   5.090   5.940   8.157  1.3098 -0.4505  1.6374
  140OSM   H18U15328   5.145   6.062   8.032  0.3947  0.4010 -0.1779
  140OSM    C1F15329   5.983   6.294   6.787  0.0841 -0.0349 -0.3361
  140OSM     OF15330   5.908   6.387   6.785 -1.0047 -0.5946 -0.6106
  140OSM    C2F15331   6.125   6.312   6.817  1.0204  0.8193  0.3438
  140OSM    H2F15332   6.188   6.316   6.726  1.7796  0.0059  0.8155
  140OSM    H2G15333   6.153   6.222   6.877  1.5499  1.2745  0.7843
  140OSM    C3F15334   6.156   6.433   6.909 -0.4212  0.5140 -0.7017
  140OSM    H3F15335   6.109   6.519   6.857  1.2895  1.0655 -1.3824
  140OSM    H3G15336   6.267   6.437   6.908 -0.4529  1.8949 -0.4877
  140OSM    C4F15337   6.098   6.414   7.050  0.1850  0.3239 -0.6458
  140OSM    H4F15338   6.113   6.312   7.089 -1.6314  0.6460  0.9595
  140OSM    H4G15339   5.989   6.430   7.035 -0.4792  0.7897  4.0742
  140OSM    C5F15340   6.148   6.525   7.149 -0.4187 -0.1491  0.0099
  140OSM    H5F15341   6.062   6.588   7.181  0.0904  1.5861 -1.8844
  140OSM    H5G15342   6.226   6.590   7.103  0.2209 -0.0028  1.2957
  140OSM    C6F15343   6.200   6.464   7.280  0.7807 -0.0866 -0.2863
  140OSM    H6F15344   6.258   6.543   7.334 -0.3717 -0.4616  1.5520
  140OSM    H6G15345   6.265   6.382   7.243  1.4821  2.0660 -4.1535
  140OSM    C7F15346   6.091   6.413   7.372  0.2787 -0.9371  0.0078
  140OSM    H7F15347   6.086   6.302   7.370  0.2208 -0.9247 -1.1186
  140OSM    H7G15348   5.992   6.439   7.328  1.0455 -0.1273 -1.2605
  140OSM    C8F15349   6.075   6.474   7.510  0.0638 -0.4121 -0.1906
  140OSM    H8F15350   5.980   6.440   7.556 -0.0495 -0.3351 -0.3698
  140OSM    H8G15351   6.061   6.584   7.499  2.4931 -0.0158  0.3799
  140OSM    C9F15352   6.201   6.453   7.593  0.3220  0.4938  0.6969
  140OSM    H9F15353   6.282   6.513   7.550  0.1426  0.1575 -0.1208
  140OSM   C10F15354   6.217   6.383   7.703 -0.0853 -0.6314  0.3999
  140OSM   H10F15355   6.317   6.380   7.748  0.6252  1.0247 -1.0349
  140OSM   C11F15356   6.111   6.298   7.769  0.1617 -0.0088  0.7839
  140OSM   H11F15357   6.160   6.205   7.803  0.8556  0.4727  1.1246
  140OSM   H11G15358   6.029   6.262   7.703  3.1537 -2.7411 -1.5656
  140OSM   C12F15359   6.054   6.355   7.895  0.0285 -0.6452 -0.2733
  140OSM   H12F15360   5.963   6.296   7.915  0.6158 -0.4943  3.1030
  140OSM   H12G15361   6.025   6.462   7.890  0.9298 -0.1786  3.4289
  140OSM   C13F15362   6.152   6.331   8.010 -0.0259  0.4583  0.3205
  140OSM   H13F15363   6.246   6.381   7.979  0.4002 -0.8469 -0.5551
  140OSM   H13G15364   6.166   6.224   8.038 -0.4748  0.6975  1.5205
  140OSM   C14F15365   6.097   6.386   8.148  0.2007 -0.2014  0.3842
  140OSM   H14F15366   6.160   6.353   8.234  0.5864 -1.4746 -0.3862
  140OSM   H14G15367   5.998   6.340   8.168  0.7245 -0.2073  3.1386
  140OSM   C15F15368   6.078   6.539   8.150  0.1339 -0.3806 -0.6474
  140OSM   H15F15369   6.014   6.569   8.235 -1.3324  1.3857 -2.3442
  140OSM   H15G15370   6.027   6.565   8.056  0.3925 -0.8837 -0.9294
  140OSM   C16F15371   6.212   6.615   8.162  0.2387 -0.1182  0.6318
  140OSM   H16F15372   6.293   6.568   8.103  0.3755 -0.9114  1.4240
  140OSM   H16G15373   6.251   6.620   8.266 -0.0343 -0.3629  0.7490
  140OSM   C17F15374   6.203   6.763   8.119 -0.8042  0.0767  0.3590
  140OSM   H17F15375   6.288   6.823   8.159 -0.8966  0.5424 -0.1341
  140OSM   H17G15376   6.108   6.797   8.165 -0.5964  1.2262 -0.0367
  140OSM   C18F15377   6.196   6.807   7.973 -0.1353 -0.0036  0.2065
  140OSM   H18F15378   6.291   6.784   7.920 -0.1133 -0.2774  0.3643
  140OSM   H18G15379   6.169   6.915   7.967 -1.9999 -0.5146 -1.0339
  140OSM   H18H15380   6.118   6.755   7.914  1.5623 -2.4256  0.0432
  141OSM      N15381   5.378   1.797   6.132 -0.3012 -0.0832  0.6399
  141OSM    C1515382   5.442   1.933   6.117  0.4918  0.1797 -0.3498
  141OSM   H15A15383   5.547   1.920   6.138  0.7542 -0.2201 -1.8217
  141OSM   H15B15384   5.409   2.007   6.189  1.3541 -0.3476  0.5836
  141OSM   H15C15385   5.427   1.977   6.019  1.2058 -0.0600 -0.5684
  141OSM    C1415386   5.230   1.806   6.136  0.0343 -0.1227  0.7904
  141OSM   H14A15387   5.179   1.711   6.127  2.1201 -1.0910 -1.0897
  141OSM   H14B15388   5.187   1.873   6.063 -0.8078 -0.5221  0.9097
  141OSM   H14C15389   5.212   1.833   6.239  1.1476  0.6042  0.7975
  141OSM    C1315390   5.421   1.719   6.015  0.6043 -0.6494 -0.1687
  141OSM   H13A15391   5.388   1.617   6.028 -2.5925 -0.0111 -2.7302
  141OSM   H13B15392   5.529   1.718   6.007  0.3930  0.4355 -3.9769
  141OSM   H13C15393   5.376   1.749   5.922 -2.8980  0.5638  1.8152
  141OSM    C1215394   5.426   1.736   6.259  0.3933  0.3282  0.0706
  141OSM   H12A15395   5.406   1.813   6.331 -0.2653 -1.2105  1.5658
  141OSM   H12B15396   5.532   1.713   6.264  0.1847 -0.7483 -0.3501
  141OSM    C1115397   5.358   1.612   6.314 -0.3540  0.6132 -0.5991
  141OSM   H11A15398   5.267   1.660   6.357 -0.8778 -0.4614 -0.5083
  141OSM   H11B15399   5.431   1.574   6.389 -0.9044 -0.6155 -0.6777
  141OSM      P15400   5.282   1.367   6.252 -0.0220  0.3636  0.0018
  141OSM    O1315401   5.203   1.297   6.144 -0.1463  0.0821  0.2647
  141OSM    O1415402   5.410   1.304   6.291 -0.1556 -0.0257 -0.4143
  141OSM    O1115403   5.185   1.378   6.374  0.1503 -0.3339  0.3893
  141OSM    O1215404   5.320   1.515   6.211  0.2318 -0.4249  0.6734
  141OSM    C1S15405   5.241   1.355   6.502 -0.0970  0.1682 -0.0410
  141OSM    H1S15406   5.329   1.420   6.520  0.7001 -0.7250 -0.6283
  141OSM    H1T15407   5.286   1.253   6.507 -0.8405 -0.1902 -0.5416
  141OSM     NF15408   5.194   1.329   6.744 -0.0574 -0.7351  0.0446
  141OSM    HNF15409   5.162   1.250   6.797 -0.4966 -0.2922  0.4415
  141OSM    C2S15410   5.135   1.360   6.610  0.6825  0.5478 -0.7177
  141OSM    H2S15411   5.093   1.463   6.608 -3.1796 -0.9217  0.8166
  141OSM    C3S15412   5.018   1.255   6.582 -0.0406  0.0070  0.2390
  141OSM    H3S15413   5.059   1.152   6.593  0.6649  0.3622  0.8785
  141OSM     O315414   4.968   1.253   6.445 -0.0201  0.1032  0.5683
  141OSM    HO315415   5.023   1.316   6.398 -1.4655  2.4251  1.8934
  141OSM    C4S15416   4.908   1.264   6.693  0.0665  0.4647 -0.1781
  141OSM    H4S15417   4.929   1.225   6.794 -0.5170  1.4567  0.3392
  141OSM    C5S15418   4.792   1.329   6.678 -0.7771  0.3485 -0.3948
  141OSM    H5S15419   4.776   1.377   6.580 -2.0382  1.5720  0.4063
  141OSM    C6S15420   4.683   1.339   6.788  0.2168  0.3225 -0.2454
  141OSM    H6S15421   4.592   1.280   6.763 -0.1795  0.7391  0.2201
  141OSM    H6T15422   4.653   1.444   6.803  2.8949  0.9424  1.1228
  141OSM    C7S15423   4.720   1.297   6.933  0.6421  0.0710  0.2258
  141OSM    H7S15424   4.803   1.363   6.965  0.0508  0.8174  0.2343
  141OSM    H7T15425   4.738   1.188   6.945 -3.8993 -0.6215  1.7890
  141OSM    C8S15426   4.603   1.321   7.024  0.1832 -0.1727 -0.4024
  141OSM    H8S15427   4.513   1.260   7.002 -0.8102  0.8092  0.8715
  141OSM    H8T15428   4.580   1.429   7.028  1.2192  0.0346  0.3515
  141OSM    C9S15429   4.647   1.282   7.160  0.2435  0.1421 -0.3094
  141OSM    H9S15430   4.741   1.338   7.182  0.4410 -0.7410  1.1682
  141OSM    H9T15431   4.673   1.174   7.153 -1.6396 -0.3918  0.6356
  141OSM   C10S15432   4.556   1.303   7.282 -0.8045  0.1105 -0.3530
  141OSM   H10S15433   4.455   1.260   7.264 -0.8399 -0.3500  0.8950
  141OSM   H10T15434   4.545   1.411   7.302 -0.3033  0.2712 -0.9231
  141OSM   C11S15435   4.612   1.250   7.423 -0.1364  0.5543 -0.2754
  141OSM   H11S15436   4.720   1.276   7.429 -0.4834  1.7828  1.1079
  141OSM   H11T15437   4.594   1.140   7.424  0.3191  0.4699  1.2728
  141OSM   C12S15438   4.541   1.304   7.545  0.5349 -0.3088  0.3544
  141OSM   H12S15439   4.434   1.277   7.538  0.4990 -0.8233  2.7209
  141OSM   H12T15440   4.543   1.415   7.557  0.9080 -0.3136  0.3444
  141OSM   C13S15441   4.589   1.247   7.684  0.1553 -0.5728 -0.3275
  141OSM   H13S15442   4.699   1.260   7.694  0.3338 -1.0644 -1.6157
  141OSM   H13T15443   4.550   1.143   7.693 -1.9062  0.2074 -0.0851
  141OSM   C14S15444   4.516   1.317   7.801 -0.3865 -0.3725  0.1431
  141OSM   H14S15445   4.408   1.330   7.781 -0.5266  0.6651  1.4551
  141OSM   H14T15446   4.559   1.420   7.802 -0.7187 -0.2015 -1.8441
  141OSM   C15S15447   4.539   1.243   7.935  0.1808  0.9373 -0.5681
  141OSM   H15S15448   4.650   1.235   7.933  0.1088 -0.0409 -1.7228
  141OSM   H15T15449   4.499   1.139   7.934  3.0584 -0.2274  0.7672
  141OSM   C16S15450   4.478   1.307   8.060 -0.2768  0.1170  0.0919
  141OSM   H16S15451   4.367   1.297   8.059 -0.1818 -0.9182 -0.7231
  141OSM   H16T15452   4.499   1.415   8.049 -3.1838  0.5590 -1.6120
  141OSM   C17S15453   4.526   1.256   8.196  0.4884  0.8905  0.0562
  141OSM   H17S15454   4.484   1.325   8.273 -1.9811  0.3855 -0.8007
  141OSM   H17T15455   4.636   1.270   8.190  0.3243  2.0896 -0.3834
  141OSM   C18S15456   4.519   1.105   8.223 -0.7353  0.2804 -0.1855
  141OSM   H18S15457   4.551   1.090   8.329  0.8491  2.1307 -0.3773
  141OSM   H18T15458   4.583   1.046   8.154 -0.4009  0.5755 -0.1306
  141OSM   H18U15459   4.413   1.074   8.221 -0.3997 -0.7903 -1.5174
  141OSM    C1F15460   5.268   1.421   6.806 -0.6716  0.1491  0.3784
  141OSM     OF15461   5.294   1.534   6.758  0.7087 -0.2619  0.1409
  141OSM    C2F15462   5.313   1.386   6.945 -0.5370 -0.1279 -0.7005
  141OSM    H2F15463   5.347   1.281   6.945 -2.1221 -0.6602 -2.3416
  141OSM    H2G15464   5.216   1.380   7.000 -0.6144  0.4258 -0.7711
  141OSM    C3F15465   5.415   1.485   7.019  0.5567  0.5500  0.4308
  141OSM    H3F15466   5.364   1.584   7.024 -0.9420 -0.1228 -1.1409
  141OSM    H3G15467   5.506   1.500   6.958 -1.1211 -0.4305 -2.4103
  141OSM    C4F15468   5.452   1.449   7.167  0.6066 -0.2303  0.2901
  141OSM    H4F15469   5.552   1.494   7.183  1.2480 -1.2810 -0.5965
  141OSM    H4G15470   5.465   1.340   7.189 -0.3850  0.1699  3.0121
  141OSM    C5F15471   5.351   1.493   7.268 -0.4170  0.0500 -0.2721
  141OSM    H5F15472   5.258   1.437   7.246  0.9324 -1.3038 -2.7751
  141OSM    H5G15473   5.335   1.601   7.244  0.0104  0.3476  0.7459
  141OSM    C6F15474   5.393   1.473   7.410 -0.5856  0.9702 -0.4052
  141OSM    H6F15475   5.479   1.537   7.438  0.0345  0.0426 -0.2058
  141OSM    H6G15476   5.420   1.366   7.421  1.1637  1.5612  1.3278
  141OSM    C7F15477   5.282   1.500   7.509  0.1282  0.6716  0.2703
  141OSM    H7F15478   5.211   1.416   7.500 -1.8918  2.2543  1.0464
  141OSM    H7G15479   5.229   1.596   7.489  1.1645  1.3110  0.5146
  141OSM    C8F15480   5.328   1.500   7.658 -0.0553  0.2252 -0.0646
  141OSM    H8F15481   5.235   1.528   7.712 -0.1679 -3.7565  1.9712
  141OSM    H8G15482   5.405   1.579   7.674 -0.0804  0.6064 -1.6751
  141OSM    C9F15483   5.390   1.374   7.704  0.2224  0.6143 -0.9491
  141OSM    H9F15484   5.460   1.329   7.633  1.7766  1.7347 -0.1690
  141OSM   C10F15485   5.372   1.327   7.833  0.3792 -0.2085  0.5015
  141OSM   H10F15486   5.417   1.231   7.861 -0.7042 -0.8772 -0.0200
  141OSM   C11F15487   5.305   1.396   7.949  0.0795  0.5678  0.4593
  141OSM   H11F15488   5.195   1.385   7.939  0.5016 -0.9478 -3.8256
  141OSM   H11G15489   5.322   1.505   7.941  1.9174  0.3226  0.7721
  141OSM   C12F15490   5.350   1.362   8.091  0.2133 -0.6135 -0.2111
  141OSM   H12F15491   5.367   1.252   8.099 -2.1902 -0.9493  0.6161
  141OSM   H12G15492   5.274   1.391   8.167  0.0186 -2.1167  0.1836
  141OSM   C13F15493   5.484   1.439   8.125  0.5085  0.2155 -0.1717
  141OSM   H13F15494   5.474   1.544   8.090  2.7564  0.3786 -0.4146
  141OSM   H13G15495   5.559   1.400   8.052  0.7851 -0.9283  0.7134
  141OSM   C14F15496   5.543   1.430   8.269 -0.7952 -0.0512 -0.1694
  141OSM   H14F15497   5.648   1.465   8.264 -1.5884  2.3721 -0.7278
  141OSM   H14G15498   5.546   1.326   8.308  0.7564 -0.2119 -0.6753
  141OSM   C15F15499   5.469   1.522   8.371  0.0013 -0.3174  0.0241
  141OSM   H15F15500   5.361   1.497   8.365 -0.1587  0.9168 -2.9076
  141OSM   H15G15501   5.491   1.622   8.329  0.2179 -1.0034 -1.5483
  141OSM   C16F15502   5.521   1.505   8.514 -0.3531  0.8659  0.7472
  141OSM   H16F15503   5.631   1.490   8.526 -0.4056 -1.0085 -0.9370
  141OSM   H16G15504   5.475   1.411   8.549 -1.3541  1.1241  0.1264
  141OSM   C17F15505   5.473   1.609   8.612 -0.4859 -0.1231  0.0199
  141OSM   H17F15506   5.362   1.601   8.614 -0.3692 -1.9225 -0.1773
  141OSM   H17G15507   5.510   1.710   8.584 -2.3921  2.0208  4.7185
  141OSM   C18F15508   5.501   1.581   8.763  0.3193  0.0032 -0.1703
  141OSM   H18F15509   5.431   1.643   8.824 -1.1526 -2.0074  0.2317
  141OSM   H18G15510   5.607   1.584   8.796 -0.1034 -0.6293  1.2609
  141OSM   H18H15511   5.459   1.482   8.791 -0.3976  0.1646 -0.6535
  142OSM      N15512   5.611   2.558   6.239  0.2931  0.2789 -0.6595
  142OSM    C1515513   5.765   2.556   6.248  0.3404 -0.2062  0.0773
  142OSM   H15A15514   5.796   2.495   6.332  0.3863  2.0157  1.7066
  142OSM   H15B15515   5.808   2.654   6.260 -0.4989  0.2943 -0.8905
  142OSM   H15C15516   5.796   2.541   6.146  2.9215 -1.9195  1.0596
  142OSM    C1415517   5.577   2.657   6.131  0.5436  0.6522  0.3047
  142OSM   H14A15518   5.623   2.752   6.154  0.3193  0.7523  0.3453
  142OSM   H14B15519   5.470   2.668   6.123  0.3066  0.1958  2.5132
  142OSM   H14C15520   5.620   2.623   6.038 -1.2951  3.0266 -1.4523
  142OSM    C1315521   5.568   2.418   6.190  0.4135 -0.0348  0.1252
  142OSM   H13A15522   5.608   2.348   6.262  1.5277 -0.5914 -0.9988
  142OSM   H13B15523   5.617   2.396   6.096  1.0272  0.0443  0.4257
  142OSM   H13C15524   5.462   2.407   6.175  0.9797 -3.6034 -1.9753
  142OSM    C1215525   5.548   2.593   6.374  0.0069  0.3083 -0.3637
  142OSM   H12A15526   5.576   2.522   6.451  1.5841  1.5042  0.1892
  142OSM   H12B15527   5.441   2.577   6.368 -0.0336 -0.0413  0.9956
  142OSM    C1115528   5.583   2.725   6.446  0.0493  0.1722  0.6995
  142OSM   H11A15529   5.691   2.734   6.473  0.2090  2.2659 -0.5410
  142OSM   H11B15530   5.521   2.743   6.536 -2.7505 -2.8596 -0.5606
  142OSM      P15531   5.440   2.924   6.355 -0.1037  0.2394 -0.1076
  142OSM    O1315532   5.460   3.035   6.262  0.3296 -0.1335  0.2821
  142OSM    O1415533   5.314   2.846   6.337  0.0022  0.0460  0.3831
  142OSM    O1115534   5.454   2.984   6.501  0.6793 -0.2936 -0.2842
  142OSM    O1215535   5.565   2.835   6.349 -1.0228  0.0822 -0.4858
  142OSM    C1S15536   5.582   3.050   6.531 -0.4937  0.5224 -0.0717
  142OSM    H1S15537   5.590   3.135   6.460  0.0224  0.1967 -0.4083
  142OSM    H1T15538   5.663   2.976   6.515  0.5001  1.6781 -0.4213
  142OSM     NF15539   5.735   3.154   6.697  0.0574 -0.2942 -0.4942
  142OSM    HNF15540   5.799   3.102   6.753 -1.0540 -0.6249  0.4868
  142OSM    C2S15541   5.594   3.106   6.675  0.0802  0.0941  0.0651
  142OSM    H2S15542   5.530   3.196   6.686  2.9706  2.1419  0.7792
  142OSM    C3S15543   5.559   2.990   6.781  0.0321 -0.3258 -0.5027
  142OSM    H3S15544   5.642   2.917   6.777  0.7651  0.3869  1.0675
  142OSM     O315545   5.431   2.932   6.766 -0.2936 -0.3189  0.1205
  142OSM    HO315546   5.415   2.937   6.672  1.3930  2.5635 -0.0599
  142OSM    C4S15547   5.573   3.058   6.920 -0.4191 -0.1243 -0.5694
  142OSM    H4S15548   5.669   3.035   6.969 -1.4176 -3.7075 -0.1531
  142OSM    C5S15549   5.486   3.127   6.992  0.5894  1.1086  0.1921
  142OSM    H5S15550   5.390   3.156   6.947  0.9660  1.2882 -0.4982
  142OSM    C6S15551   5.495   3.176   7.137  0.0005 -0.2607 -0.2011
  142OSM    H6S15552   5.403   3.132   7.181 -0.4605  1.4460  0.5768
  142OSM    H6T15553   5.493   3.287   7.137 -0.7378 -0.2647  0.9004
  142OSM    C7S15554   5.615   3.127   7.219  0.0922 -0.7738 -0.1088
  142OSM    H7S15555   5.702   3.189   7.188 -0.0021  0.5121  2.0939
  142OSM    H7T15556   5.648   3.021   7.206 -0.1824 -1.1176  1.8548
  142OSM    C8S15557   5.597   3.150   7.369 -0.4353 -0.1439  0.5613
  142OSM    H8S15558   5.538   3.243   7.382 -1.3717 -0.7484  0.6999
  142OSM    H8T15559   5.692   3.160   7.425  0.2493  1.0431 -0.7914
  142OSM    C9S15560   5.521   3.030   7.431 -0.0847  0.1063 -0.5801
  142OSM    H9S15561   5.583   2.940   7.411 -2.9689 -1.7318 -1.5849
  142OSM    H9T15562   5.420   3.020   7.385  0.1793 -0.3224 -1.0677
  142OSM   C10S15563   5.505   3.050   7.579 -0.2474  0.9696  0.2035
  142OSM   H10S15564   5.595   3.021   7.637 -1.0913  0.3572  1.2279
  142OSM   H10T15565   5.426   2.978   7.609  0.2913 -0.1313 -0.9834
  142OSM   C11S15566   5.455   3.192   7.621  0.4793 -0.6905 -0.0162
  142OSM   H11S15567   5.395   3.240   7.541  1.5959 -0.5167 -0.7645
  142OSM   H11T15568   5.549   3.252   7.628  0.8087 -1.3898  1.9747
  142OSM   C12S15569   5.378   3.202   7.759 -0.4042 -0.1648 -0.2553
  142OSM   H12S15570   5.290   3.135   7.762 -0.7113  0.2652  0.7561
  142OSM   H12T15571   5.346   3.308   7.769 -1.0481 -0.1395 -2.4889
  142OSM   C13S15572   5.467   3.171   7.887  0.4493 -0.7004 -0.2100
  142OSM   H13S15573   5.547   3.248   7.892 -0.0118 -0.1058 -1.6459
  142OSM   H13T15574   5.510   3.069   7.891  4.5971  0.9475  0.4780
  142OSM   C14S15575   5.387   3.203   8.014 -0.6138 -0.0312  0.0534
  142OSM   H14S15576   5.293   3.145   8.010 -0.4538 -0.2212 -1.5269
  142OSM   H14T15577   5.357   3.310   8.020  1.4233  0.5120  0.9879
  142OSM   C15S15578   5.456   3.199   8.149 -0.2666  0.2699  0.0879
  142OSM   H15S15579   5.538   3.274   8.140  0.1522 -0.2198 -0.1645
  142OSM   H15T15580   5.491   3.096   8.169  0.5952  0.4806 -0.3258
  142OSM   C16S15581   5.368   3.245   8.261  0.2737 -0.3442  0.1807
  142OSM   H16S15582   5.272   3.190   8.260 -1.0550  1.8900  1.7416
  142OSM   H16T15583   5.336   3.350   8.243  0.0668 -0.1271  1.7887
  142OSM   C17S15584   5.428   3.235   8.406 -0.2363  0.0451 -0.1195
  142OSM   H17S15585   5.531   3.271   8.387  0.0277 -1.5901 -1.8529
  142OSM   H17T15586   5.440   3.126   8.425  0.4999  0.2010  0.3446
  142OSM   C18S15587   5.356   3.314   8.513  0.0886  0.3695  0.3452
  142OSM   H18S15588   5.321   3.416   8.486 -1.1636 -0.4731 -1.2704
  142OSM   H18T15589   5.431   3.321   8.595  0.1984 -1.1688  0.3799
  142OSM   H18U15590   5.263   3.264   8.547  0.3427 -0.6673 -0.4693
  142OSM    C1F15591   5.795   3.253   6.625  0.2312  0.5900  0.3171
  142OSM     OF15592   5.734   3.310   6.533 -0.6656  0.2086 -0.0244
  142OSM    C2F15593   5.935   3.294   6.669  1.0142  0.2920  0.3356
  142OSM    H2F15594   6.006   3.299   6.584 -1.1429  1.8481 -1.4377
  142OSM    H2G15595   5.967   3.211   6.736  2.2209 -0.5472 -1.2546
  142OSM    C3F15596   5.935   3.434   6.731  0.2194  0.6346  0.5357
  142OSM    H3F15597   5.915   3.513   6.656  1.0187  0.2919 -0.0480
  142OSM    H3G15598   6.040   3.448   6.764  0.2288  0.8299  0.4240
  142OSM    C4F15599   5.850   3.433   6.861  0.4669 -0.0488  0.1869
  142OSM    H4F15600   5.884   3.342   6.916  2.5351  1.1635  0.9764
  142OSM    H4G15601   5.741   3.441   6.841  0.1974 -0.2481  1.5643
  142OSM    C5F15602   5.882   3.551   6.967  0.0993  0.0823  0.0763
  142OSM    H5F15603   5.863   3.650   6.921  2.0945  0.2519 -0.4476
  142OSM    H5G15604   5.991   3.547   6.990  0.5988  0.1138 -2.1493
  142OSM    C6F15605   5.828   3.529   7.108  0.3003 -0.3291  1.3475
  142OSM    H6F15606   5.792   3.424   7.106 -3.9518  1.0675  0.0759
  142OSM    H6G15607   5.739   3.595   7.120 -0.5479 -1.5489  1.8069
  142OSM    C7F15608   5.924   3.556   7.223 -0.6334 -0.1749 -0.1723
  142OSM    H7F15609   5.949   3.664   7.230 -2.6416  0.4178 -1.6462
  142OSM    H7G15610   6.013   3.496   7.196  2.9868  5.0972 -0.6710
  142OSM    C8F15611   5.864   3.508   7.352  1.0027  0.6620 -0.9488
  142OSM    H8F15612   5.852   3.399   7.337  2.7237  0.3624 -0.2988
  142OSM    H8G15613   5.761   3.549   7.355  0.4479 -0.7931  0.5865
  142OSM    C9F15614   5.934   3.539   7.479 -0.2758  0.1288  0.1006
  142OSM    H9F15615   6.044   3.544   7.471 -0.1752  2.7771  2.4453
  142OSM   C10F15616   5.886   3.572   7.599  1.4466  0.7084 -0.9594
  142OSM   H10F15617   5.957   3.601   7.678  1.8004  0.0415 -1.0347
  142OSM   C11F15618   5.744   3.584   7.642 -0.3770  0.7102  0.3204
  142OSM   H11F15619   5.669   3.565   7.562 -0.1340  1.3797 -0.0713
  142OSM   H11G15620   5.724   3.690   7.667 -0.1183  0.8541 -0.0632
  142OSM   C12F15621   5.702   3.501   7.768 -0.6328 -0.3125 -0.6045
  142OSM   H12F15622   5.720   3.393   7.748 -1.4385 -0.3604 -1.1253
  142OSM   H12G15623   5.593   3.517   7.786 -0.7298 -1.1341 -0.4329
  142OSM   C13F15624   5.782   3.540   7.897  0.3319 -0.2010  0.2472
  142OSM   H13F15625   5.790   3.651   7.907 -0.9434 -0.1964  1.3022
  142OSM   H13G15626   5.888   3.509   7.896 -0.1923 -2.0447  0.3913
  142OSM   C14F15627   5.731   3.472   8.026  0.3278  0.1670  0.1288
  142OSM   H14F15628   5.817   3.410   8.061 -0.5487 -1.9061 -1.2963
  142OSM   H14G15629   5.636   3.421   7.999  0.2706  0.7645 -0.8342
  142OSM   C15F15630   5.705   3.575   8.141 -0.3522 -0.4264  0.8693
  142OSM   H15F15631   5.617   3.640   8.121 -0.6773 -1.4017 -1.0416
  142OSM   H15G15632   5.793   3.642   8.144  0.8015 -1.9188  0.6803
  142OSM   C16F15633   5.666   3.521   8.274  0.2207 -0.8469 -0.3151
  142OSM   H16F15634   5.736   3.439   8.302 -0.0917 -1.6474 -1.8442
  142OSM   H16G15635   5.560   3.486   8.284  0.1541 -1.0454 -1.5866
  142OSM   C17F15636   5.677   3.632   8.374 -0.2118  0.2298 -0.5742
  142OSM   H17F15637   5.615   3.718   8.344 -0.4406 -0.0197 -0.8196
  142OSM   H17G15638   5.774   3.686   8.378 -0.5895  0.8439  0.4290
  142OSM   C18F15639   5.635   3.591   8.519  0.9513  0.3524 -0.1277
  142OSM   H18F15640   5.683   3.496   8.551  4.2376  2.3193  1.0038
  142OSM   H18G15641   5.525   3.580   8.537  1.1905 -0.6756  0.7687
  142OSM   H18H15642   5.660   3.660   8.603  3.1483 -2.8853  2.0222
  143OSM      N15643   6.609   5.949   6.340  0.0355 -0.3887  0.1449
  143OSM    C1515644   6.642   5.987   6.203  0.0319  0.3548  0.4260
  143OSM   H15A15645   6.700   6.078   6.212  0.2212  0.1164  1.6459
  143OSM   H15B15646   6.557   6.004   6.138  0.5526  0.4775 -0.2300
  143OSM   H15C15647   6.713   5.914   6.167  0.8186  0.1917  2.2929
  143OSM    C1415648   6.703   6.005   6.444 -0.0170  0.5654  0.1142
  143OSM   H14A15649   6.663   5.974   6.539 -1.7646  0.5755 -0.6043
  143OSM   H14B15650   6.702   6.113   6.440 -2.2366  0.5420 -0.9090
  143OSM   H14C15651   6.803   5.965   6.434  0.9498  2.7910  0.4733
  143OSM    C1315652   6.477   6.007   6.378  0.1488 -0.0019 -0.4035
  143OSM   H13A15653   6.469   6.009   6.486 -0.4434 -0.1670 -0.4425
  143OSM   H13B15654   6.384   5.966   6.340 -1.3421  1.0787  1.9388
  143OSM   H13C15655   6.479   6.113   6.356 -0.1510 -0.1191 -1.0286
  143OSM    C1215656   6.600   5.792   6.357  0.0361 -0.3533 -0.2240
  143OSM   H12A15657   6.532   5.762   6.279 -2.1993 -0.0936  1.5708
  143OSM   H12B15658   6.554   5.767   6.451 -1.6159  0.7097 -0.7271
  143OSM    C1115659   6.735   5.714   6.344 -0.2085 -0.4317 -0.7741
  143OSM   H11A15660   6.715   5.612   6.384 -1.6682  0.7684  1.6609
  143OSM   H11B15661   6.817   5.761   6.401  0.1089 -0.5547 -1.1310
  143OSM      P15662   6.909   5.653   6.159 -0.7276 -0.3088  0.1018
  143OSM    O1315663   6.906   5.535   6.070 -0.1427  0.3232  0.2714
  143OSM    O1415664   6.977   5.775   6.110  0.4316 -0.2044 -0.3912
  143OSM    O1115665   6.984   5.617   6.289  0.0960  0.2400 -0.5393
  143OSM    O1215666   6.775   5.695   6.207  0.1734 -0.2905  0.2326
  143OSM    C1S15667   7.106   5.543   6.286  0.4516  0.5765 -0.1120
  143OSM    H1S15668   7.189   5.616   6.275  0.4190  0.2968 -2.4192
  143OSM    H1T15669   7.112   5.465   6.208  2.7441  0.9691 -0.3744
  143OSM     NF15670   7.256   5.420   6.450 -0.6358 -0.3561 -0.2132
  143OSM    HNF15671   7.258   5.320   6.452 -2.0612 -0.4007 -0.2261
  143OSM    C2S15672   7.127   5.475   6.427 -0.1613 -0.0864  0.2306
  143OSM    H2S15673   7.121   5.552   6.507  0.2659  0.9578 -0.7294
  143OSM    C3S15674   7.014   5.370   6.454  0.0844  0.1655  0.2354
  143OSM    H3S15675   7.034   5.281   6.391 -1.1155  0.0081  0.0471
  143OSM     O315676   6.878   5.406   6.421  0.7904  0.3422  0.4167
  143OSM    HO315677   6.895   5.482   6.364  2.6041 -1.5796 -1.6911
  143OSM    C4S15678   7.029   5.323   6.596  0.5198  0.1502  0.4078
  143OSM    H4S15679   6.987   5.384   6.678  0.4084 -1.7942  1.8414
  143OSM    C5S15680   7.047   5.197   6.634 -0.4541  0.1436  0.3725
  143OSM    H5S15681   7.074   5.125   6.556  0.3391  0.6640  0.1680
  143OSM    C6S15682   7.064   5.142   6.773 -0.1983 -0.0362 -0.3115
  143OSM    H6S15683   7.155   5.079   6.777  0.3256  0.6533 -0.9952
  143OSM    H6T15684   6.974   5.084   6.799 -0.3372  0.3340  0.0288
  143OSM    C7S15685   7.079   5.239   6.891 -0.3339 -0.4917  0.7562
  143OSM    H7S15686   6.990   5.305   6.902  0.8177  0.9170  1.8855
  143OSM    H7T15687   7.156   5.314   6.861 -2.6961  1.0865 -1.6691
  143OSM    C8S15688   7.093   5.167   7.031  0.7477  0.0106 -0.4756
  143OSM    H8S15689   7.197   5.130   7.035  0.8950  0.3229 -1.3607
  143OSM    H8T15690   7.024   5.080   7.030 -1.1024  1.1571  5.2177
  143OSM    C9S15691   7.066   5.237   7.163  1.2211 -0.0972 -1.3233
  143OSM    H9S15692   7.100   5.342   7.147  1.1717 -0.2586 -2.5029
  143OSM    H9T15693   7.112   5.194   7.255 -1.1517  0.6890  0.2753
  143OSM   C10S15694   6.913   5.238   7.184  0.3460 -0.4890  0.5286
  143OSM   H10S15695   6.876   5.135   7.201 -0.2151 -0.2129  0.9949
  143OSM   H10T15696   6.870   5.270   7.087  1.7080 -1.1215 -0.2989
  143OSM   C11S15697   6.864   5.330   7.296 -0.3581 -0.3085 -0.1156
  143OSM   H11S15698   6.754   5.322   7.310  0.1112 -1.5615  3.1137
  143OSM   H11T15699   6.892   5.434   7.269 -1.1172  0.2102  1.0588
  143OSM   C12S15700   6.916   5.287   7.433 -0.5504  0.6102 -0.3928
  143OSM   H12S15701   6.872   5.358   7.507 -0.9207 -0.2735  0.2542
  143OSM   H12T15702   7.026   5.299   7.444 -0.5087 -0.3157  0.3144
  143OSM   C13S15703   6.882   5.140   7.464 -0.2281 -0.2628 -0.7071
  143OSM   H13S15704   6.942   5.078   7.394 -0.3165 -2.2156  0.8845
  143OSM   H13T15705   6.778   5.104   7.446 -0.7861  1.1594 -0.4030
  143OSM   C14S15706   6.904   5.111   7.611 -0.2024  0.3952  0.0186
  143OSM   H14S15707   6.845   5.184   7.671 -1.1208 -0.4544  0.1666
  143OSM   H14T15708   7.012   5.113   7.638 -0.8222 -0.3400  2.6333
  143OSM   C15S15709   6.847   4.974   7.647 -0.4538  0.8329 -0.3561
  143OSM   H15S15710   6.904   4.901   7.585 -0.0131 -0.8042  1.9412
  143OSM   H15T15711   6.738   4.956   7.632 -0.3922  0.0956  0.0588
  143OSM   C16S15712   6.873   4.943   7.800 -0.4843 -0.2751 -0.2275
  143OSM   H16S15713   6.807   5.008   7.862  1.4383  0.1142  1.4647
  143OSM   H16T15714   6.980   4.958   7.825 -0.8303 -0.9022  1.6834
  143OSM   C17S15715   6.855   4.789   7.833  0.9121 -0.1048 -0.2575
  143OSM   H17S15716   6.912   4.755   7.922 -1.7433 -0.9841  1.1413
  143OSM   H17T15717   6.896   4.730   7.748  3.1637  0.7610  0.1979
  143OSM   C18S15718   6.706   4.743   7.847 -0.6381  0.4265 -0.3303
  143OSM   H18S15719   6.669   4.746   7.952 -1.5555  2.5350 -0.7008
  143OSM   H18T15720   6.681   4.641   7.812 -2.8874  1.5157 -1.9931
  143OSM   H18U15721   6.643   4.817   7.794  1.6294  3.0992  0.5509
  143OSM    C1F15722   7.367   5.494   6.473  0.0020  0.1339  0.7761
  143OSM     OF15723   7.365   5.619   6.461  0.4581  0.2044 -0.4241
  143OSM    C2F15724   7.493   5.417   6.491  0.3492 -0.0170  0.0946
  143OSM    H2F15725   7.562   5.453   6.413 -0.3392  0.9246 -0.0937
  143OSM    H2G15726   7.487   5.312   6.456  2.4124 -0.0870 -0.0660
  143OSM    C3F15727   7.542   5.439   6.634 -0.1017 -0.2756 -0.6823
  143OSM    H3F15728   7.471   5.459   6.716  0.6107 -2.0122  0.3906
  143OSM    H3G15729   7.602   5.532   6.637 -2.3477  1.1609  2.1532
  143OSM    C4F15730   7.631   5.320   6.682 -0.1168  0.8640  0.0412
  143OSM    H4F15731   7.688   5.350   6.772  1.0948 -0.0997 -0.3801
  143OSM    H4G15732   7.706   5.298   6.603 -0.2956 -0.9098  0.3458
  143OSM    C5F15733   7.551   5.192   6.719  0.6489  0.3934 -0.0857
  143OSM    H5F15734   7.611   5.101   6.737  0.4169  0.6751  2.2298
  143OSM    H5G15735   7.487   5.156   6.635  1.2996  0.1220 -0.4714
  143OSM    C6F15736   7.463   5.217   6.844  0.9187  0.1548  1.4094
  143OSM    H6F15737   7.402   5.128   6.872 -0.2031  0.8048  1.0338
  143OSM    H6G15738   7.399   5.306   6.829  0.0064 -0.6475  0.3601
  143OSM    C7F15739   7.558   5.254   6.954 -0.1223 -0.0483 -0.4736
  143OSM    H7F15740   7.571   5.364   6.954 -0.4653 -0.0078  0.7993
  143OSM    H7G15741   7.660   5.212   6.940  0.4983  1.6865 -1.2674
  143OSM    C8F15742   7.501   5.219   7.091 -0.4296 -0.5132 -1.0804
  143OSM    H8F15743   7.491   5.110   7.107 -0.7043 -0.2530  0.7144
  143OSM    H8G15744   7.398   5.260   7.089  0.1801  0.9879 -3.4187
  143OSM    C9F15745   7.580   5.278   7.210 -0.0053  0.2780 -0.6977
  143OSM    H9F15746   7.682   5.313   7.190  0.8743 -1.0871  1.2180
  143OSM   C10F15747   7.536   5.312   7.337 -0.1676  0.2724 -0.5140
  143OSM   H10F15748   7.602   5.337   7.421  2.1072  0.4727 -2.3210
  143OSM   C11F15749   7.396   5.308   7.389  0.1534  0.2540 -0.2927
  143OSM   H11F15750   7.327   5.280   7.307  0.6150 -0.6482 -0.3851
  143OSM   H11G15751   7.356   5.405   7.425  0.7641  0.2974  0.2888
  143OSM   C12F15752   7.381   5.205   7.498  0.6810 -0.4197  0.5803
  143OSM   H12F15753   7.439   5.117   7.462  2.7270  0.8869  0.5638
  143OSM   H12G15754   7.274   5.175   7.504  0.7899 -0.6878  1.2006
  143OSM   C13F15755   7.442   5.257   7.628 -0.7678 -0.2099  0.2869
  143OSM   H13F15756   7.420   5.366   7.628  1.4096  0.2567  0.0093
  143OSM   H13G15757   7.553   5.258   7.626 -0.7131 -0.7256  2.3504
  143OSM   C14F15758   7.394   5.193   7.755  0.3760 -0.1774  0.9970
  143OSM   H14F15759   7.403   5.083   7.768 -1.3393 -0.5967 -1.0930
  143OSM   H14G15760   7.285   5.212   7.766  0.0605 -0.9281 -0.6466
  143OSM   C15F15761   7.467   5.265   7.874 -0.0956  0.8160 -0.2171
  143OSM   H15F15762   7.459   5.375   7.865  0.3195  1.0924  2.3650
  143OSM   H15G15763   7.575   5.238   7.868 -0.6316 -1.3642 -0.6843
  143OSM   C16F15764   7.410   5.226   8.008 -0.9071 -0.0201  0.3981
  143OSM   H16F15765   7.431   5.122   8.041  2.0805  0.7682  1.1546
  143OSM   H16G15766   7.302   5.250   8.022 -0.2579  2.2517  1.7864
  143OSM   C17F15767   7.481   5.299   8.125  0.0281 -0.0882 -0.2441
  143OSM   H17F15768   7.591   5.294   8.112  0.0397  1.7743 -0.9540
  143OSM   H17G15769   7.451   5.247   8.219 -0.5288  1.2269  0.3165
  143OSM   C18F15770   7.442   5.448   8.130 -0.4234  0.5119  0.5784
  143OSM   H18F15771   7.496   5.504   8.210  1.0615  1.6697 -1.2075
  143OSM   H18G15772   7.331   5.455   8.137 -0.2780  1.8135  2.1253
  143OSM   H18H15773   7.468   5.510   8.042 -1.3693 -0.1143 -0.1502
  144OSM      N15774   6.174   4.456   5.973  1.6114 -0.1237  0.0325
  144OSM    C1515775   6.125   4.363   5.868 -0.4361 -0.1117 -0.6407
  144OSM   H15A15776   6.064   4.284   5.911 -2.6596  1.1419 -1.4645
  144OSM   H15B15777   6.207   4.312   5.821 -0.0109 -1.5989  1.6003
  144OSM   H15C15778   6.055   4.403   5.797 -0.0817  1.0937 -0.3168
  144OSM    C1415779   6.052   4.536   6.019  0.9735  0.9298  0.0551
  144OSM   H14A15780   6.010   4.583   5.932  0.4094  1.5665  0.6638
  144OSM   H14B15781   6.093   4.606   6.090  0.7558  1.5028 -0.3844
  144OSM   H14C15782   5.975   4.474   6.064  1.8017 -0.1726 -0.0315
  144OSM    C1315783   6.238   4.376   6.083 -0.0574 -0.7900 -0.3036
  144OSM   H13A15784   6.322   4.317   6.049 -0.5003  0.1357 -3.1782
  144OSM   H13B15785   6.168   4.316   6.140 -2.4437  2.3274  0.2031
  144OSM   H13C15786   6.282   4.446   6.152  0.4406 -0.9772 -0.4271
  144OSM    C1215787   6.272   4.549   5.915 -0.3955 -0.4960  0.2811
  144OSM   H12A15788   6.228   4.598   5.828 -0.8536  1.4430  1.5738
  144OSM   H12B15789   6.356   4.492   5.877 -1.1807 -1.5369  0.0846
  144OSM    C1115790   6.336   4.654   6.007 -0.3476  0.6343 -1.0188
  144OSM   H11A15791   6.260   4.706   6.069  0.5614 -0.7794  1.3371
  144OSM   H11B15792   6.393   4.729   5.947  2.8488 -1.7791 -1.0940
  144OSM      P15793   6.571   4.541   6.043 -0.1279 -0.5310 -0.0613
  144OSM    O1315794   6.550   4.418   5.968 -0.6057  0.1377 -0.0087
  144OSM    O1415795   6.645   4.651   5.974  0.2264  0.1279  0.0276
  144OSM    O1115796   6.643   4.509   6.182 -0.0877  0.1183  0.5990
  144OSM    O1215797   6.433   4.588   6.095 -0.2387 -0.4227 -0.5846
  144OSM    C1S15798   6.632   4.596   6.300 -0.3196  0.1465 -0.4639
  144OSM    H1S15799   6.593   4.698   6.280 -0.2503  0.2092 -0.2810
  144OSM    H1T15800   6.729   4.606   6.353 -1.2807 -0.6777  1.4882
  144OSM     NF15801   6.521   4.618   6.524  0.1756 -0.0329 -0.0949
  144OSM    HNF15802   6.584   4.605   6.601  2.2859 -1.7373 -2.0368
  144OSM    C2S15803   6.546   4.530   6.412 -0.1469 -0.1857 -0.1380
  144OSM    H2S15804   6.449   4.502   6.367 -0.2505 -1.0359  0.6030
  144OSM    C3S15805   6.613   4.396   6.457  0.7316 -1.0329  0.2928
  144OSM    H3S15806   6.704   4.425   6.513  0.3354  1.7192 -0.4052
  144OSM     O315807   6.645   4.308   6.350 -0.6128  0.5985 -0.1808
  144OSM    HO315808   6.623   4.353   6.269 -1.1076  0.4373 -0.1366
  144OSM    C4S15809   6.522   4.327   6.556 -0.5355 -0.2166 -0.0838
  144OSM    H4S15810   6.432   4.276   6.518  0.5904 -3.6153  1.6119
  144OSM    C5S15811   6.537   4.329   6.693  0.0666  0.3470  0.0703
  144OSM    H5S15812   6.620   4.389   6.733  0.3071  0.7698 -1.0496
  144OSM    C6S15813   6.437   4.276   6.790  0.6075 -0.9239  0.7352
  144OSM    H6S15814   6.480   4.219   6.874  2.0737 -0.6871  0.1596
  144OSM    H6T15815   6.365   4.213   6.733  0.1343 -0.9057  1.3060
  144OSM    C7S15816   6.359   4.385   6.867  0.1833  0.9129 -0.2937
  144OSM    H7S15817   6.300   4.454   6.802  0.7561  1.5581 -0.1313
  144OSM    H7T15818   6.439   4.449   6.910  0.6362 -0.2197  0.5784
  144OSM    C8S15819   6.264   4.342   6.985 -0.0796  0.1199 -0.6632
  144OSM    H8S15820   6.185   4.271   6.952 -0.5863  0.2161  0.3282
  144OSM    H8T15821   6.216   4.435   7.023  1.3771  1.3862 -1.8330
  144OSM    C9S15822   6.344   4.301   7.107  0.1077  0.0159 -0.4303
  144OSM    H9S15823   6.440   4.356   7.112  0.4681 -0.5073 -1.4327
  144OSM    H9T15824   6.374   4.195   7.094 -0.1770 -0.0002 -0.9451
  144OSM   C10S15825   6.261   4.296   7.233 -0.5749  0.3715  0.0236
  144OSM   H10S15826   6.169   4.241   7.207  0.0136  0.2346 -1.8159
  144OSM   H10T15827   6.224   4.398   7.258  0.6575  0.7002  0.5567
  144OSM   C11S15828   6.340   4.215   7.344 -0.0918 -0.2115 -0.2513
  144OSM   H11S15829   6.438   4.266   7.357 -0.3051 -0.0015  0.5605
  144OSM   H11T15830   6.367   4.115   7.303  0.0524 -1.7904  3.4935
  144OSM   C12S15831   6.260   4.210   7.476  0.5440 -0.0385 -0.2368
  144OSM   H12S15832   6.162   4.165   7.451 -1.5193  2.5926  2.7551
  144OSM   H12T15833   6.230   4.315   7.496  0.1424 -0.1097 -0.4469
  144OSM   C13S15834   6.341   4.155   7.583  0.3542 -0.3330 -0.3570
  144OSM   H13S15835   6.445   4.192   7.570 -0.2555  2.0570  1.1896
  144OSM   H13T15836   6.356   4.045   7.583  0.0626 -0.3744 -0.8556
  144OSM   C14S15837   6.288   4.190   7.725  0.4330 -0.3453  0.6873
  144OSM   H14S15838   6.184   4.162   7.750  0.4586 -0.2534  0.8972
  144OSM   H14T15839   6.301   4.301   7.724  0.2832 -0.3072  2.1820
  144OSM   C15S15840   6.366   4.137   7.839  0.1313 -0.4854 -0.1533
  144OSM   H15S15841   6.475   4.150   7.821 -0.0769 -0.0325 -1.1206
  144OSM   H15T15842   6.355   4.027   7.842 -0.3801 -0.4885 -1.8345
  144OSM   C16S15843   6.326   4.197   7.974  0.4619 -0.1928  0.7051
  144OSM   H16S15844   6.219   4.169   7.988  0.2850 -0.0442 -0.2865
  144OSM   H16T15845   6.330   4.308   7.967  2.6244 -0.2615  0.4839
  144OSM   C17S15846   6.410   4.131   8.078  0.1395 -0.5402 -0.1249
  144OSM   H17S15847   6.507   4.184   8.072  0.3777 -0.9935 -0.2728
  144OSM   H17T15848   6.423   4.021   8.069 -0.2108 -0.5565 -0.4130
  144OSM   C18S15849   6.357   4.163   8.224  0.2559 -0.2689  0.0094
  144OSM   H18S15850   6.421   4.112   8.299  0.1539 -1.9142 -0.9869
  144OSM   H18T15851   6.251   4.131   8.230 -0.0895 -0.1808 -3.8216
  144OSM   H18U15852   6.362   4.269   8.255 -1.3111  0.4422 -2.0516
  144OSM    C1F15853   6.443   4.719   6.529 -0.2979 -0.6689 -0.7133
  144OSM     OF15854   6.388   4.761   6.427 -0.4079  0.0544  0.4782
  144OSM    C2F15855   6.430   4.791   6.662  0.3227  0.5017 -0.1022
  144OSM    H2F15856   6.446   4.901   6.652  1.7662  0.4111  1.0313
  144OSM    H2G15857   6.509   4.746   6.726  0.2688  1.4988  0.6988
  144OSM    C3F15858   6.290   4.770   6.721  0.4000 -0.3015 -0.4200
  144OSM    H3F15859   6.254   4.668   6.696  1.4062 -0.6111 -0.5962
  144OSM    H3G15860   6.219   4.833   6.663  2.2861 -0.2500 -2.7244
  144OSM    C4F15861   6.288   4.776   6.874 -0.3594 -0.0584 -0.0532
  144OSM    H4F15862   6.361   4.853   6.907 -0.4094  0.2776 -0.7181
  144OSM    H4G15863   6.339   4.688   6.918 -0.8893 -1.5819 -2.4101
  144OSM    C5F15864   6.157   4.801   6.938 -0.3226 -0.1714 -0.1302
  144OSM    H5F15865   6.093   4.730   6.882 -0.7572 -0.9454  1.3315
  144OSM    H5G15866   6.115   4.903   6.936  2.1896  0.9941  2.4379
  144OSM    C6F15867   6.155   4.765   7.077 -0.1688 -0.2068  0.1735
  144OSM    H6F15868   6.249   4.782   7.135  0.3330 -1.4175 -0.2721
  144OSM    H6G15869   6.146   4.655   7.088 -0.0521 -0.0621  1.8067
  144OSM    C7F15870   6.048   4.838   7.160 -0.4715  0.2323  0.3259
  144OSM    H7F15871   5.953   4.814   7.108 -1.0472  3.8923 -0.4203
  144OSM    H7G15872   6.069   4.947   7.157  1.5506 -0.1544 -0.4766
  144OSM    C8F15873   6.041   4.799   7.310  0.4578 -0.9790  0.6005
  144OSM    H8F15874   6.141   4.795   7.357  1.2271 -0.2243 -0.9128
  144OSM    H8G15875   6.001   4.695   7.314  0.5669 -1.0308  0.4047
  144OSM    C9F15876   5.957   4.904   7.388  0.7468 -0.0562 -0.0682
  144OSM    H9F15877   5.990   5.009   7.383 -0.4910  0.4482  2.0006
  144OSM   C10F15878   5.848   4.878   7.459 -0.4158  0.4963 -0.0798
  144OSM   H10F15879   5.813   4.959   7.525  1.1890  0.9014  0.2756
  144OSM   C11F15880   5.779   4.752   7.493 -0.3759 -0.0606 -0.7163
  144OSM   H11F15881   5.846   4.663   7.495  0.9087  0.9162  1.8742
  144OSM   H11G15882   5.693   4.732   7.425 -0.5923 -1.4324 -0.0645
  144OSM   C12F15883   5.702   4.763   7.623  0.4130  0.2417 -0.0369
  144OSM   H12F15884   5.650   4.860   7.638 -0.4031 -0.1181 -0.5084
  144OSM   H12G15885   5.764   4.758   7.715 -0.3364 -0.4121  0.4369
  144OSM   C13F15886   5.604   4.651   7.641  0.4490 -0.3488 -0.4491
  144OSM   H13F15887   5.668   4.562   7.624  2.7447  1.5104 -1.9024
  144OSM   H13G15888   5.521   4.662   7.569 -1.1848  1.2747  1.6258
  144OSM   C14F15889   5.533   4.635   7.779  0.6542 -0.1768 -0.3419
  144OSM   H14F15890   5.465   4.548   7.764 -1.3227  1.3897 -0.5630
  144OSM   H14G15891   5.467   4.721   7.800 -0.0614 -0.3618 -1.7300
  144OSM   C15F15892   5.631   4.594   7.892  0.1983  0.0402 -0.0197
  144OSM   H15F15893   5.712   4.668   7.909 -1.0632  1.7260 -1.1728
  144OSM   H15G15894   5.690   4.509   7.852 -0.8791 -1.5888  1.7845
  144OSM   C16F15895   5.561   4.547   8.018  0.1538 -0.2289 -1.1415
  144OSM   H16F15896   5.484   4.473   7.989 -2.0553  1.8391 -0.7169
  144OSM   H16G15897   5.503   4.626   8.071 -0.1537 -0.0082 -1.8076
  144OSM   C17F15898   5.658   4.498   8.127  0.0129  0.0670 -0.3102
  144OSM   H17F15899   5.730   4.577   8.159  0.5950 -1.4057  2.1673
  144OSM   H17G15900   5.726   4.416   8.093 -1.1453 -0.0083 -2.5092
  144OSM   C18F15901   5.582   4.430   8.243 -0.6818 -0.1074 -0.4215
  144OSM   H18F15902   5.519   4.502   8.299 -1.4485  0.0174 -1.4360
  144OSM   H18G15903   5.650   4.381   8.315 -0.2099  0.7993 -0.2352
  144OSM   H18H15904   5.520   4.344   8.210  0.4971 -0.7922 -0.8744
  145SAPE     N15905   5.102   5.469  10.591  0.1500 -0.1749  0.4211
  145SAPE   HN115906   5.101   5.365  10.585 -0.9381 -0.1696  0.3308
  145SAPE   HN215907   5.142   5.493  10.684  1.1775 -1.9444  0.4665
  145SAPE   HN315908   5.002   5.497  10.581  0.8932  1.5719 -2.8976
  145SAPE   C1215909   5.176   5.547  10.482 -0.2029 -0.5494 -0.2929
  145SAPE  H12A15910   5.158   5.502  10.382 -2.6394  0.1800 -0.2288
  145SAPE  H12B15911   5.285   5.539  10.502  0.1194  0.2699 -1.6404
  145SAPE   C1115912   5.116   5.689  10.488 -0.0619  0.5474  0.5592
  145SAPE  H11A15913   5.172   5.756  10.420 -0.1925  1.7815  1.6458
  145SAPE  H11B15914   5.138   5.732  10.589  1.1998  2.5294 -0.5269
  145SAPE     P15915   4.876   5.808  10.533  0.2609 -0.0246  0.0272
  145SAPE   O1315916   4.768   5.741  10.607 -0.0697 -0.2131 -0.1681
  145SAPE   O1415917   4.947   5.923  10.601 -0.1107 -0.1201  0.2695
  145SAPE   O1215918   4.974   5.697  10.476 -0.1127  0.3533 -0.6726
  145SAPE   O1115919   4.811   5.857  10.402  0.6034 -1.0262 -0.2666
  145SAPE    C115920   4.771   5.766  10.298 -0.1124  0.3225 -0.4465
  145SAPE    HA15921   4.773   5.659  10.330  1.6716  0.8650  1.3221
  145SAPE    HB15922   4.669   5.791  10.263 -1.1585 -1.6966  0.9946
  145SAPE    C215923   4.858   5.787  10.172  0.0527  0.1780  0.0845
  145SAPE    HS15924   4.965   5.765  10.193 -0.3803  0.2273  2.5457
  145SAPE   O2115925   4.835   5.920  10.111  0.3260  0.5677 -0.8568
  145SAPE   C2115926   4.947   5.988  10.085 -0.6004  0.1014  0.1774
  145SAPE   O2215927   5.057   5.952  10.118 -0.0852  0.3041 -0.6010
  145SAPE   C2215928   4.911   6.118  10.018  0.0826 -0.0449 -0.0099
  145SAPE   H2R15929   4.833   6.090   9.944  1.5405 -2.5520 -0.6645
  145SAPE   H2S15930   4.859   6.189  10.085  0.5907 -1.1999  1.6629
  145SAPE    C315931   4.816   5.673  10.070  0.0938 -0.4334 -0.5892
  145SAPE    HX15932   4.705   5.682  10.072  0.2194  1.1705  0.8880
  145SAPE    HY15933   4.838   5.571  10.107  1.5073  0.3068  0.6978
  145SAPE   O3115934   4.864   5.698   9.936 -0.2955 -0.4342  0.0425
  145SAPE   C3115935   4.986   5.666   9.908  0.0551 -0.0369 -0.1500
  145SAPE   O3215936   5.071   5.618   9.983  0.5104  0.0743 -0.2038
  145SAPE   C3215937   5.007   5.702   9.761  0.4942  0.2266  0.1776
  145SAPE   H2X15938   5.044   5.807   9.759  1.6805 -0.1577  1.2242
  145SAPE   H2Y15939   4.913   5.691   9.702 -1.0968 -1.0613  2.8304
  145SAPE   C2315940   5.034   6.193   9.954  0.2452 -0.2448  0.1028
  145SAPE   H3R15941   5.110   6.219  10.031 -0.1770  0.8370  0.1656
  145SAPE   H3S15942   5.005   6.294   9.920 -0.4713 -1.0611 -1.7638
  145SAPE   C2415943   5.117   6.130   9.839  0.4827  0.3573  0.1489
  145SAPE   H4R15944   5.157   6.035   9.880  2.0979  2.1785  2.8979
  145SAPE   H4S15945   5.207   6.193   9.828  0.4808  0.3627  0.1670
  145SAPE   C2515946   5.032   6.119   9.712  0.4710 -0.7275 -0.9245
  145SAPE   H5R15947   4.969   6.031   9.695  0.3286 -0.4559 -1.8658
  145SAPE   C2615948   5.011   6.225   9.630  0.6455 -0.9169  0.5263
  145SAPE   H6R15949   4.956   6.208   9.536  0.8207 -0.5580  0.3600
  145SAPE   C2715950   5.067   6.365   9.638 -0.9374  0.0862 -0.2685
  145SAPE   H7R15951   5.148   6.359   9.714  0.0853  0.3190 -1.3274
  145SAPE   H7S15952   4.990   6.430   9.686 -1.3572 -1.3237  1.0110
  145SAPE   C2815953   5.131   6.423   9.519 -0.2452 -0.3151 -0.3430
  145SAPE   H8R15954   5.056   6.473   9.457 -1.5176  0.2865  1.6131
  145SAPE   C2915955   5.258   6.405   9.486  0.0752 -0.7920 -0.0547
  145SAPE   H9R15956   5.300   6.461   9.401 -0.1172 -1.1531 -0.3942
  145SAPE  C21015957   5.354   6.313   9.551 -0.2480  0.2140 -0.3296
  145SAPE  H10R15958   5.390   6.237   9.478 -0.4701  0.0105 -0.2266
  145SAPE  H10S15959   5.310   6.244   9.626 -1.0900 -0.4746 -1.4448
  145SAPE  C21115960   5.472   6.395   9.596  0.2118  0.1500  0.3081
  145SAPE  H11R15961   5.534   6.434   9.513  1.1687 -0.8810  0.5340
  145SAPE  C21215962   5.503   6.417   9.724  1.2713  0.2800 -0.6267
  145SAPE  H12R15963   5.596   6.468   9.752 -0.0944  1.2049  2.4644
  145SAPE  C21315964   5.422   6.361   9.839 -0.0386 -0.3823 -0.6885
  145SAPE  H13R15965   5.441   6.253   9.849  0.8576 -0.1584  0.0590
  145SAPE  H13S15966   5.317   6.376   9.806 -0.4449 -0.7373  0.4264
  145SAPE  C21415967   5.448   6.432   9.969 -0.8771 -0.1633  0.2159
  145SAPE  H14R15968   5.531   6.392  10.029 -0.2529  2.1363  0.9604
  145SAPE  C21515969   5.372   6.519  10.033 -0.1286  0.0516  0.7313
  145SAPE  H15R15970   5.405   6.562  10.128 -0.4863 -0.0096  0.8847
  145SAPE  C21615971   5.244   6.579   9.982 -0.1582 -0.3116 -0.9889
  145SAPE  H16R15972   5.159   6.515  10.014  1.9699 -1.9234  1.6143
  145SAPE  H16S15973   5.233   6.577   9.871 -0.5133 -0.4691 -0.9523
  145SAPE  C21715974   5.233   6.716  10.038 -0.4531 -0.7475 -0.9947
  145SAPE  H17R15975   5.220   6.700  10.147  3.8213  0.5557 -0.2010
  145SAPE  H17S15976   5.145   6.756   9.984  0.6034 -1.4871 -3.3000
  145SAPE  C21815977   5.346   6.816  10.014  0.7258 -0.3572  0.1928
  145SAPE  H18R15978   5.297   6.916  10.012 -3.0262 -2.1332 -1.0048
  145SAPE  H18S15979   5.384   6.805   9.910  0.4520  2.5053 -0.2711
  145SAPE  C21915980   5.447   6.823  10.136 -0.6368 -0.6519 -0.2084
  145SAPE  H19R15981   5.509   6.731  10.132  0.1286 -0.1758  0.4902
  145SAPE  H19S15982   5.385   6.821  10.228 -0.0596 -3.0413  0.1744
  145SAPE  C22015983   5.530   6.948  10.132  0.0926  0.0649 -0.4294
  145SAPE  H20R15984   5.472   7.029  10.181 -1.8032 -1.7645  0.4132
  145SAPE  H20S15985   5.554   6.973  10.026  0.1362 -2.1985 -0.9849
  145SAPE  H20T15986   5.627   6.933  10.184 -0.6413  1.9567  1.5285
  145SAPE   C3315987   5.129   5.621   9.705  0.3436  0.1302 -0.5951
  145SAPE   H3X15988   5.103   5.513   9.702 -0.3295  0.2286  1.3296
  145SAPE   H3Y15989   5.222   5.637   9.764  0.2248  1.0472 -0.6458
  145SAPE   C3415990   5.163   5.668   9.558 -0.5586 -0.0526  0.0399
  145SAPE   H4X15991   5.270   5.647   9.536 -0.5803 -1.4982  1.2147
  145SAPE   H4Y15992   5.149   5.778   9.551  2.2541  0.2537 -1.9723
  145SAPE   C3515993   5.071   5.602   9.454 -0.3829  0.0346  0.3057
  145SAPE   H5X15994   4.965   5.632   9.459 -0.3496  0.5179 -1.5868
  145SAPE   H5Y15995   5.075   5.492   9.469 -0.1064 -0.1252 -0.8875
  145SAPE   C3615996   5.109   5.646   9.313 -0.3314  0.4660 -0.1680
  145SAPE   H6X15997   5.203   5.591   9.291 -2.2418 -2.6637 -0.7929
  145SAPE   H6Y15998   5.136   5.754   9.308 -1.5206  0.8162  0.8109
  145SAPE   C3715999   5.001   5.621   9.204 -0.0016 -0.4287  1.1602
  145SAPE   H7X16000   4.901   5.657   9.235  0.2020 -1.5210  3.1699
  145SAPE   H7Y16001   4.987   5.511   9.202  2.2238 -0.7042 -1.9198
  145SAPE   C3816002   5.039   5.675   9.073  0.8347 -0.0692  0.2505
  145SAPE   H8X16003   5.148   5.659   9.056  0.8837 -0.2170  0.7220
  145SAPE   H8Y16004   5.018   5.784   9.078 -0.6256 -0.2146 -2.0229
  145SAPE   C3916005   4.942   5.619   8.959 -0.9706  0.2875  0.2421
  145SAPE   H9X16006   4.945   5.508   8.962 -1.6746  0.2827  1.3130
  145SAPE   H9Y16007   4.983   5.657   8.863  0.2003 -2.6864 -0.5105
  145SAPE  C31016008   4.800   5.674   8.967  0.2622 -0.5561  0.6283
  145SAPE  H10X16009   4.796   5.782   8.993  3.8368 -0.2577  0.2523
  145SAPE  H10Y16010   4.742   5.627   9.049 -1.1543 -1.0029 -0.5992
  145SAPE  C31116011   4.734   5.660   8.827  0.2211 -0.8120 -0.8695
  145SAPE  H11X16012   4.761   5.560   8.785  0.8305 -0.6645 -0.8404
  145SAPE  H11Y16013   4.784   5.733   8.760  0.1828 -0.1770 -0.2188
  145SAPE  C31216014   4.587   5.700   8.829 -0.1344 -0.0589  0.3947
  145SAPE  H12X16015   4.534   5.633   8.900 -2.9757  0.0471 -1.5775
  145SAPE  H12Y16016   4.546   5.677   8.729  0.6104  1.4161 -0.2764
  145SAPE  C31316017   4.556   5.846   8.864 -0.3721 -0.5888  0.8584
  145SAPE  H13X16018   4.642   5.906   8.828 -0.3332  0.0707  2.0306
  145SAPE  H13Y16019   4.567   5.873   8.971 -1.1416 -1.0230  1.0512
  145SAPE  C31416020   4.430   5.913   8.806  0.1861  0.0440  0.3141
  145SAPE  H14X16021   4.433   5.895   8.696 -0.6299  2.0410 -0.0524
  145SAPE  H14Y16022   4.444   6.019   8.836 -0.2089  0.5784 -1.3204
  145SAPE  C31516023   4.293   5.867   8.862  0.0830  0.8530 -0.1500
  145SAPE  H15X16024   4.220   5.942   8.824 -0.6463  0.9736  1.4496
  145SAPE  H15Y16025   4.278   5.862   8.972 -1.2445 -1.0725 -0.3821
  145SAPE  C31616026   4.235   5.738   8.797 -0.8925  0.1321  0.2861
  145SAPE  H16X16027   4.308   5.654   8.802 -0.3531  0.7114  5.2614
  145SAPE  H16Y16028   4.239   5.766   8.690  0.4184 -3.3521 -0.6499
  145SAPE  C31716029   4.093   5.703   8.828 -0.2924  0.0212 -0.9269
  145SAPE  H17X16030   4.032   5.790   8.797  0.1735  0.4284 -0.7219
  145SAPE  H17Y16031   4.074   5.678   8.935  0.9558 -0.3367 -0.7777
  145SAPE  C31816032   4.048   5.580   8.743 -0.2137  0.0849 -0.0008
  145SAPE  H18X16033   3.948   5.544   8.775  0.0814 -0.0264  0.8058
  145SAPE  H18Y16034   4.120   5.496   8.755 -0.8697 -0.1373  2.9223
  145SAPE  H18Z16035   4.048   5.614   8.637  1.1550  0.5700  0.1493
  146SAPE     N16036   4.224   0.712  10.682 -0.5501 -0.6573 -0.1311
  146SAPE   HN116037   4.139   0.657  10.705  0.1183 -1.1738  1.2090
  146SAPE   HN216038   4.214   0.807  10.722 -1.2337 -1.2945  1.2911
  146SAPE   HN316039   4.236   0.709  10.579  1.2841 -0.7931  0.0624
  146SAPE   C1216040   4.335   0.628  10.740 -0.3376 -0.0227 -0.3786
  146SAPE  H12A16041   4.334   0.623  10.851  0.0641 -1.2843 -0.4252
  146SAPE  H12B16042   4.427   0.685  10.715 -0.8042  0.8625 -0.0774
  146SAPE   C1116043   4.329   0.480  10.685  0.1151  0.7168  0.8821
  146SAPE  H11A16044   4.421   0.431  10.726 -1.6632 -0.7555  3.2308
  146SAPE  H11B16045   4.341   0.474  10.574  0.4669 -1.3254  1.0099
  146SAPE     P16046   4.100   0.362  10.656 -0.4888 -0.5090 -0.0308
  146SAPE   O1316047   4.142   0.239  10.584 -0.4057  0.4667  0.2285
  146SAPE   O1416048   3.983   0.340  10.741  0.7211  0.5028  0.0639
  146SAPE   O1216049   4.219   0.410  10.749  0.2729 -0.1181 -0.0697
  146SAPE   O1116050   4.084   0.481  10.555 -0.0291  0.6012 -0.5356
  146SAPE    C116051   3.953   0.494  10.493  0.1234 -0.0006  1.0440
  146SAPE    HA16052   3.873   0.425  10.529  1.7471 -2.4996 -0.0180
  146SAPE    HB16053   3.907   0.593  10.515 -1.3259 -0.0039 -1.7268
  146SAPE    C216054   3.966   0.479  10.346  0.0589 -0.1109 -0.0326
  146SAPE    HS16055   3.993   0.575  10.299 -0.5227  0.1489  0.1566
  146SAPE   O2116056   3.841   0.433  10.291  0.0856 -0.0042 -0.1889
  146SAPE   C2116057   3.746   0.529  10.288  0.6046  0.2963  0.2771
  146SAPE   O2216058   3.762   0.642  10.338  0.2527  0.2460  0.3324
  146SAPE   C2216059   3.610   0.474  10.239 -0.8491 -0.8066  0.7549
  146SAPE   H2R16060   3.594   0.374  10.285  0.5445 -1.5350 -0.3178
  146SAPE   H2S16061   3.519   0.535  10.259 -0.0156 -0.3048  3.3220
  146SAPE    C316062   4.076   0.370  10.315 -0.4169 -0.4615  0.0004
  146SAPE    HX16063   4.038   0.273  10.354 -0.1048 -1.1927 -1.4987
  146SAPE    HY16064   4.171   0.393  10.367 -0.9435  2.6676 -0.2926
  146SAPE   O3116065   4.111   0.356  10.176 -0.2076 -0.1549  0.1748
  146SAPE   C3116066   4.195   0.446  10.131 -0.6149 -0.4101 -0.0513
  146SAPE   O3216067   4.235   0.537  10.200  0.1059 -0.3841 -0.0257
  146SAPE   C3216068   4.231   0.416   9.983 -0.1939 -0.4433  0.1222
  146SAPE   H2X16069   4.139   0.408   9.922  0.2899 -0.6156 -0.5876
  146SAPE   H2Y16070   4.275   0.314   9.974 -0.4685 -0.6343  0.9169
  146SAPE   C2316071   3.632   0.436  10.091  0.7752 -0.2295 -0.2024
  146SAPE   H3R16072   3.572   0.349  10.059  0.5701 -0.1421 -0.0561
  146SAPE   H3S16073   3.732   0.387  10.082  0.5747 -0.8587  0.8980
  146SAPE   C2416074   3.613   0.555   9.991 -0.5575 -0.5012  0.5557
  146SAPE   H4R16075   3.700   0.624  10.003  2.3303 -4.3564  2.7330
  146SAPE   H4S16076   3.533   0.625  10.024 -0.5542 -1.3640  2.4650
  146SAPE   C2516077   3.578   0.505   9.852 -0.2214  0.2569  0.1637
  146SAPE   H5R16078   3.474   0.478   9.826  0.2911 -1.0988 -0.4864
  146SAPE   C2616079   3.666   0.501   9.745  0.5835 -0.7340  0.5773
  146SAPE   H6R16080   3.628   0.477   9.645 -0.4226  0.6995  0.5898
  146SAPE   C2716081   3.811   0.539   9.743  0.0430 -0.2038  0.3106
  146SAPE   H7R16082   3.829   0.625   9.810  0.4049  0.4566 -0.6229
  146SAPE   H7S16083   3.832   0.578   9.641  0.1487 -0.5427  0.1986
  146SAPE   C2816084   3.907   0.429   9.780  0.1218  0.4071  0.2922
  146SAPE   H8R16085   3.931   0.417   9.887 -2.7106  0.6643  0.9939
  146SAPE   C2916086   3.986   0.364   9.691  0.1572  0.3306  0.3382
  146SAPE   H9R16087   4.058   0.287   9.723 -0.8183 -0.1149  1.4717
  146SAPE  C21016088   3.991   0.401   9.546 -0.4761  0.6598  0.3943
  146SAPE  H10R16089   4.050   0.494   9.531  1.3400 -0.5055  0.1650
  146SAPE  H10S16090   3.891   0.423   9.503  0.0490 -0.3285 -1.3701
  146SAPE  C21116091   4.059   0.296   9.469  0.0459  0.0948  0.0388
  146SAPE  H11R16092   4.135   0.235   9.520 -0.4476  0.3532  1.1070
  146SAPE  C21216093   4.048   0.278   9.339 -0.1768 -0.0760  0.0042
  146SAPE  H12R16094   4.102   0.197   9.287 -0.5759 -1.6544  1.9630
  146SAPE  C21316095   3.961   0.355   9.235  0.3847 -0.3992 -1.0259
  146SAPE  H13R16096   3.905   0.435   9.287  1.0265  0.3847 -1.5347
  146SAPE  H13S16097   3.882   0.288   9.194 -0.3272  1.1837 -2.2940
  146SAPE  C21416098   4.030   0.415   9.115  0.2937 -0.3965  0.1897
  146SAPE  H14R16099   4.066   0.517   9.137  3.0966 -1.3864  0.4980
  146SAPE  C21516100   4.076   0.335   9.013  0.6594  0.3804 -0.6535
  146SAPE  H15R16101   4.139   0.388   8.939  0.2519  0.6521 -0.8102
  146SAPE  C21616102   4.064   0.189   8.983 -0.1923 -0.4018  0.0934
  146SAPE  H16R16103   4.029   0.133   9.073 -0.5433 -0.9762 -0.3946
  146SAPE  H16S16104   4.155   0.151   8.933 -1.7891 -1.3105 -2.2128
  146SAPE  C21716105   3.946   0.152   8.887 -0.6852  0.0663  1.0324
  146SAPE  H17R16106   3.846   0.186   8.921  0.2125  3.5917  0.3799
  146SAPE  H17S16107   3.941   0.041   8.883  0.5343 -0.0295  2.0540
  146SAPE  C21816108   3.968   0.206   8.743 -0.1904 -0.8686 -0.1199
  146SAPE  H18R16109   4.066   0.173   8.703 -0.1871  2.0788 -2.7070
  146SAPE  H18S16110   3.978   0.317   8.746 -0.6408 -0.8180 -0.5225
  146SAPE  C21916111   3.860   0.165   8.640  0.1633  0.1792 -0.3289
  146SAPE  H19R16112   3.770   0.226   8.661 -0.7220 -0.2377 -2.7099
  146SAPE  H19S16113   3.826   0.065   8.673 -1.2715  0.1407 -1.8555
  146SAPE  C22016114   3.893   0.179   8.495 -0.3174  0.1234 -0.4765
  146SAPE  H20R16115   3.949   0.270   8.462 -1.2131  1.0884  0.6169
  146SAPE  H20S16116   3.805   0.172   8.427  0.6264 -0.9740 -1.6194
  146SAPE  H20T16117   3.962   0.097   8.464  2.1850  0.9314  2.7106
  146SAPE   C3316118   4.325   0.517   9.923  0.2647 -0.3344 -0.1778
  146SAPE   H3X16119   4.406   0.555   9.988 -0.0806 -0.9069  0.6070
  146SAPE   H3Y16120   4.274   0.614   9.903  1.8273  0.0730 -2.3158
  146SAPE   C3416121   4.386   0.467   9.793 -0.5002 -0.0025 -0.1842
  146SAPE   H4X16122   4.314   0.436   9.714  0.7205  0.2551 -1.4257
  146SAPE   H4Y16123   4.456   0.381   9.805  1.3303  1.2949 -1.2124
  146SAPE   C3516124   4.474   0.576   9.725  0.3584 -0.2056  0.2089
  146SAPE   H5X16125   4.543   0.593   9.811  1.2449 -0.7547 -0.3856
  146SAPE   H5Y16126   4.414   0.665   9.699 -0.2702 -1.3297 -2.2786
  146SAPE   C3616127   4.551   0.526   9.602 -0.7918 -0.1468  0.3792
  146SAPE   H6X16128   4.582   0.421   9.619  2.6767  0.9584  1.5137
  146SAPE   H6Y16129   4.639   0.594   9.597  0.0727 -1.3869 -2.0946
  146SAPE   C3716130   4.461   0.535   9.473 -0.5859  0.7645 -0.1804
  146SAPE   H7X16131   4.374   0.601   9.495  0.3724  2.1858 -0.5956
  146SAPE   H7Y16132   4.426   0.431   9.460  0.6589  0.3581 -0.3411
  146SAPE   C3816133   4.528   0.571   9.345 -0.3702 -0.1304  0.4612
  146SAPE   H8X16134   4.634   0.537   9.354 -0.6222 -0.6188  1.7333
  146SAPE   H8Y16135   4.553   0.680   9.347 -2.2446  0.3122  0.4896
  146SAPE   C3916136   4.453   0.518   9.218 -0.3533  0.2501  0.4313
  146SAPE   H9X16137   4.355   0.568   9.206 -0.8977 -1.3478 -2.2438
  146SAPE   H9Y16138   4.440   0.408   9.232  0.5862  0.2212  1.1414
  146SAPE  C31016139   4.543   0.538   9.097  0.0082  0.1606  0.2753
  146SAPE  H10X16140   4.631   0.470   9.105 -1.1849 -1.5952 -1.0597
  146SAPE  H10Y16141   4.586   0.640   9.093 -0.5434  0.3258 -1.5740
  146SAPE  C31116142   4.462   0.507   8.970 -0.0822 -0.2859  0.7777
  146SAPE  H11X16143   4.420   0.603   8.935 -2.7370 -0.6197  2.8693
  146SAPE  H11Y16144   4.381   0.437   9.001 -0.3191 -0.3849 -0.0474
  146SAPE  C31216145   4.561   0.465   8.861  0.0243  0.0408 -0.3951
  146SAPE  H12X16146   4.613   0.369   8.880  0.3583  0.1174 -0.9220
  146SAPE  H12Y16147   4.650   0.529   8.842  0.1548 -1.1511 -4.3277
  146SAPE  C31316148   4.476   0.444   8.727 -0.1273 -0.0845  0.0271
  146SAPE  H13X16149   4.538   0.417   8.638 -0.0537  1.6724 -0.4780
  146SAPE  H13Y16150   4.425   0.541   8.712 -1.8130 -0.9223  0.2981
  146SAPE  C31416151   4.386   0.314   8.728 -0.2717 -0.5886  0.3202
  146SAPE  H14X16152   4.304   0.319   8.802 -0.8547  1.4557 -0.4408
  146SAPE  H14Y16153   4.459   0.238   8.764  0.5381 -1.1531 -2.3490
  146SAPE  C31516154   4.340   0.283   8.579 -0.0613 -0.2939  0.2452
  146SAPE  H15X16155   4.279   0.190   8.582 -1.1086  0.4008  0.8365
  146SAPE  H15Y16156   4.418   0.266   8.502 -2.4106  0.0595 -2.3109
  146SAPE  C31616157   4.243   0.394   8.533 -0.5365  0.5995 -0.0950
  146SAPE  H16X16158   4.284   0.494   8.560 -0.2266  0.2194  0.8531
  146SAPE  H16Y16159   4.156   0.371   8.598  0.5859 -3.3860  0.1362
  146SAPE  C31716160   4.212   0.392   8.382  0.0080 -0.4296 -0.4409
  146SAPE  H17X16161   4.172   0.292   8.356 -1.4798 -0.0520  0.3533
  146SAPE  H17Y16162   4.307   0.405   8.325 -0.9053 -0.5640 -2.0146
  146SAPE  C31816163   4.110   0.498   8.335  0.3804 -1.1434  0.3506
  146SAPE  H18X16164   4.028   0.512   8.408 -1.2910  0.2740 -1.7352
  146SAPE  H18Y16165   4.072   0.481   8.232 -1.7425  0.1002  0.8990
  146SAPE  H18Z16166   4.158   0.597   8.326 -0.8414 -0.7150 -1.8568
  147SAPE     N16167   4.981   3.260  10.649 -0.0937 -0.2908 -0.2863
  147SAPE   HN116168   4.932   3.191  10.708 -0.3808  0.4765  0.3889
  147SAPE   HN216169   4.955   3.346  10.702 -1.0910 -2.2559  2.5055
  147SAPE   HN316170   4.936   3.249  10.556  0.0143  0.0837 -0.3866
  147SAPE   C1216171   5.128   3.231  10.650  0.4864  0.0457  0.3719
  147SAPE  H12A16172   5.176   3.282  10.564 -0.2237 -1.4891 -0.9741
  147SAPE  H12B16173   5.135   3.123  10.623  0.8190 -0.1176  1.0865
  147SAPE   C1116174   5.192   3.260  10.791 -0.3379 -0.3394 -0.5546
  147SAPE  H11A16175   5.186   3.369  10.809 -1.6722 -0.4232 -0.4675
  147SAPE  H11B16176   5.298   3.237  10.770 -0.0594 -1.2557  1.6767
  147SAPE     P16177   5.188   3.039  10.936 -0.1395 -0.0618  0.3438
  147SAPE   O1316178   5.319   3.039  11.006 -0.2742  0.5640  0.1479
  147SAPE   O1416179   5.076   2.971  11.010 -0.2853 -0.7807  0.0207
  147SAPE   O1216180   5.135   3.184  10.904 -0.0390  0.4270  0.7940
  147SAPE   O1116181   5.207   2.976  10.791  0.2295 -0.0921 -0.3507
  147SAPE    C116182   5.295   2.877  10.754 -0.2017 -0.4058 -0.4130
  147SAPE    HA16183   5.400   2.913  10.755 -1.0122  2.0572  1.0117
  147SAPE    HB16184   5.281   2.794  10.827 -0.3200  0.8630  1.0392
  147SAPE    C216185   5.259   2.820  10.614 -0.0335  0.3407  0.6557
  147SAPE    HS16186   5.337   2.746  10.589 -1.2277 -0.9532  0.6619
  147SAPE   O2116187   5.255   2.935  10.521 -0.2013  0.3219 -0.0626
  147SAPE   C2116188   5.375   2.979  10.483  0.5271 -0.5909  0.6265
  147SAPE   O2216189   5.478   2.923  10.510 -0.4087  0.1607 -0.0882
  147SAPE   C2216190   5.371   3.099  10.388  0.7616  0.1367 -0.6023
  147SAPE   H2R16191   5.360   3.192  10.448  0.4914 -0.3165  0.0572
  147SAPE   H2S16192   5.464   3.101  10.327 -0.1879  0.1960 -2.0658
  147SAPE    C316193   5.126   2.743  10.621 -0.2888 -0.2891 -0.2907
  147SAPE    HX16194   5.051   2.824  10.608  0.5992  0.6996  0.6649
  147SAPE    HY16195   5.104   2.691  10.716 -1.5745 -0.8573 -0.8786
  147SAPE   O3116196   5.117   2.656  10.506  0.1662 -0.4899 -0.5032
  147SAPE   C3116197   5.158   2.530  10.515  0.1153  0.1265 -0.8332
  147SAPE   O3216198   5.202   2.475  10.612  0.1112  0.4362 -0.0007
  147SAPE   C3216199   5.145   2.463  10.374  0.1717 -0.4806 -0.1578
  147SAPE   H2X16200   5.165   2.548  10.305  0.7964  0.9400  1.7509
  147SAPE   H2Y16201   5.045   2.413  10.376 -0.4265  0.7238  3.3276
  147SAPE   C2316202   5.249   3.102  10.300  0.0412 -0.5059 -0.3654
  147SAPE   H3R16203   5.254   3.197  10.243 -0.9696 -0.0752  0.2511
  147SAPE   H3S16204   5.154   3.124  10.354 -0.3840  0.6362 -1.5633
  147SAPE   C2416205   5.215   2.986  10.207 -0.8917  0.0801  0.0219
  147SAPE   H4R16206   5.153   3.042  10.133 -0.0577  3.3898  1.7273
  147SAPE   H4S16207   5.159   2.912  10.267  0.8338  1.5672  3.6133
  147SAPE   C2516208   5.337   2.925  10.131 -0.4299 -0.4308  0.5016
  147SAPE   H5R16209   5.402   2.856  10.188  0.9049  0.4979  0.1373
  147SAPE   C2616210   5.385   2.943  10.004  0.9167  0.2218 -0.2885
  147SAPE   H6R16211   5.469   2.883   9.966  1.8960  1.1810  0.3294
  147SAPE   C2716212   5.326   3.029   9.897 -0.3409 -0.0445  1.0714
  147SAPE   H7R16213   5.401   3.084   9.836 -0.3628  0.9044  1.8864
  147SAPE   H7S16214   5.292   3.114   9.960 -1.3244 -0.7429  1.4944
  147SAPE   C2816215   5.218   2.962   9.813 -0.1304  0.0206 -0.0171
  147SAPE   H8R16216   5.118   2.963   9.858 -0.8314 -2.0639 -1.4625
  147SAPE   C2916217   5.244   2.900   9.697 -0.5043 -0.4680  0.3431
  147SAPE   H9R16218   5.166   2.859   9.631 -0.2634  0.4714 -0.5317
  147SAPE  C21016219   5.372   2.890   9.623  0.1563 -0.3552 -0.3250
  147SAPE  H10R16220   5.350   2.812   9.547 -1.0549  0.2117 -0.5730
  147SAPE  H10S16221   5.454   2.859   9.691  1.2959 -1.4560 -2.1582
  147SAPE  C21116222   5.414   3.016   9.550  0.8807 -0.8242  0.2837
  147SAPE  H11R16223   5.351   3.105   9.566 -0.0167 -0.8209 -2.7891
  147SAPE  C21216224   5.511   3.023   9.461 -0.5015  0.3162 -0.2071
  147SAPE  H12R16225   5.526   3.119   9.408  2.3349 -0.5815 -1.1409
  147SAPE  C21316226   5.598   2.913   9.409 -0.5749  0.1496  0.1180
  147SAPE  H13R16227   5.623   2.851   9.497 -0.5013 -0.5629 -0.3986
  147SAPE  H13S16228   5.688   2.962   9.365 -1.3718  1.6573  0.1534
  147SAPE  C21416229   5.533   2.846   9.294 -0.6248  0.1712 -0.3281
  147SAPE  H14R16230   5.442   2.795   9.329 -0.7495  2.8088  3.4916
  147SAPE  C21516231   5.572   2.834   9.170 -0.1510  0.4147  0.1866
  147SAPE  H15R16232   5.505   2.777   9.104  2.3506 -2.4806  0.0045
  147SAPE  C21616233   5.693   2.892   9.101 -0.5643 -0.3907  0.8813
  147SAPE  H16R16234   5.784   2.852   9.149 -0.3375  0.8806  1.5108
  147SAPE  H16S16235   5.702   3.002   9.111 -3.4344 -0.0192  0.0576
  147SAPE  C21716236   5.713   2.870   8.948 -0.1804 -0.1791  0.2349
  147SAPE  H17R16237   5.737   2.763   8.928 -0.8278  0.1431 -2.3514
  147SAPE  H17S16238   5.800   2.934   8.922 -0.0012  0.7301  2.9346
  147SAPE  C21816239   5.596   2.908   8.857  0.0383  0.4134  0.0955
  147SAPE  H18R16240   5.562   3.009   8.888  0.5818  0.2039  1.4122
  147SAPE  H18S16241   5.512   2.836   8.872 -0.2607  0.5318 -0.9601
  147SAPE  C21916242   5.622   2.898   8.705 -0.4028 -0.6321  0.5785
  147SAPE  H19R16243   5.671   2.801   8.682 -0.0922 -0.4047  0.2599
  147SAPE  H19S16244   5.695   2.979   8.682  0.4902 -1.2304  1.2532
  147SAPE  C22016245   5.498   2.915   8.622 -0.2192  1.0391  0.2323
  147SAPE  H20R16246   5.456   3.018   8.633 -1.1754  0.6142  0.5635
  147SAPE  H20S16247   5.417   2.848   8.659  0.2694 -0.8163 -1.9393
  147SAPE  H20T16248   5.517   2.887   8.517 -0.5907  1.4354  0.0567
  147SAPE   C3316249   5.249   2.350  10.335 -0.3115 -0.2719  0.2787
  147SAPE   H3X16250   5.240   2.265  10.405  1.6895 -0.1116  0.7724
  147SAPE   H3Y16251   5.353   2.388  10.344 -0.0739 -1.2549  1.8333
  147SAPE   C3416252   5.219   2.300  10.196  0.2404 -0.7716  0.5917
  147SAPE   H4X16253   5.179   2.381  10.132 -0.9312 -1.3248  0.6044
  147SAPE   H4Y16254   5.147   2.216  10.207 -0.5616  0.2726  3.8141
  147SAPE   C3516255   5.342   2.244  10.122 -0.2883  0.4979 -1.0512
  147SAPE   H5X16256   5.386   2.170  10.192 -2.0429  0.9099  0.5427
  147SAPE   H5Y16257   5.419   2.324  10.127  0.1323  0.0018  0.9665
  147SAPE   C3616258   5.330   2.197   9.981  0.2853  0.5842  0.0335
  147SAPE   H6X16259   5.321   2.291   9.921  2.0814  0.3910 -0.5748
  147SAPE   H6Y16260   5.251   2.120   9.968  1.2493 -0.1241 -1.9103
  147SAPE   C3716261   5.462   2.135   9.927 -0.4077 -0.4263 -0.7946
  147SAPE   H7X16262   5.504   2.071  10.007  1.0194  2.6488  1.0134
  147SAPE   H7Y16263   5.529   2.223   9.914  1.7101 -2.0935 -1.4117
  147SAPE   C3816264   5.443   2.057   9.788  0.5252 -0.5266  0.4041
  147SAPE   H8X16265   5.353   1.993   9.799  0.0488  0.4709  2.3981
  147SAPE   H8Y16266   5.530   1.989   9.777  0.6876 -0.2916  0.2073
  147SAPE   C3916267   5.423   2.147   9.667  0.0146  0.4922  0.0369
  147SAPE   H9X16268   5.509   2.216   9.649  0.1946 -0.2924 -2.2972
  147SAPE   H9Y16269   5.336   2.216   9.673  0.6824  1.3806 -0.2648
  147SAPE  C31016270   5.396   2.058   9.542  0.5325 -0.5646  0.0716
  147SAPE  H10X16271   5.302   2.001   9.555  0.3091  0.0301  1.1605
  147SAPE  H10Y16272   5.478   1.983   9.546  3.0607  2.1455  2.6931
  147SAPE  C31116273   5.389   2.138   9.406  0.4002  0.0430  0.5259
  147SAPE  H11X16274   5.468   2.216   9.403  1.3890 -0.9336  0.8931
  147SAPE  H11Y16275   5.290   2.188   9.403  0.8723  0.9525 -0.0505
  147SAPE  C31216276   5.395   2.046   9.282 -0.1814 -0.0843  0.4307
  147SAPE  H12X16277   5.304   1.982   9.276 -0.2459  0.1357 -1.1478
  147SAPE  H12Y16278   5.495   2.000   9.301  0.6617  1.2227 -0.7420
  147SAPE  C31316279   5.382   2.126   9.148 -0.1944 -0.3349 -0.4298
  147SAPE  H13X16280   5.474   2.188   9.147  0.7446 -1.6232  1.0090
  147SAPE  H13Y16281   5.289   2.186   9.158  0.6841  1.0435 -0.4895
  147SAPE  C31416282   5.385   2.037   9.022 -0.2644  0.7217  0.3576
  147SAPE  H14X16283   5.312   1.954   9.026  1.1077 -0.5358 -0.0662
  147SAPE  H14Y16284   5.488   1.995   9.034 -0.4336 -0.3304 -1.7186
  147SAPE  C31516285   5.370   2.115   8.890 -0.1004  0.3227 -0.5969
  147SAPE  H15X16286   5.417   2.063   8.804  2.2338  1.3224  0.0278
  147SAPE  H15Y16287   5.435   2.205   8.890 -0.3569  0.5077 -1.4337
  147SAPE  C31616288   5.227   2.160   8.862  0.2910  0.2381  0.5072
  147SAPE  H16X16289   5.232   2.240   8.785  3.4578  0.1117  0.5237
  147SAPE  H16Y16290   5.185   2.206   8.954  0.4482  2.5601 -0.5290
  147SAPE  C31716291   5.133   2.046   8.824  0.4956  0.0346 -0.3970
  147SAPE  H17X16292   5.057   2.095   8.760 -1.6468 -3.2083 -0.4540
  147SAPE  H17Y16293   5.087   2.012   8.919  1.2844  0.4894  0.1515
  147SAPE  C31816294   5.188   1.931   8.741  0.0220  0.2847 -0.2500
  147SAPE  H18X16295   5.261   1.868   8.796 -0.3812  0.9465  1.0687
  147SAPE  H18Y16296   5.240   1.969   8.651  1.9981  0.8069  1.0776
  147SAPE  H18Z16297   5.106   1.871   8.696  0.1146 -0.4863  0.5731
  148SAPE     N16298   0.494   4.939  10.215  0.9117 -0.0438  0.1021
  148SAPE   HN116299   0.411   4.999  10.197  0.0809 -0.8316  1.1898
  148SAPE   HN216300   0.554   4.968  10.136 -1.4429 -1.2063 -2.1786
  148SAPE   HN316301   0.463   4.840  10.211  1.4230 -0.1124 -2.7546
  148SAPE   C1216302   0.534   4.972  10.355  0.6934 -0.3500 -0.0669
  148SAPE  H12A16303   0.622   5.040  10.351 -0.3052  0.9097 -0.8131
  148SAPE  H12B16304   0.560   4.881  10.413  1.2254  0.0237  0.2873
  148SAPE   C1116305   0.407   5.026  10.435  0.9839 -0.3072 -0.3701
  148SAPE  H11A16306   0.437   5.045  10.540  2.9669  2.2005 -1.3412
  148SAPE  H11B16307   0.336   4.940  10.431 -0.8580  1.0459  1.8179
  148SAPE     P16308   0.347   5.291  10.430 -0.0472  0.0319  0.0108
  148SAPE   O1316309   0.399   5.278  10.573  0.8005  0.5173  0.3614
  148SAPE   O1416310   0.424   5.384  10.345 -0.7031  0.1088 -0.2641
  148SAPE   O1216311   0.349   5.142  10.366 -0.1315 -0.5039 -0.5401
  148SAPE   O1116312   0.191   5.336  10.435 -0.3335 -0.5996  0.1589
  148SAPE    C116313   0.103   5.253  10.511  0.4846 -0.2794  0.2465
  148SAPE    HA16314   0.157   5.221  10.603  0.0613  2.2535  1.4277
  148SAPE    HB16315   0.011   5.311  10.536 -0.4827 -0.8854 -1.8212
  148SAPE    C216316   0.049   5.120  10.436 -0.1691 -0.2456  0.2306
  148SAPE    HS16317   0.133   5.081  10.375  0.1528 -0.4057  0.7683
  148SAPE   O2116318  -0.067   5.158  10.352  0.3601  0.5372 -0.0683
  148SAPE   C2116319  -0.041   5.201  10.231  0.0305 -0.6216 -0.4297
  148SAPE   O2216320   0.072   5.200  10.182 -0.0383 -0.4362  0.8530
  148SAPE   C2216321  -0.169   5.237  10.159 -0.6744 -0.3272 -0.0460
  148SAPE   H2R16322  -0.175   5.163  10.076  2.3745 -0.4412 -0.2378
  148SAPE   H2S16323  -0.260   5.212  10.217 -2.7710  3.9703 -1.2712
  148SAPE    C316324   0.001   5.025  10.542 -0.4429  0.9049  0.3944
  148SAPE    HX16325  -0.076   5.077  10.604 -0.4923  1.3667 -0.0509
  148SAPE    HY16326   0.083   4.999  10.611  2.6245  1.3957 -2.9435
  148SAPE   O3116327  -0.054   4.905  10.483 -0.7386  0.2981  0.1702
  148SAPE   C3116328   0.035   4.806  10.463  0.1062 -0.2309 -0.6580
  148SAPE   O3216329   0.150   4.799  10.500  0.1365 -0.0479 -0.5137
  148SAPE   C3216330  -0.023   4.696  10.380 -0.1841 -0.1526  0.2724
  148SAPE   H2X16331  -0.132   4.717  10.370 -0.1801 -1.2973 -2.6388
  148SAPE   H2Y16332   0.005   4.602  10.433  1.4682  0.1943  0.0522
  148SAPE   C2316333  -0.164   5.381  10.111  0.0032  0.1125  0.7891
  148SAPE   H3R16334  -0.077   5.402  10.045 -0.6844  3.2152  0.7899
  148SAPE   H3S16335  -0.135   5.445  10.198 -0.4194 -0.9033  1.6825
  148SAPE   C2416336  -0.294   5.438  10.058  0.6086 -0.1201 -0.0483
  148SAPE   H4R16337  -0.262   5.544  10.049  1.0914 -0.1783  0.8888
  148SAPE   H4S16338  -0.380   5.432  10.128 -0.5019 -3.1017 -1.5674
  148SAPE   C2516339  -0.352   5.386   9.930  0.5980 -0.1106  1.2730
  148SAPE   H5R16340  -0.421   5.300   9.934  2.4470 -1.7139 -0.4263
  148SAPE   C2616341  -0.309   5.423   9.808  0.7216 -0.4899 -0.5191
  148SAPE   H6R16342  -0.357   5.378   9.720  2.3054 -0.6290 -1.3279
  148SAPE   C2716343  -0.197   5.523   9.768  0.1682  0.5708 -0.3863
  148SAPE   H7R16344  -0.130   5.533   9.856 -2.3245  0.1015  1.6411
  148SAPE   H7S16345  -0.244   5.623   9.756 -0.3744  0.0447 -2.9338
  148SAPE   C2816346  -0.097   5.488   9.666 -0.1033 -0.1984  0.1526
  148SAPE   H8R16347  -0.027   5.405   9.684 -0.1194  0.2003  2.1934
  148SAPE   C2916348  -0.096   5.524   9.536  0.0614 -0.4479  0.2086
  148SAPE   H9R16349  -0.005   5.500   9.479  1.3335  0.1336  1.9540
  148SAPE  C21016350  -0.193   5.615   9.474 -0.8220 -0.2890  0.2427
  148SAPE  H10R16351  -0.148   5.655   9.380  0.1365 -0.0455  0.7980
  148SAPE  H10S16352  -0.234   5.691   9.543  0.0338  1.3729 -1.0469
  148SAPE  C21116353  -0.321   5.541   9.446  0.3810  0.4088 -0.0781
  148SAPE  H11R16354  -0.355   5.474   9.527  0.0454  1.5988  0.7774
  148SAPE  C21216355  -0.407   5.569   9.348  0.4220 -0.5686  0.4157
  148SAPE  H12R16356  -0.481   5.491   9.327  2.6366 -2.7381  0.5068
  148SAPE  C21316357  -0.394   5.689   9.251 -0.2988 -0.2747  0.5692
  148SAPE  H13R16358  -0.295   5.738   9.252 -0.1896 -0.4896  0.2179
  148SAPE  H13S16359  -0.454   5.774   9.290 -0.1251  0.2362 -0.2699
  148SAPE  C21416360  -0.438   5.669   9.106 -0.4337 -0.3841 -0.2642
  148SAPE  H14R16361  -0.533   5.613   9.099 -0.8757  0.0633  1.7710
  148SAPE  C21516362  -0.369   5.703   8.997  0.2087 -0.3475  0.3155
  148SAPE  H15R16363  -0.408   5.667   8.900 -2.1334 -0.9578  1.4502
  148SAPE  C21616364  -0.232   5.764   8.993  0.7175  0.7377  0.2184
  148SAPE  H16R16365  -0.213   5.818   9.088 -2.9766  0.8356  0.9752
  148SAPE  H16S16366  -0.221   5.842   8.914  0.9200  0.2076 -0.2827
  148SAPE  C21716367  -0.140   5.650   8.958  0.4107  0.1265 -0.3935
  148SAPE  H17R16368  -0.162   5.612   8.856  2.4964  0.8857 -1.1468
  148SAPE  H17S16369  -0.166   5.562   9.020 -0.6516  1.4785  1.0985
  148SAPE  C21816370   0.001   5.687   8.969  0.5372 -0.1465 -0.0319
  148SAPE  H18R16371   0.059   5.596   8.943  0.7667  0.5782 -2.2261
  148SAPE  H18S16372   0.019   5.714   9.075 -3.3745  0.9883  0.4134
  148SAPE  C21916373   0.057   5.797   8.876  0.0286 -0.0942 -0.8419
  148SAPE  H19R16374  -0.002   5.889   8.894 -0.5686 -0.2194 -2.1447
  148SAPE  H19S16375   0.042   5.762   8.772  4.5591 -1.0919 -1.2862
  148SAPE  C22016376   0.203   5.834   8.898  0.2568  0.4377  0.7984
  148SAPE  H20R16377   0.245   5.913   8.832  0.6377 -2.0563 -2.0396
  148SAPE  H20S16378   0.268   5.747   8.879 -2.2499 -1.3159 -0.0163
  148SAPE  H20T16379   0.220   5.868   9.002  1.0856 -0.5544  0.9939
  148SAPE   C3316380   0.034   4.669  10.236  0.0983 -0.1966  0.7924
  148SAPE   H3X16381  -0.031   4.599  10.179  1.5038  0.1355 -1.2530
  148SAPE   H3Y16382   0.139   4.635  10.241 -0.2206 -1.1121  1.4813
  148SAPE   C3416383   0.026   4.801  10.156 -0.0439 -0.6851  0.1557
  148SAPE   H4X16384   0.109   4.870  10.179 -0.3177 -0.0424 -0.7400
  148SAPE   H4Y16385  -0.068   4.851  10.188 -1.0812 -1.4567 -1.5914
  148SAPE   C3516386   0.009   4.776  10.004  0.5184 -0.2207 -0.2074
  148SAPE   H5X16387  -0.056   4.687   9.992  1.4271 -1.0976  1.1957
  148SAPE   H5Y16388   0.113   4.747   9.980 -0.0167 -1.2574 -1.3059
  148SAPE   C3616389  -0.032   4.888   9.907 -0.3616  0.3136 -0.2257
  148SAPE   H6X16390  -0.006   4.859   9.802  0.1366 -2.2450  0.5746
  148SAPE   H6Y16391   0.017   4.981   9.941  1.2177 -0.0197 -1.5087
  148SAPE   C3716392  -0.184   4.900   9.910  0.0457 -0.2862 -0.9029
  148SAPE   H7X16393  -0.200   4.926  10.017  0.4054 -1.9214 -0.4458
  148SAPE   H7Y16394  -0.236   4.810   9.872  0.3815 -0.8856  0.0415
  148SAPE   C3816395  -0.232   5.025   9.839 -0.5405  0.0996 -0.3207
  148SAPE   H8X16396  -0.159   5.108   9.849  0.5629 -0.7754 -0.9458
  148SAPE   H8Y16397  -0.331   5.058   9.875  0.0508 -0.2322  1.6580
  148SAPE   C3916398  -0.243   4.994   9.690  0.7409  0.2447 -0.1245
  148SAPE   H9X16399  -0.300   4.900   9.673 -0.5465  0.7777  1.1203
  148SAPE   H9Y16400  -0.148   4.983   9.633 -0.2412 -1.6575 -1.4423
  148SAPE  C31016401  -0.312   5.111   9.622  0.2813  0.0267  0.3993
  148SAPE  H10X16402  -0.249   5.201   9.636  0.8596 -0.0991 -1.3654
  148SAPE  H10Y16403  -0.412   5.138   9.663 -1.0323 -2.8888 -0.7336
  148SAPE  C31116404  -0.329   5.082   9.469  0.6440 -0.4541  0.2635
  148SAPE  H11X16405  -0.404   5.000   9.461 -0.7629  0.9804 -1.7355
  148SAPE  H11Y16406  -0.238   5.029   9.435 -0.6305 -1.0459 -2.2962
  148SAPE  C31216407  -0.362   5.191   9.367 -0.3245 -0.0761  0.9330
  148SAPE  H12X16408  -0.304   5.277   9.405  2.3206 -2.2172  1.9160
  148SAPE  H12Y16409  -0.467   5.226   9.379  0.0003  1.0274  0.5428
  148SAPE  C31316410  -0.334   5.144   9.226 -0.2835  0.3683  0.0314
  148SAPE  H13X16411  -0.431   5.127   9.175  0.3340 -1.7935 -0.4775
  148SAPE  H13Y16412  -0.283   5.045   9.223 -0.4139  0.3134 -0.5003
  148SAPE  C31416413  -0.236   5.245   9.164 -0.2665 -1.0393  0.8304
  148SAPE  H14X16414  -0.135   5.241   9.210  0.8226 -0.6191 -1.4551
  148SAPE  H14Y16415  -0.300   5.336   9.166 -0.1715 -0.9226 -0.7360
  148SAPE  C31516416  -0.220   5.194   9.009  0.0439 -0.2346 -0.1289
  148SAPE  H15X16417  -0.212   5.083   9.018 -0.2526 -0.3274 -1.0012
  148SAPE  H15Y16418  -0.124   5.240   8.977  1.1933 -0.8096  2.3669
  148SAPE  C31616419  -0.322   5.232   8.908  0.4237 -0.2803  0.5022
  148SAPE  H16X16420  -0.325   5.343   8.907  1.6903 -0.2155 -1.5089
  148SAPE  H16Y16421  -0.422   5.196   8.939 -0.7016  0.2592 -2.3399
  148SAPE  C31716422  -0.304   5.179   8.766  0.4942  0.5639 -0.3440
  148SAPE  H17X16423  -0.313   5.069   8.757 -0.4620  0.6104  0.0366
  148SAPE  H17Y16424  -0.202   5.212   8.734  1.4700  0.3937  2.4119
  148SAPE  C31816425  -0.410   5.236   8.667 -0.3336 -0.1102  0.0642
  148SAPE  H18X16426  -0.506   5.188   8.695 -0.1298  0.7524  2.2945
  148SAPE  H18Y16427  -0.380   5.209   8.563 -4.6966  0.3360 -1.3794
  148SAPE  H18Z16428  -0.423   5.344   8.685  0.0140  0.1225 -1.0074
  149SAPE     N16429   2.450   0.546  11.095 -0.4642  0.5336 -0.6996
  149SAPE   HN116430   2.488   0.568  11.190  0.1864  2.1708 -1.3199
  149SAPE   HN216431   2.532   0.506  11.045  0.1259 -0.2206  0.8176
  149SAPE   HN316432   2.423   0.631  11.041  0.1815  0.9461 -0.3925
  149SAPE   C1216433   2.336   0.447  11.112 -0.5778  0.1876  0.0371
  149SAPE  H12A16434   2.284   0.454  11.014  0.7483  2.5722 -0.5456
  149SAPE  H12B16435   2.259   0.481  11.186  0.4354 -0.6927  1.5177
  149SAPE   C1116436   2.382   0.314  11.158 -0.0724  0.0183  0.4613
  149SAPE  H11A16437   2.291   0.250  11.165  1.1462 -1.9398 -0.8014
  149SAPE  H11B16438   2.423   0.314  11.261  1.4819 -1.7003 -0.1105
  149SAPE     P16439   2.489   0.129  10.999 -0.2190 -0.3814 -0.0677
  149SAPE   O1316440   2.598   0.055  11.053  0.5673 -1.2972 -0.5364
  149SAPE   O1416441   2.363   0.059  11.012  0.6157 -0.1619  0.2015
  149SAPE   O1216442   2.476   0.268  11.060  0.3378 -0.0553  0.3041
  149SAPE   O1116443   2.532   0.161  10.845 -0.6310  0.4217  0.1347
  149SAPE    C116444   2.444   0.257  10.787  0.6257 -0.3313  0.5221
  149SAPE    HA16445   2.337   0.232  10.801  0.4383  0.6661  0.9514
  149SAPE    HB16446   2.471   0.350  10.841  1.2271 -0.6758  0.8213
  149SAPE    C216447   2.484   0.275  10.639 -0.0443  0.3457 -0.4117
  149SAPE    HS16448   2.593   0.287  10.626  0.3050 -2.1622 -0.0040
  149SAPE   O2116449   2.426   0.392  10.584  0.5255  0.1106  0.4922
  149SAPE   C2116450   2.488   0.502  10.624 -0.6770 -0.1054  0.1256
  149SAPE   O2216451   2.591   0.503  10.695  0.3937  0.4366  0.6347
  149SAPE   C2216452   2.436   0.625  10.563  0.4414 -0.0061  0.8143
  149SAPE   H2R16453   2.332   0.617  10.525  0.9209  1.1320 -0.8268
  149SAPE   H2S16454   2.423   0.712  10.632 -1.2567 -1.0671  1.8717
  149SAPE    C316455   2.444   0.160  10.546  0.4253 -0.1687 -0.2831
  149SAPE    HX16456   2.334   0.147  10.556  0.0018  4.3795  1.9382
  149SAPE    HY16457   2.495   0.069  10.585 -0.1204 -0.0333  0.7423
  149SAPE   O3116458   2.486   0.176  10.405  0.2599 -0.1105 -0.4808
  149SAPE   C3116459   2.400   0.188  10.308  0.4430  0.9027  0.0220
  149SAPE   O3216460   2.278   0.214  10.324  0.5946  0.1060  0.5340
  149SAPE   C3216461   2.450   0.151  10.172  0.4553 -0.1631  0.3696
  149SAPE   H2X16462   2.452   0.241  10.107  1.7287 -0.3435  0.1462
  149SAPE   H2Y16463   2.364   0.091  10.134 -1.1960  1.3285  1.6546
  149SAPE   C2316464   2.522   0.673  10.438  0.2595 -0.2932  0.4436
  149SAPE   H3R16465   2.631   0.683  10.460  0.3733 -1.8497  0.6522
  149SAPE   H3S16466   2.486   0.767  10.390 -0.5116 -1.2788 -0.9509
  149SAPE   C2416467   2.530   0.577  10.314  0.5411  0.0414 -0.0318
  149SAPE   H4R16468   2.578   0.483  10.350  1.0976  0.4316  0.2524
  149SAPE   H4S16469   2.599   0.613  10.234  1.2565 -1.5433 -0.1399
  149SAPE   C2516470   2.400   0.541  10.255  0.1297  0.3144  0.0740
  149SAPE   H5R16471   2.339   0.477  10.321  0.6177  0.8527  1.0434
  149SAPE   C2616472   2.346   0.574  10.132 -0.1951  0.1232  0.9014
  149SAPE   H6R16473   2.258   0.521  10.091  1.1663 -0.7130 -1.0387
  149SAPE   C2716474   2.423   0.656  10.037 -0.1801  0.1619 -0.9066
  149SAPE   H7R16475   2.528   0.619  10.031 -0.3187 -0.3581 -0.1616
  149SAPE   H7S16476   2.441   0.752  10.089 -1.2338 -0.4399  0.6031
  149SAPE   C2816477   2.378   0.664   9.891 -0.2412  0.5495 -0.7905
  149SAPE   H8R16478   2.329   0.760   9.869 -1.0210  0.7073  1.4756
  149SAPE   C2916479   2.382   0.564   9.801  0.8099 -0.1768  0.1083
  149SAPE   H9R16480   2.351   0.590   9.699  1.2713 -0.5577 -0.1295
  149SAPE  C21016481   2.442   0.430   9.821 -1.0154  0.3930  0.1352
  149SAPE  H10R16482   2.492   0.430   9.920 -0.1899 -4.4639 -0.1696
  149SAPE  H10S16483   2.524   0.389   9.759 -0.4473 -2.9336  2.8777
  149SAPE  C21116484   2.346   0.316   9.828 -0.6325 -0.3878  0.2508
  149SAPE  H11R16485   2.314   0.285   9.929  0.8483 -2.8410  0.0205
  149SAPE  C21216486   2.296   0.239   9.730  0.1333 -0.9382 -0.2594
  149SAPE  H12R16487   2.226   0.157   9.750  0.6033 -1.4358 -0.6609
  149SAPE  C21316488   2.333   0.256   9.585 -0.0024  0.0798  0.0444
  149SAPE  H13R16489   2.406   0.339   9.574  0.4084 -0.4403 -1.3021
  149SAPE  H13S16490   2.246   0.282   9.522 -2.4538  0.5670  3.5087
  149SAPE  C21416491   2.400   0.138   9.528 -0.2955  0.3301 -0.9162
  149SAPE  H14R16492   2.409   0.055   9.600 -0.9630  0.6812 -0.4144
  149SAPE  C21516493   2.419   0.121   9.394 -0.3359  0.3913 -0.1679
  149SAPE  H15R16494   2.466   0.028   9.358 -0.9134  0.7130 -1.7879
  149SAPE  C21616495   2.377   0.213   9.286  0.0197 -0.5780 -0.4286
  149SAPE  H16R16496   2.418   0.314   9.308 -0.6480 -0.1232 -1.1780
  149SAPE  H16S16497   2.266   0.216   9.273 -0.1817 -1.6966  1.0041
  149SAPE  C21716498   2.433   0.175   9.146  0.1453 -0.5962 -0.1995
  149SAPE  H17R16499   2.543   0.157   9.148  0.6092  2.0569  0.3885
  149SAPE  H17S16500   2.419   0.262   9.079  0.0625  0.0384  0.6448
  149SAPE  C21816501   2.370   0.049   9.087 -0.0705 -0.1843 -0.0338
  149SAPE  H18R16502   2.262   0.069   9.068  0.2864  0.2059 -1.7717
  149SAPE  H18S16503   2.380  -0.035   9.160 -0.9530 -0.5964 -0.3766
  149SAPE  C21916504   2.442   0.001   8.960  0.0649  0.7928  0.4582
  149SAPE  H19R16505   2.543  -0.037   8.986  0.4343  0.5264 -1.2988
  149SAPE  H19S16506   2.453   0.080   8.882  1.3271  1.4926  1.3168
  149SAPE  C22016507   2.371  -0.119   8.886  0.0014 -0.4924 -0.0539
  149SAPE  H20R16508   2.437  -0.145   8.801  1.9188  2.2951  0.5520
  149SAPE  H20S16509   2.269  -0.080   8.861 -1.3026 -1.8166  2.9710
  149SAPE  H20T16510   2.354  -0.209   8.949  2.0129 -0.7622  0.1350
  149SAPE   C3316511   2.587   0.073  10.162 -0.6663 -0.4302 -0.0420
  149SAPE   H3X16512   2.584  -0.003  10.243 -0.5089 -0.8188 -0.3977
  149SAPE   H3Y16513   2.674   0.142  10.175 -1.4270  0.4045  0.6128
  149SAPE   C3416514   2.613  -0.002  10.032  0.2855  0.4898 -0.6095
  149SAPE   H4X16515   2.523  -0.052   9.992 -0.1638  0.4694  0.4094
  149SAPE   H4Y16516   2.693  -0.077  10.048 -0.3523 -0.2643 -0.9488
  149SAPE   C3516517   2.678   0.089   9.925  0.0663  0.2232  0.3102
  149SAPE   H5X16518   2.781   0.095   9.966 -0.5046  1.8723  1.5837
  149SAPE   H5Y16519   2.635   0.192   9.925 -1.0155 -0.1955 -2.2565
  149SAPE   C3616520   2.658   0.033   9.783 -0.9306  0.3527 -0.4689
  149SAPE   H6X16521   2.550   0.041   9.760 -1.1228 -1.8212 -0.5070
  149SAPE   H6Y16522   2.675  -0.077   9.787  1.5943  0.6730 -1.6820
  149SAPE   C3716523   2.744   0.088   9.663  0.8020 -0.3264  0.0431
  149SAPE   H7X16524   2.850   0.108   9.689  1.1532  0.4344 -1.8747
  149SAPE   H7Y16525   2.702   0.185   9.628 -0.3147 -1.0520 -0.6714
  149SAPE   C3816526   2.744  -0.012   9.549 -0.9888 -0.4680  0.9574
  149SAPE   H8X16527   2.636  -0.019   9.524 -1.0543  0.4923  0.9740
  149SAPE   H8Y16528   2.785  -0.110   9.581  1.9578 -0.4227 -2.3415
  149SAPE   C3916529   2.809   0.057   9.425  0.1240  0.6583 -0.0819
  149SAPE   H9X16530   2.884   0.129   9.465  0.6680  0.1932 -0.2606
  149SAPE   H9Y16531   2.719   0.106   9.382  0.8667  1.6415 -0.5225
  149SAPE  C31016532   2.865  -0.031   9.316  0.5669 -0.5034 -0.5436
  149SAPE  H10X16533   2.864  -0.139   9.340 -1.3771 -0.4474 -0.2699
  149SAPE  H10Y16534   2.973  -0.007   9.313  0.8092 -0.9317  2.8404
  149SAPE  C31116535   2.814  -0.004   9.170  0.6534 -0.0270 -0.0295
  149SAPE  H11X16536   2.819   0.103   9.142 -2.2217 -0.0770 -0.9307
  149SAPE  H11Y16537   2.713  -0.051   9.167  0.1300  0.9982  1.1543
  149SAPE  C31216538   2.912  -0.080   9.073  0.4520 -0.2540 -0.1972
  149SAPE  H12X16539   2.931  -0.179   9.119 -0.2840  0.3724  1.4995
  149SAPE  H12Y16540   3.009  -0.026   9.069 -1.4687  3.4075  0.1119
  149SAPE  C31316541   2.859  -0.096   8.931 -0.2562  0.2167 -0.3846
  149SAPE  H13X16542   2.767  -0.158   8.934 -0.0980 -0.0176 -0.3505
  149SAPE  H13Y16543   2.941  -0.151   8.879  0.1646  1.4749 -1.0834
  149SAPE  C31416544   2.831   0.041   8.860 -0.4102  0.5212 -0.0242
  149SAPE  H14X16545   2.925   0.095   8.837 -0.7886  1.2636  0.1672
  149SAPE  H14Y16546   2.770   0.102   8.929 -2.1257  1.4516 -2.3074
  149SAPE  C31516547   2.752   0.042   8.725 -0.5518  0.0989  0.2001
  149SAPE  H15X16548   2.654  -0.005   8.750 -0.8133  1.0121  0.9052
  149SAPE  H15Y16549   2.806  -0.027   8.656 -1.1119 -0.8407  0.6840
  149SAPE  C31616550   2.733   0.184   8.676 -0.1930  0.6299 -0.6575
  149SAPE  H16X16551   2.745   0.246   8.768  5.0065 -2.7192  1.1189
  149SAPE  H16Y16552   2.631   0.206   8.639 -2.0505  0.3256  3.8784
  149SAPE  C31716553   2.841   0.230   8.575  0.5926 -0.2922 -0.4621
  149SAPE  H17X16554   2.930   0.167   8.595  0.2604 -1.2401 -1.8691
  149SAPE  H17Y16555   2.858   0.337   8.598  1.4870 -0.1770 -1.6015
  149SAPE  C31816556   2.808   0.236   8.423 -0.3186 -0.5768 -0.5547
  149SAPE  H18X16557   2.718   0.299   8.409  0.6197  1.0675  0.5690
  149SAPE  H18Y16558   2.789   0.138   8.374 -0.0312 -1.6225  1.3635
  149SAPE  H18Z16559   2.890   0.284   8.366 -0.4414 -1.8352 -1.8152
  150SAPE     N16560   4.135   6.786  10.687 -0.6178 -0.6422 -0.1589
  150SAPE   HN116561   4.206   6.780  10.763 -1.4103 -1.5601  0.5156
  150SAPE   HN216562   4.126   6.701  10.628 -1.6635 -0.0611 -0.8552
  150SAPE   HN316563   4.154   6.871  10.631  0.9188 -0.1584  1.0405
  150SAPE   C1216564   4.004   6.815  10.758  0.2810  0.6096 -0.0353
  150SAPE  H12A16565   3.939   6.877  10.692 -0.8644  2.4080  2.6723
  150SAPE  H12B16566   4.019   6.892  10.837  1.0079  1.7098 -1.2238
  150SAPE   C1116567   3.940   6.694  10.808 -0.1665  0.4686 -0.0072
  150SAPE  H11A16568   3.912   6.627  10.724  3.1671 -0.0371 -0.7793
  150SAPE  H11B16569   3.847   6.725  10.861  0.4436 -0.6195  1.7462
  150SAPE     P16570   4.102   6.493  10.885 -0.1848  0.0529  0.1907
  150SAPE   O1316571   4.196   6.476  11.001 -0.2682 -0.7448  0.2357
  150SAPE   O1416572   4.009   6.380  10.862 -0.1201  0.1008 -0.0102
  150SAPE   O1216573   4.021   6.627  10.904  0.1241 -0.6235 -0.1765
  150SAPE   O1116574   4.181   6.522  10.754 -0.4309  0.1550 -0.2364
  150SAPE    C116575   4.313   6.472  10.735 -0.1527  0.2264  0.4278
  150SAPE    HA16576   4.385   6.506  10.813  0.4363  0.5271 -0.2412
  150SAPE    HB16577   4.319   6.362  10.749  3.0369  0.3657  0.5257
  150SAPE    C216578   4.366   6.511  10.593 -0.1805  0.0585 -0.0516
  150SAPE    HS16579   4.353   6.618  10.568  2.7154  0.6622  0.8857
  150SAPE   O2116580   4.298   6.432  10.487  0.2554 -0.5441 -0.5192
  150SAPE   C2116581   4.187   6.480  10.441 -0.5105 -0.5151 -0.1300
  150SAPE   O2216582   4.128   6.577  10.481  0.4362  0.1202 -0.2481
  150SAPE   C2216583   4.142   6.382  10.335  0.2447  0.0146  0.4108
  150SAPE   H2R16584   4.225   6.371  10.262  0.1129  0.7372  0.1517
  150SAPE   H2S16585   4.127   6.286  10.388 -1.9518  1.1673  1.9743
  150SAPE    C316586   4.515   6.475  10.580 -0.0825 -1.0065 -0.6352
  150SAPE    HX16587   4.514   6.364  10.572  1.0622 -1.0856  0.1625
  150SAPE    HY16588   4.572   6.514  10.667 -0.5503  0.1512 -0.8446
  150SAPE   O3116589   4.563   6.527  10.460 -1.1092 -0.0696 -0.1764
  150SAPE   C3116590   4.685   6.485  10.413  0.1984 -0.0833  0.2421
  150SAPE   O3216591   4.762   6.406  10.460  0.0982 -0.3827  0.6497
  150SAPE   C3216592   4.699   6.555  10.275 -0.1207  0.0890  0.6538
  150SAPE   H2X16593   4.806   6.560  10.244 -0.6729  1.5973 -1.0999
  150SAPE   H2Y16594   4.658   6.658  10.283 -0.8323 -0.1184 -0.4077
  150SAPE   C2316595   4.018   6.435  10.263  0.8299  0.1847  0.6120
  150SAPE   H3R16596   4.037   6.536  10.221  0.8926  0.1562  0.5736
  150SAPE   H3S16597   3.930   6.446  10.330  0.2345 -1.6202  0.1593
  150SAPE   C2416598   3.999   6.341  10.139 -0.1617  0.4256 -0.0390
  150SAPE   H4R16599   3.995   6.235  10.172  0.7873  0.9393  1.7968
  150SAPE   H4S16600   4.096   6.355  10.086 -1.0993  0.7636 -1.7104
  150SAPE   C2516601   3.875   6.375  10.065 -0.2775  0.0069  0.7281
  150SAPE   H5R16602   3.783   6.386  10.125  0.3179  1.2079  1.4360
  150SAPE   C2616603   3.853   6.377   9.932  0.6826 -0.1194  0.1915
  150SAPE   H6R16604   3.763   6.429   9.897 -0.2056 -0.6257  1.6763
  150SAPE   C2716605   3.953   6.351   9.823 -0.8606  0.0645  0.6724
  150SAPE   H7R16606   4.035   6.286   9.861 -0.0038  2.5184  3.2033
  150SAPE   H7S16607   3.997   6.453   9.816 -1.3100  0.2534  0.5355
  150SAPE   C2816608   3.891   6.310   9.692 -0.0764  1.0216 -0.1126
  150SAPE   H8R16609   3.833   6.217   9.694 -0.2682  1.1094 -1.2385
  150SAPE   C2916610   3.893   6.378   9.579 -0.2931  0.6505 -0.0820
  150SAPE   H9R16611   3.847   6.331   9.491  2.2183 -0.8964 -0.6393
  150SAPE  C21016612   3.954   6.513   9.556  0.1136 -0.6097  0.1714
  150SAPE  H10R16613   3.969   6.582   9.641 -2.3421 -0.6686  0.6935
  150SAPE  H10S16614   3.889   6.565   9.481 -0.4504  1.5570  2.1144
  150SAPE  C21116615   4.094   6.486   9.506 -0.2871  0.0969 -0.3609
  150SAPE  H11R16616   4.149   6.399   9.545  0.9543  0.1651 -1.8692
  150SAPE  C21216617   4.159   6.545   9.403  0.0359 -0.1654 -0.4787
  150SAPE  H12R16618   4.259   6.504   9.383  1.0509  1.7075  0.6092
  150SAPE  C21316619   4.119   6.668   9.331  0.2174  0.1558 -0.2932
  150SAPE  H13R16620   4.195   6.749   9.343  1.3473 -0.6680 -1.6957
  150SAPE  H13S16621   4.024   6.705   9.375 -0.0186 -1.0668  0.2428
  150SAPE  C21416622   4.117   6.641   9.183 -0.3100 -0.5174  0.2826
  150SAPE  H14R16623   4.212   6.640   9.127 -0.6219 -1.6431 -0.2399
  150SAPE  C21516624   4.010   6.608   9.110  0.7250  0.0311  0.3249
  150SAPE  H15R16625   4.020   6.584   9.004 -1.6184  1.7224 -0.3239
  150SAPE  C21616626   3.863   6.592   9.149  0.5061  0.2891 -0.1864
  150SAPE  H16R16627   3.845   6.611   9.257 -1.6537 -2.6390  0.0233
  150SAPE  H16S16628   3.844   6.484   9.133  1.6426  0.0259  0.1896
  150SAPE  C21716629   3.752   6.677   9.079 -0.3193 -0.2555 -0.1433
  150SAPE  H17R16630   3.799   6.776   9.095 -0.1841 -0.4986  1.0484
  150SAPE  H17S16631   3.652   6.676   9.127 -0.3689  1.3067 -0.1907
  150SAPE  C21816632   3.750   6.632   8.932 -0.5613 -0.0147  0.1958
  150SAPE  H18R16633   3.853   6.621   8.891 -0.4906  0.3858  0.2582
  150SAPE  H18S16634   3.682   6.696   8.871  0.2210  0.1522 -0.5125
  150SAPE  C21916635   3.701   6.487   8.904  0.6029  0.3338 -0.8172
  150SAPE  H19R16636   3.603   6.475   8.955  1.0470  3.4505  0.8892
  150SAPE  H19S16637   3.755   6.408   8.960 -0.2750 -1.3750 -2.3273
  150SAPE  C22016638   3.696   6.463   8.757 -0.5900 -0.2346 -0.2906
  150SAPE  H20R16639   3.617   6.530   8.717 -0.0881  0.1112 -0.6897
  150SAPE  H20S16640   3.681   6.357   8.727  2.2263 -0.3967 -1.2812
  150SAPE  H20T16641   3.796   6.491   8.718 -0.8036  2.7116  1.1321
  150SAPE   C3316642   4.625   6.470  10.171 -0.5017 -1.1707 -0.3785
  150SAPE   H3X16643   4.518   6.471  10.198 -1.4988  0.8632 -4.0103
  150SAPE   H3Y16644   4.658   6.364  10.164 -1.3170 -1.3861 -0.9727
  150SAPE   C3416645   4.635   6.546  10.035 -0.3169 -0.1624 -0.1582
  150SAPE   H4X16646   4.739   6.576  10.010 -0.5015 -0.3912 -1.2125
  150SAPE   H4Y16647   4.586   6.641  10.064  0.1873 -0.6613  2.4950
  150SAPE   C3516648   4.578   6.481   9.912  0.6344 -1.0433  0.4044
  150SAPE   H5X16649   4.561   6.550   9.827  2.5432 -0.6526  0.3280
  150SAPE   H5Y16650   4.485   6.430   9.947 -0.5191  0.1667 -0.8454
  150SAPE   C3616651   4.677   6.376   9.848  0.2016  0.1502  0.1742
  150SAPE   H6X16652   4.710   6.310   9.931  0.9204  1.3138  0.8213
  150SAPE   H6Y16653   4.766   6.436   9.820 -0.2117 -0.4247 -2.5219
  150SAPE   C3716654   4.641   6.308   9.721  0.1211  0.7709 -0.4332
  150SAPE   H7X16655   4.550   6.245   9.734  2.1454 -1.7659  2.0587
  150SAPE   H7Y16656   4.730   6.246   9.702 -0.2354  0.2004 -0.2475
  150SAPE   C3816657   4.626   6.402   9.597  0.5279  0.3693 -0.5692
  150SAPE   H8X16658   4.722   6.457   9.590  1.9019 -1.2932  3.3062
  150SAPE   H8Y16659   4.570   6.492   9.631 -0.5333 -0.7865  0.8491
  150SAPE   C3916660   4.579   6.331   9.466 -0.4013  0.1522  0.0183
  150SAPE   H9X16661   4.473   6.299   9.471  0.1612 -1.7381  0.4143
  150SAPE   H9Y16662   4.636   6.235   9.464  2.9579  2.0410  0.6349
  150SAPE  C31016663   4.595   6.405   9.332 -0.0369 -0.2094 -0.4138
  150SAPE  H10X16664   4.703   6.403   9.307 -0.7275 -1.5958 -3.4829
  150SAPE  H10Y16665   4.552   6.506   9.348  0.0247 -0.6880  3.1505
  150SAPE  C31116666   4.518   6.331   9.228  0.7626  0.1398  0.7467
  150SAPE  H11X16667   4.410   6.326   9.257  0.9207  1.4629  1.6036
  150SAPE  H11Y16668   4.553   6.225   9.230 -0.8112 -0.4011  2.4791
  150SAPE  C31216669   4.518   6.389   9.084  0.6284  0.1843 -0.4613
  150SAPE  H12X16670   4.622   6.419   9.058  1.7242 -3.0072  0.0184
  150SAPE  H12Y16671   4.459   6.481   9.069  0.2868  0.1227  0.5231
  150SAPE  C31316672   4.475   6.280   8.980  0.0485  0.2875  1.1523
  150SAPE  H13X16673   4.381   6.233   9.017  0.7988 -3.3977 -1.3313
  150SAPE  H13Y16674   4.545   6.195   8.998  0.8443  0.8219  0.5870
  150SAPE  C31416675   4.468   6.329   8.834 -0.6229  0.4047  0.1396
  150SAPE  H14X16676   4.456   6.242   8.765  1.8109 -0.1176  0.3498
  150SAPE  H14Y16677   4.563   6.384   8.826  0.0335 -0.8432 -0.7572
  150SAPE  C31516678   4.361   6.435   8.813  1.0181  0.1559 -0.3183
  150SAPE  H15X16679   4.357   6.500   8.902 -1.3176  1.9776 -1.6787
  150SAPE  H15Y16680   4.258   6.396   8.799  1.4849 -0.2514 -2.8813
  150SAPE  C31616681   4.378   6.522   8.692  0.4672  0.4571 -1.1473
  150SAPE  H16X16682   4.295   6.593   8.709 -0.7729 -1.8160  3.2246
  150SAPE  H16Y16683   4.366   6.458   8.602  0.7834 -1.2673  0.0087
  150SAPE  C31716684   4.525   6.588   8.687 -0.2676 -0.1512  0.1782
  150SAPE  H17X16685   4.604   6.511   8.673  2.3736  2.3829  0.5066
  150SAPE  H17Y16686   4.537   6.649   8.779  2.0844  2.1983 -1.5836
  150SAPE  C31816687   4.536   6.696   8.572 -0.2126  0.2246 -0.9023
  150SAPE  H18X16688   4.641   6.729   8.554  0.2921  0.5441  2.2906
  150SAPE  H18Y16689   4.480   6.784   8.610  2.8472  2.0661 -0.4414
  150SAPE  H18Z16690   4.501   6.657   8.474 -2.5414 -0.7743  0.2673
  151SAPE     N16691   1.595   3.053  10.172  0.1817  0.3408  0.4760
  151SAPE   HN116692   1.521   3.051  10.245 -0.2640 -2.1209  0.0014
  151SAPE   HN216693   1.579   3.141  10.118  1.2877 -0.0712 -0.5414
  151SAPE   HN316694   1.582   2.967  10.116  0.3373  0.0161  0.9289
  151SAPE   C1216695   1.718   3.042  10.253 -0.3494 -0.9843  0.9955
  151SAPE  H12A16696   1.812   3.061  10.197 -0.3138 -1.1420  1.0036
  151SAPE  H12B16697   1.735   2.940  10.292  0.5550 -0.4919  1.9389
  151SAPE   C1116698   1.704   3.131  10.380 -0.3807  1.1013 -0.0395
  151SAPE  H11A16699   1.724   3.231  10.336 -0.2473  0.4450 -1.5039
  151SAPE  H11B16700   1.778   3.104  10.458 -2.7008 -0.7264  1.6013
  151SAPE     P16701   1.472   3.236  10.451 -0.0980  0.1479 -0.2819
  151SAPE   O1316702   1.347   3.196  10.381  0.5532  1.0203  0.5540
  151SAPE   O1416703   1.460   3.272  10.593 -0.3182  0.8977  0.2062
  151SAPE   O1216704   1.581   3.118  10.439  0.6478  0.2056  0.7485
  151SAPE   O1116705   1.525   3.357  10.366 -0.4920 -0.1616  0.4929
  151SAPE    C116706   1.473   3.490  10.395 -0.2418 -0.4673  0.0961
  151SAPE    HA16707   1.382   3.482  10.459 -0.5383  1.5998 -0.0420
  151SAPE    HB16708   1.546   3.547  10.456 -1.6331 -0.1618  1.5178
  151SAPE    C216709   1.438   3.568  10.265 -0.3024  0.7297  0.1395
  151SAPE    HS16710   1.385   3.658  10.303 -1.3822  0.7926 -1.4667
  151SAPE   O2116711   1.357   3.485  10.173  0.8320 -0.0159 -0.1020
  151SAPE   C2116712   1.224   3.483  10.204 -0.2869 -0.0598  0.0234
  151SAPE   O2216713   1.176   3.533  10.307  0.2417  0.0316 -0.0131
  151SAPE   C2216714   1.144   3.425  10.086  0.6185  0.1690 -0.1193
  151SAPE   H2R16715   1.216   3.408  10.003  3.3117  0.3927  2.0948
  151SAPE   H2S16716   1.099   3.333  10.129  0.8046 -1.5003 -3.4050
  151SAPE    C316717   1.569   3.612  10.182  0.2232  0.2274 -0.2854
  151SAPE    HX16718   1.616   3.519  10.145 -2.3259 -1.0728 -0.3553
  151SAPE    HY16719   1.632   3.662  10.259 -1.9844 -0.7644  2.2327
  151SAPE   O3116720   1.538   3.706  10.071 -0.0807 -0.0728  0.1370
  151SAPE   C3116721   1.617   3.807  10.066  0.1605  0.3925 -0.0691
  151SAPE   O3216722   1.713   3.835  10.134  0.1831  0.1886 -0.3117
  151SAPE   C3216723   1.586   3.894   9.940  0.5517 -0.1787  0.3367
  151SAPE   H2X16724   1.687   3.926   9.909  0.3255  0.0724 -0.1489
  151SAPE   H2Y16725   1.522   3.979   9.973  0.0815 -1.0618  1.7800
  151SAPE   C2316726   1.035   3.521  10.030  0.8145 -0.2865  0.1703
  151SAPE   H3R16727   0.974   3.566  10.111 -1.3405  0.3103 -1.7335
  151SAPE   H3S16728   0.972   3.468   9.956  1.8168 -0.0577 -0.8721
  151SAPE   C2416729   1.102   3.634   9.958 -0.2541  0.8366  0.0071
  151SAPE   H4R16730   1.179   3.588   9.892 -1.5180 -0.2885 -0.7143
  151SAPE   H4S16731   1.159   3.706  10.020 -2.7231  1.5027  1.5369
  151SAPE   C2516732   0.997   3.710   9.884 -0.1334  0.2459  0.6342
  151SAPE   H5R16733   0.938   3.783   9.941 -1.8276  0.4754 -1.3208
  151SAPE   C2616734   0.982   3.712   9.754 -0.2536 -0.1310 -0.3313
  151SAPE   H6R16735   0.893   3.757   9.707  0.3831  0.1306 -1.3125
  151SAPE   C2716736   1.060   3.638   9.648 -0.3159  0.1558  1.8397
  151SAPE   H7R16737   1.150   3.591   9.694  0.7499  0.8972  0.5446
  151SAPE   H7S16738   1.110   3.703   9.574 -0.8496 -1.7015 -0.2003
  151SAPE   C2816739   0.988   3.523   9.594  0.1207 -0.4835 -0.3131
  151SAPE   H8R16740   0.964   3.441   9.663 -1.8051  0.7778  0.5298
  151SAPE   C2916741   0.947   3.510   9.471 -0.0495 -0.6072  0.3103
  151SAPE   H9R16742   0.911   3.409   9.448 -0.4646 -0.4094  0.0774
  151SAPE  C21016743   0.966   3.604   9.359 -0.8820 -0.3345  0.3844
  151SAPE  H10R16744   0.931   3.706   9.386  0.6593 -0.2647  2.2557
  151SAPE  H10S16745   0.899   3.574   9.276 -2.6158  0.0054  1.6359
  151SAPE  C21116746   1.110   3.621   9.306 -0.2136  0.4827  0.3230
  151SAPE  H11R16747   1.181   3.635   9.390  1.1929 -1.1288 -0.5711
  151SAPE  C21216748   1.164   3.650   9.185  0.0546  0.2029 -0.3747
  151SAPE  H12R16749   1.274   3.645   9.173  0.5260  3.8858  1.7509
  151SAPE  C21316750   1.092   3.660   9.051  0.0898 -0.2264  0.6908
  151SAPE  H13R16751   1.161   3.715   8.984 -0.0526 -0.6177  0.2215
  151SAPE  H13S16752   1.004   3.725   9.070  0.0420 -0.5627  1.6744
  151SAPE  C21416753   1.052   3.522   8.994  0.6598  0.0400 -0.1271
  151SAPE  H14R16754   1.012   3.458   9.074  2.7364 -1.3828 -0.1986
  151SAPE  C21516755   1.068   3.477   8.868  0.0033 -0.9037  0.3813
  151SAPE  H15R16756   1.029   3.377   8.841 -3.1957  0.2497  0.5119
  151SAPE  C21616757   1.139   3.542   8.752  0.7338 -0.6293 -0.1370
  151SAPE  H16R16758   1.180   3.462   8.686 -0.3483 -0.7975 -0.6243
  151SAPE  H16S16759   1.230   3.591   8.793 -0.2251  1.0450 -0.0025
  151SAPE  C21716760   1.055   3.641   8.671  0.0123  0.2393  0.0707
  151SAPE  H17R16761   1.028   3.721   8.742  1.1756  0.5649  0.1663
  151SAPE  H17S16762   0.957   3.592   8.655  0.6016 -0.9988  0.1820
  151SAPE  C21816763   1.133   3.687   8.548 -0.1649  0.2419  0.1030
  151SAPE  H18R16764   1.161   3.599   8.486 -1.8722 -0.1627 -0.1373
  151SAPE  H18S16765   1.231   3.731   8.576  1.2685 -2.9964  0.4516
  151SAPE  C21916766   1.045   3.767   8.455  0.2170 -0.5081 -0.3567
  151SAPE  H19R16767   0.954   3.707   8.434  0.9234 -1.6357 -0.2588
  151SAPE  H19S16768   1.106   3.772   8.363  2.3240  0.4234  1.0458
  151SAPE  C22016769   1.016   3.910   8.507  0.1134  0.8816 -0.3739
  151SAPE  H20R16770   1.113   3.955   8.537  0.0785  0.0803  1.0063
  151SAPE  H20S16771   0.942   3.923   8.589  0.7072 -1.6436  0.6140
  151SAPE  H20T16772   0.963   3.971   8.430 -0.6665  2.6555  1.5188
  151SAPE   C3316773   1.540   3.821   9.805 -0.8312 -0.9969  0.0451
  151SAPE   H3X16774   1.437   3.779   9.811 -0.6399 -1.6382 -1.0988
  151SAPE   H3Y16775   1.604   3.733   9.783 -1.8365 -1.6759 -0.2000
  151SAPE   C3416776   1.550   3.928   9.691  0.3139 -0.4914 -0.3968
  151SAPE   H4X16777   1.659   3.950   9.690  0.1925  0.1824  0.7007
  151SAPE   H4Y16778   1.493   4.021   9.710  1.0811 -0.0762 -0.1203
  151SAPE   C3516779   1.499   3.871   9.562  0.2631  0.0800  0.4929
  151SAPE   H5X16780   1.391   3.844   9.562 -0.4569  2.7230 -0.3629
  151SAPE   H5Y16781   1.549   3.772   9.560 -0.8325 -0.4728 -0.3444
  151SAPE   C3616782   1.529   3.948   9.434  0.2377  0.1279  0.0391
  151SAPE   H6X16783   1.639   3.941   9.421  0.1078  0.1432 -1.1137
  151SAPE   H6Y16784   1.507   4.057   9.448  2.5693  0.1688  4.0499
  151SAPE   C3716785   1.463   3.890   9.309  0.0220  0.1274  0.0126
  151SAPE   H7X16786   1.352   3.882   9.316  0.0512  0.1168  0.5065
  151SAPE   H7Y16787   1.496   3.785   9.297 -2.3362 -0.6595  0.0697
  151SAPE   C3816788   1.493   3.968   9.179 -0.0525  0.0261  0.6430
  151SAPE   H8X16789   1.600   3.997   9.184  0.0274 -0.1897  0.1799
  151SAPE   H8Y16790   1.428   4.058   9.179  0.4589  0.3976  0.7773
  151SAPE   C3916791   1.454   3.902   9.043 -0.8320 -0.2480  0.1862
  151SAPE   H9X16792   1.350   3.863   9.048 -0.9662  0.1817  0.8215
  151SAPE   H9Y16793   1.521   3.816   9.019  1.7293  1.7993 -0.2535
  151SAPE  C31016794   1.458   4.005   8.929 -0.6019 -0.1974 -0.2193
  151SAPE  H10X16795   1.550   4.066   8.936 -0.5965 -0.2057 -0.2202
  151SAPE  H10Y16796   1.381   4.083   8.947  1.4442  1.0535  3.5637
  151SAPE  C31116797   1.426   3.929   8.804  0.3986 -0.1157  0.0294
  151SAPE  H11X16798   1.325   3.886   8.817 -0.2444  1.2340 -0.4819
  151SAPE  H11Y16799   1.497   3.843   8.792 -0.0731 -0.5938  0.6100
  151SAPE  C31216800   1.431   4.016   8.675  0.2945 -0.4650 -0.3932
  151SAPE  H12X16801   1.339   4.077   8.669  0.0687 -0.8515 -0.8322
  151SAPE  H12Y16802   1.431   3.941   8.593  0.1625  0.0660 -0.8770
  151SAPE  C31316803   1.556   4.103   8.670  0.4324  0.0041  0.0406
  151SAPE  H13X16804   1.639   4.033   8.694  0.1312 -0.2102  0.4699
  151SAPE  H13Y16805   1.566   4.167   8.761  3.8915 -0.7949  0.3177
  151SAPE  C31416806   1.553   4.179   8.538  0.2244 -0.0598 -0.2436
  151SAPE  H14X16807   1.455   4.230   8.526  1.1414  1.2549 -2.2765
  151SAPE  H14Y16808   1.555   4.105   8.456  0.3176  0.0876 -0.3746
  151SAPE  C31516809   1.666   4.275   8.538  1.0826  0.0813  0.4536
  151SAPE  H15X16810   1.762   4.221   8.542  0.5353 -1.0891 -1.3219
  151SAPE  H15Y16811   1.657   4.327   8.636 -1.5131 -0.9042  0.7767
  151SAPE  C31616812   1.690   4.368   8.412  0.3806 -0.3407 -0.1400
  151SAPE  H16X16813   1.595   4.411   8.375  0.8273 -0.1758 -1.1175
  151SAPE  H16Y16814   1.723   4.293   8.337 -0.7692 -0.9298 -0.0785
  151SAPE  C31716815   1.805   4.467   8.429 -0.2548  0.4243  0.3045
  151SAPE  H17X16816   1.885   4.408   8.480  1.1538  2.4437  0.4693
  151SAPE  H17Y16817   1.772   4.542   8.503  2.9679  1.2589  0.9405
  151SAPE  C31816818   1.875   4.524   8.297  0.3934 -0.1722 -0.7309
  151SAPE  H18X16819   1.944   4.609   8.317  0.0877 -0.1843  0.4306
  151SAPE  H18Y16820   1.792   4.567   8.237 -0.2691 -2.0712 -1.2016
  151SAPE  H18Z16821   1.926   4.446   8.236 -1.9042 -2.9905  0.8112
  152SAPE     N16822   2.074   3.060  10.758 -0.2658 -1.1261 -0.0934
  152SAPE   HN116823   2.041   2.988  10.825 -0.1963 -2.2575 -1.2560
  152SAPE   HN216824   1.986   3.113  10.747 -0.6506 -1.0015  3.2148
  152SAPE   HN316825   2.095   3.015  10.667  1.0078  0.4801 -0.6293
  152SAPE   C1216826   2.205   3.131  10.803 -0.5498  0.2958  1.0073
  152SAPE  H12A16827   2.233   3.087  10.902 -0.2124  1.2744  1.3449
  152SAPE  H12B16828   2.182   3.239  10.811 -1.8399  0.2417 -1.5727
  152SAPE   C1116829   2.322   3.104  10.707 -0.1843  1.0290 -0.1379
  152SAPE  H11A16830   2.408   3.157  10.753  1.2549 -0.5904 -0.9049
  152SAPE  H11B16831   2.297   3.144  10.606 -2.2874 -1.0387 -0.4845
  152SAPE     P16832   2.499   2.916  10.644 -0.1766  0.0247 -0.0988
  152SAPE   O1316833   2.595   2.978  10.744 -0.5225 -0.0213 -0.0824
  152SAPE   O1416834   2.501   2.767  10.637 -0.5147  0.0812  0.0219
  152SAPE   O1216835   2.355   2.966  10.696 -0.8057 -0.0199 -0.1719
  152SAPE   O1116836   2.515   2.981  10.504 -0.0050  0.2502  0.3614
  152SAPE    C116837   2.426   2.964  10.398 -0.6202  0.4282 -0.6377
  152SAPE    HA16838   2.321   2.968  10.435 -1.5754 -1.2300 -3.0870
  152SAPE    HB16839   2.428   3.050  10.328 -0.5760  0.0059 -1.1605
  152SAPE    C216840   2.455   2.839  10.313 -0.7666 -0.2699  0.0170
  152SAPE    HS16841   2.430   2.746  10.366 -1.5234  0.2738  0.6224
  152SAPE   O2116842   2.591   2.841  10.267 -0.2266 -0.8259 -0.0571
  152SAPE   C2116843   2.652   2.730  10.248  0.2920  0.0571 -0.2069
  152SAPE   O2216844   2.616   2.617  10.295 -0.1528 -0.1825  0.1118
  152SAPE   C2216845   2.763   2.765  10.155  0.8414  0.1407  0.7410
  152SAPE   H2R16846   2.731   2.845  10.084 -2.8393 -1.3426  0.5861
  152SAPE   H2S16847   2.853   2.796  10.212  0.4477  2.8774 -0.0915
  152SAPE    C316848   2.363   2.848  10.187  0.3803 -0.4618  0.4822
  152SAPE    HX16849   2.376   2.951  10.148  1.6696 -1.6148 -2.2824
  152SAPE    HY16850   2.255   2.851  10.212  0.4909  0.8112  0.8427
  152SAPE   O3116851   2.388   2.740  10.092  0.3007 -0.3208 -0.1986
  152SAPE   C3116852   2.319   2.628  10.116  0.2081 -0.2129  0.0792
  152SAPE   O3216853   2.253   2.608  10.219 -0.2850  1.2128  0.0478
  152SAPE   C3216854   2.335   2.534   9.996 -0.0488 -1.0536  0.0020
  152SAPE   H2X16855   2.290   2.575   9.903 -0.1704 -1.8874 -0.3064
  152SAPE   H2Y16856   2.295   2.434  10.022  0.2844 -0.6810  2.0510
  152SAPE   C2316857   2.803   2.658  10.054  0.5955 -0.3984  0.3864
  152SAPE   H3R16858   2.726   2.633   9.978  2.2623 -0.0422 -1.4619
  152SAPE   H3S16859   2.839   2.563  10.100  1.5625 -0.7000 -0.9599
  152SAPE   C2416860   2.917   2.701   9.962 -0.5785 -0.2057 -0.0240
  152SAPE   H4R16861   2.954   2.615   9.903  1.1019  1.2281 -1.1031
  152SAPE   H4S16862   2.991   2.738  10.036  0.0592  1.2466 -1.3490
  152SAPE   C2516863   2.902   2.811   9.863 -0.6860  0.0963  0.2065
  152SAPE   H5R16864   2.857   2.905   9.897  0.8129  0.9514 -0.1399
  152SAPE   C2616865   2.909   2.798   9.724 -0.4189  0.4678  0.0251
  152SAPE   H6R16866   2.898   2.886   9.659  0.4015  0.6363  0.0999
  152SAPE   C2716867   2.939   2.676   9.641  0.4435  0.3871 -0.0460
  152SAPE   H7R16868   2.852   2.658   9.576 -0.1462 -0.7663  1.0523
  152SAPE   H7S16869   2.962   2.582   9.695  2.3159  0.0701 -1.3464
  152SAPE   C2816870   3.052   2.700   9.540 -0.1706  0.7625  0.1045
  152SAPE   H8R16871   3.151   2.668   9.577 -1.6346 -0.2111  3.2987
  152SAPE   C2916872   3.044   2.748   9.417 -0.2107  0.5770 -0.5378
  152SAPE   H9R16873   3.140   2.750   9.364  0.3533  2.0529  0.5273
  152SAPE  C21016874   2.918   2.777   9.334 -0.7125 -0.6802 -0.0925
  152SAPE  H10R16875   2.943   2.851   9.254  0.0582 -0.9326 -0.0910
  152SAPE  H10S16876   2.858   2.840   9.402  1.7515  0.2566  1.2699
  152SAPE  C21116877   2.842   2.660   9.285 -0.1391  0.4366  0.4220
  152SAPE  H11R16878   2.824   2.585   9.364  1.3147 -1.2141 -0.7792
  152SAPE  C21216879   2.804   2.623   9.160  0.5623 -0.0616  0.3280
  152SAPE  H12R16880   2.736   2.536   9.154  0.9365 -0.2831 -0.8639
  152SAPE  C21316881   2.810   2.695   9.025 -0.5545 -0.2714 -0.6994
  152SAPE  H13R16882   2.800   2.805   9.040  0.9033 -0.1030 -0.9090
  152SAPE  H13S16883   2.722   2.673   8.960 -0.2465 -1.7816 -0.6031
  152SAPE  C21416884   2.937   2.678   8.952  0.2563  0.0485  0.1295
  152SAPE  H14R16885   3.017   2.620   9.000  1.0454  1.1671  0.1876
  152SAPE  C21516886   2.962   2.734   8.833 -0.7032 -0.5279  0.3185
  152SAPE  H15R16887   3.065   2.730   8.794  0.4221 -0.5591  3.2142
  152SAPE  C21616888   2.869   2.824   8.757  0.4435 -0.2068  0.1881
  152SAPE  H16R16889   2.763   2.793   8.773  0.1438  0.9538  0.5239
  152SAPE  H16S16890   2.886   2.819   8.647  1.6917 -1.9436  0.4456
  152SAPE  C21716891   2.877   2.976   8.799  0.7007  0.2349 -0.7772
  152SAPE  H17R16892   2.979   3.018   8.784  0.8947  1.1134  2.5123
  152SAPE  H17S16893   2.859   2.982   8.909 -0.4119  0.5538 -0.9820
  152SAPE  C21816894   2.780   3.069   8.724  0.1205  0.1587 -0.1720
  152SAPE  H18R16895   2.678   3.029   8.743  0.6903 -1.2469  0.0694
  152SAPE  H18S16896   2.808   3.054   8.618  0.0633 -1.0045 -0.0325
  152SAPE  C21916897   2.791   3.215   8.752 -0.0432  0.1596  1.0756
  152SAPE  H19R16898   2.896   3.248   8.744 -0.3099  0.4532 -1.4130
  152SAPE  H19S16899   2.748   3.223   8.854 -1.6974  1.0700  0.3213
  152SAPE  C22016900   2.709   3.304   8.654 -0.1884 -1.1274 -0.4639
  152SAPE  H20R16901   2.749   3.314   8.551  3.1587  0.5955  0.9279
  152SAPE  H20S16902   2.701   3.409   8.692  0.8130 -1.0926 -0.3424
  152SAPE  H20T16903   2.602   3.272   8.651 -0.6874  0.3625  0.5563
  152SAPE   C3316904   2.485   2.519   9.948 -0.4618  0.3288  0.5188
  152SAPE   H3X16905   2.535   2.462  10.028  0.8391  0.4518 -0.1890
  152SAPE   H3Y16906   2.542   2.613   9.929  1.2925 -0.5761  1.2369
  152SAPE   C3416907   2.491   2.424   9.827  0.4414  0.1565 -0.5155
  152SAPE   H4X16908   2.410   2.348   9.837  0.4280 -0.1542 -2.6889
  152SAPE   H4Y16909   2.586   2.368   9.839  0.3945  0.3140  0.5609
  152SAPE   C3516910   2.478   2.484   9.687 -0.2369 -0.1738 -0.0949
  152SAPE   H5X16911   2.566   2.540   9.648 -0.3407 -0.0533 -0.1585
  152SAPE   H5Y16912   2.390   2.552   9.694 -0.4797 -0.3417 -1.3123
  152SAPE   C3616913   2.446   2.378   9.577  0.2865  0.6460 -0.7302
  152SAPE   H6X16914   2.349   2.326   9.590  2.0911 -2.5367  0.7165
  152SAPE   H6Y16915   2.524   2.298   9.573  0.2624  0.5393  0.6155
  152SAPE   C3716916   2.446   2.427   9.428 -0.3117  0.3817  0.1508
  152SAPE   H7X16917   2.539   2.483   9.404  0.1081 -0.4241 -0.1234
  152SAPE   H7Y16918   2.358   2.493   9.422 -1.2453 -0.7911  0.6683
  152SAPE   C3816919   2.436   2.319   9.321  0.6833 -0.0427 -0.0393
  152SAPE   H8X16920   2.358   2.246   9.349  1.4531 -0.5069  0.9454
  152SAPE   H8Y16921   2.532   2.261   9.323  1.1228  0.6914  0.4616
  152SAPE   C3916922   2.411   2.360   9.170  0.6190  0.3196 -0.2215
  152SAPE   H9X16923   2.499   2.424   9.149  2.1711 -1.6067  0.2428
  152SAPE   H9Y16924   2.311   2.410   9.165 -0.3314 -1.4433  0.6920
  152SAPE  C31016925   2.427   2.241   9.084 -0.5568 -0.4330  0.0934
  152SAPE  H10X16926   2.378   2.147   9.116  0.7030 -1.4904 -1.0359
  152SAPE  H10Y16927   2.531   2.201   9.090  0.0854  1.1757 -0.0627
  152SAPE  C31116928   2.398   2.270   8.931  0.8689  0.6610  0.0330
  152SAPE  H11X16929   2.477   2.336   8.890  1.0720  0.5100  0.1755
  152SAPE  H11Y16930   2.308   2.336   8.929  0.1750 -0.3075 -2.0623
  152SAPE  C31216931   2.368   2.139   8.851  0.4439  0.0855  0.7250
  152SAPE  H12X16932   2.370   2.175   8.746  0.9528  0.7926  0.9744
  152SAPE  H12Y16933   2.267   2.096   8.865  0.0464  0.7193 -0.1503
  152SAPE  C31316934   2.470   2.022   8.864  0.4605 -0.5396  0.6569
  152SAPE  H13X16935   2.482   1.984   8.967  0.2625  0.3345  1.0040
  152SAPE  H13Y16936   2.570   2.065   8.842 -1.0240  1.3684 -2.8375
  152SAPE  C31416937   2.447   1.919   8.753  0.4853 -0.0236  0.1368
  152SAPE  H14X16938   2.473   1.969   8.658  1.3523 -0.4770  0.1328
  152SAPE  H14Y16939   2.341   1.887   8.742  0.9097 -1.6070  0.5320
  152SAPE  C31516940   2.537   1.795   8.765 -0.5397  0.5129  0.3063
  152SAPE  H15X16941   2.502   1.740   8.855 -1.1091 -1.1949 -0.9286
  152SAPE  H15Y16942   2.637   1.830   8.799  0.5603 -2.2832  0.0993
  152SAPE  C31616943   2.538   1.708   8.640 -0.0579  0.2732 -0.3899
  152SAPE  H16X16944   2.563   1.760   8.545  1.1931 -1.3321 -0.9435
  152SAPE  H16Y16945   2.430   1.687   8.622  0.4263 -0.7957 -2.1315
  152SAPE  C31716946   2.617   1.574   8.665 -0.7058 -1.1342 -0.1667
  152SAPE  H17X16947   2.588   1.532   8.764  0.1433 -0.9464  0.1648
  152SAPE  H17Y16948   2.726   1.585   8.683 -1.0920  3.4513  0.0127
  152SAPE  C31816949   2.585   1.480   8.548 -0.4708  0.3417 -0.5034
  152SAPE  H18X16950   2.628   1.518   8.453  0.2452 -0.6525 -0.5946
  152SAPE  H18Y16951   2.477   1.475   8.526 -0.7053  2.1328  0.1480
  152SAPE  H18Z16952   2.633   1.380   8.557  0.7714  1.0511  1.1415
  153SAPE     N16953   2.551   5.317  10.915  0.4643  0.2801 -0.2680
  153SAPE   HN116954   2.650   5.350  10.911  1.4548 -2.5530 -0.9561
  153SAPE   HN216955   2.485   5.391  10.886  0.6873 -0.5609 -3.0687
  153SAPE   HN316956   2.540   5.302  11.018 -0.5894  2.1809 -0.1004
  153SAPE   C1216957   2.531   5.191  10.835  0.4603  0.1776 -0.1011
  153SAPE  H12A16958   2.554   5.220  10.730  0.4820 -0.8658 -0.3916
  153SAPE  H12B16959   2.426   5.156  10.838 -0.3179  2.3307 -1.5753
  153SAPE   C1116960   2.629   5.082  10.879  0.2509 -0.0698 -0.5542
  153SAPE  H11A16961   2.600   5.000  10.811 -1.9943 -0.3821  0.7237
  153SAPE  H11B16962   2.600   5.069  10.986  0.8937 -1.5907 -0.5577
  153SAPE     P16963   2.875   5.004  10.916  0.6367  0.2631 -0.0563
  153SAPE   O1316964   2.910   5.013  11.063 -0.0783  0.0854 -0.1469
  153SAPE   O1416965   2.820   4.871  10.878  0.3454 -0.0487 -0.3486
  153SAPE   O1216966   2.767   5.119  10.871  0.1024  0.1439  0.2646
  153SAPE   O1116967   3.003   5.038  10.832 -0.5023 -0.1660 -0.4404
  153SAPE    C116968   3.013   5.117  10.719  0.1685  0.5789 -0.3309
  153SAPE    HA16969   2.940   5.201  10.719  0.3544  0.7511  0.7121
  153SAPE    HB16970   3.111   5.168  10.728  0.2673  0.6430 -1.7011
  153SAPE    C216971   3.014   5.024  10.600 -0.4381  0.2733  0.4893
  153SAPE    HS16972   3.036   5.088  10.512 -0.9885  1.3327  1.1144
  153SAPE   O2116973   2.885   4.965  10.589 -0.6764  0.2923 -0.3962
  153SAPE   C2116974   2.784   5.038  10.548 -0.9597  0.6053  0.0633
  153SAPE   O2216975   2.780   5.158  10.533  0.5176  0.0223 -0.1675
  153SAPE   C2216976   2.666   4.945  10.509  0.5586  0.2546 -0.0448
  153SAPE   H2R16977   2.691   4.837  10.507 -1.3972 -0.2409  0.7696
  153SAPE   H2S16978   2.596   4.956  10.595 -0.0696 -0.6440 -0.4333
  153SAPE    C316979   3.124   4.912  10.614  0.7384  0.6437  0.5882
  153SAPE    HX16980   3.101   4.852  10.705  0.4403 -0.3470 -0.1325
  153SAPE    HY16981   3.209   4.978  10.641  3.0742 -1.5978 -1.0587
  153SAPE   O3116982   3.157   4.833  10.498  0.9477 -0.9446  0.0058
  153SAPE   C3116983   3.094   4.717  10.479  0.2582 -0.1799  0.0132
  153SAPE   O3216984   2.987   4.687  10.529 -0.0585 -0.0567  0.4515
  153SAPE   C3216985   3.152   4.638  10.361  0.3171  0.0718  0.1562
  153SAPE   H2X16986   3.067   4.574  10.331 -0.7675  0.3282  2.5409
  153SAPE   H2Y16987   3.222   4.564  10.406  0.5332  0.0963 -0.1364
  153SAPE   C2316988   2.597   4.994  10.380 -0.1794 -0.2913 -0.3517
  153SAPE   H3R16989   2.583   5.104  10.378  0.3311 -0.2169  0.1697
  153SAPE   H3S16990   2.492   4.957  10.386  0.4017 -1.7073  1.2951
  153SAPE   C2416991   2.673   4.955  10.247  0.8435  0.1124 -0.4578
  153SAPE   H4R16992   2.601   4.931  10.166  0.2551 -0.2871  0.1901
  153SAPE   H4S16993   2.729   4.860  10.256 -1.4653 -1.2117  0.3274
  153SAPE   C2516994   2.781   5.061  10.219 -1.0377 -0.2691  0.4734
  153SAPE   H5R16995   2.835   5.109  10.302 -1.0469 -0.4024  0.5568
  153SAPE   C2616996   2.808   5.106  10.101 -0.2564  0.3252  0.5417
  153SAPE   H6R16997   2.878   5.191  10.098  1.1129 -0.7798  0.0736
  153SAPE   C2716998   2.745   5.060   9.973  0.2709  0.4101 -0.0440
  153SAPE   H7R16999   2.662   5.129   9.944 -1.0872 -0.5955  1.3696
  153SAPE   H7S17000   2.684   4.970   9.992 -1.2463  1.5016  0.3752
  153SAPE   C2817001   2.850   5.049   9.861  0.1273 -0.4061  0.2775
  153SAPE   H8R17002   2.938   5.114   9.869  0.1998 -0.6562  1.5992
  153SAPE   C2917003   2.828   4.975   9.751 -0.2938  0.8082 -0.1784
  153SAPE   H9R17004   2.909   4.972   9.676  1.0839  1.4956  1.2469
  153SAPE  C21017005   2.714   4.889   9.715  0.0812 -0.7368 -1.2456
  153SAPE  H10R17006   2.691   4.921   9.611 -0.6821 -0.8065 -1.1038
  153SAPE  H10S17007   2.636   4.900   9.793 -0.4903  1.2056 -2.0672
  153SAPE  C21117008   2.757   4.743   9.702  0.6624  0.5556  0.8462
  153SAPE  H11R17009   2.754   4.684   9.795  2.5449  0.7413  1.0460
  153SAPE  C21217010   2.777   4.669   9.587  0.4494 -0.9587 -0.4465
  153SAPE  H12R17011   2.785   4.560   9.590  0.3143 -0.9707 -0.4984
  153SAPE  C21317012   2.779   4.719   9.439 -0.0116  0.6660 -0.6246
  153SAPE  H13R17013   2.881   4.714   9.396 -1.0744  1.5965 -3.3173
  153SAPE  H13S17014   2.741   4.822   9.421  1.2844  1.2218 -0.2645
  153SAPE  C21417015   2.671   4.642   9.364  0.3743 -1.0919  0.0026
  153SAPE  H14R17016   2.576   4.658   9.417  1.1377 -1.3502  1.4697
  153SAPE  C21517017   2.692   4.577   9.248  0.3186 -0.3515  0.6027
  153SAPE  H15R17018   2.607   4.532   9.196  0.5017 -0.8324  0.7177
  153SAPE  C21617019   2.819   4.574   9.170  0.2181  0.2773  0.7602
  153SAPE  H16R17020   2.813   4.475   9.120 -1.7453  1.4719 -1.4673
  153SAPE  H16S17021   2.912   4.580   9.231 -0.2452  1.0146  1.4100
  153SAPE  C21717022   2.830   4.685   9.064  0.0306 -0.2124 -0.5912
  153SAPE  H17R17023   2.740   4.681   8.999  0.3291  0.2031 -1.0336
  153SAPE  H17S17024   2.921   4.658   9.005  0.6246  2.2826 -0.9038
  153SAPE  C21817025   2.838   4.830   9.127 -0.3014 -0.1105 -0.0732
  153SAPE  H18R17026   2.924   4.825   9.198 -1.3509  0.1977  1.2430
  153SAPE  H18S17027   2.751   4.858   9.190  0.8715 -0.0202  1.5411
  153SAPE  C21917028   2.861   4.943   9.032 -0.0043 -0.7174 -0.3194
  153SAPE  H19R17029   2.944   4.906   8.968  0.8473 -1.4388  1.1947
  153SAPE  H19S17030   2.889   5.029   9.096  1.5602 -2.0601  0.8071
  153SAPE  C22017031   2.744   4.991   8.937  0.6840  0.0779  1.1039
  153SAPE  H20R17032   2.775   5.065   8.860 -0.0828 -0.4872  0.2387
  153SAPE  H20S17033   2.657   5.032   8.994  0.2824  0.9446 -0.1224
  153SAPE  H20T17034   2.694   4.905   8.886  2.0187 -0.2412  0.3177
  153SAPE   C3317035   3.214   4.714  10.245  1.2199  0.0965 -0.1003
  153SAPE   H3X17036   3.262   4.634  10.185  1.5428 -0.3909  0.7986
  153SAPE   H3Y17037   3.283   4.785  10.295  2.3456 -1.3658  0.4686
  153SAPE   C3417038   3.118   4.786  10.146 -0.8708 -0.3020  0.4495
  153SAPE   H4X17039   3.170   4.848  10.071 -0.8766 -0.6730  0.1371
  153SAPE   H4Y17040   3.055   4.846  10.215  0.1532 -0.8456  1.8958
  153SAPE   C3517041   3.011   4.698  10.077 -0.8224  0.3790  0.3506
  153SAPE   H5X17042   2.934   4.761  10.027 -1.3708  1.5617  2.6499
  153SAPE   H5Y17043   2.953   4.637  10.149 -0.6870 -0.1176  0.0363
  153SAPE   C3617044   3.066   4.621   9.954  0.2732 -0.0836 -0.3715
  153SAPE   H6X17045   2.989   4.565   9.897 -0.0685 -0.0002  0.0107
  153SAPE   H6Y17046   3.137   4.547   9.996 -0.8276 -1.8981 -1.6309
  153SAPE   C3717047   3.115   4.710   9.837  0.3536 -0.5936 -0.0751
  153SAPE   H7X17048   3.197   4.773   9.877  1.4579 -0.8438 -1.8660
  153SAPE   H7Y17049   3.030   4.780   9.824  0.2176 -0.2471  2.4176
  153SAPE   C3817050   3.150   4.640   9.700 -0.8676 -0.8552  0.1905
  153SAPE   H8X17051   3.058   4.587   9.667 -0.4348 -1.0559 -0.6909
  153SAPE   H8Y17052   3.237   4.575   9.721  0.3312  0.8969  0.8052
  153SAPE   C3917053   3.187   4.734   9.591  0.0019 -0.0313 -0.0196
  153SAPE   H9X17054   3.286   4.778   9.614  0.1019  0.4006 -1.2305
  153SAPE   H9Y17055   3.111   4.815   9.583 -0.1553  0.0085  1.6475
  153SAPE  C31017056   3.186   4.660   9.453  0.4713 -0.8152  0.1385
  153SAPE  H10X17057   3.080   4.632   9.433 -0.3199 -0.8673  3.9461
  153SAPE  H10Y17058   3.251   4.570   9.461 -0.3562 -1.3054  1.6909
  153SAPE  C31117059   3.229   4.749   9.338  0.1540  0.5191  0.3425
  153SAPE  H11X17060   3.338   4.769   9.347  0.5951 -0.5936 -2.3222
  153SAPE  H11Y17061   3.167   4.842   9.335 -0.8613 -0.0852  1.7176
  153SAPE  C31217062   3.207   4.690   9.199 -0.4833  0.4218  0.9627
  153SAPE  H12X17063   3.099   4.709   9.182 -0.3417  0.5675  0.2398
  153SAPE  H12Y17064   3.226   4.581   9.209 -0.2618  0.4301  0.6333
  153SAPE  C31317065   3.303   4.744   9.083  0.1094  0.4504 -0.6702
  153SAPE  H13X17066   3.405   4.740   9.127 -0.1675  0.9322  0.0273
  153SAPE  H13Y17067   3.265   4.843   9.050  2.2720  1.3740 -0.5336
  153SAPE  C31417068   3.294   4.661   8.960  0.1912 -0.5238  0.0419
  153SAPE  H14X17069   3.186   4.652   8.935 -0.2409  1.2826  1.1635
  153SAPE  H14Y17070   3.332   4.558   8.978  2.6274  0.0084 -1.8245
  153SAPE  C31517071   3.390   4.713   8.852 -0.0977  0.3356  0.2219
  153SAPE  H15X17072   3.494   4.723   8.890 -0.3847  0.6039  0.9624
  153SAPE  H15Y17073   3.361   4.818   8.827  2.0575  1.8531  3.7144
  153SAPE  C31617074   3.400   4.627   8.718  0.1015  0.2458 -0.1462
  153SAPE  H16X17075   3.466   4.681   8.647  1.1059 -0.5622  0.1490
  153SAPE  H16Y17076   3.301   4.611   8.671 -1.4714 -1.2093  3.4728
  153SAPE  C31717077   3.473   4.491   8.731 -0.0679 -0.0557 -0.3588
  153SAPE  H17X17078   3.407   4.416   8.778 -3.5851  3.3059  0.2791
  153SAPE  H17Y17079   3.559   4.500   8.801 -0.7511 -4.0295  1.1368
  153SAPE  C31817080   3.531   4.437   8.607 -0.5566  0.1621  0.1110
  153SAPE  H18X17081   3.460   4.394   8.534  0.4995 -0.5174 -0.5331
  153SAPE  H18Y17082   3.606   4.361   8.637 -1.8768 -1.4633 -0.6668
  153SAPE  H18Z17083   3.585   4.519   8.554  1.9200 -0.4155  1.6568
  154SAPE     N17084   3.497   3.877  11.126  0.5555 -0.7221  0.6377
  154SAPE   HN117085   3.412   3.832  11.165  0.4569  0.8950  2.3752
  154SAPE   HN217086   3.574   3.807  11.120  1.5233  0.4902 -1.6467
  154SAPE   HN317087   3.523   3.944  11.201  2.7540 -1.2631  0.4137
  154SAPE   C1217088   3.477   3.952  11.001  0.4612  0.7075 -0.3924
  154SAPE  H12A17089   3.417   4.044  11.017 -2.0462 -1.2030  1.4273
  154SAPE  H12B17090   3.415   3.889  10.934  1.9789 -0.1032 -1.0639
  154SAPE   C1117091   3.610   3.979  10.940  0.0969  0.4566  0.0367
  154SAPE  H11A17092   3.594   4.011  10.835  0.9480  1.1844  0.1233
  154SAPE  H11B17093   3.669   3.885  10.937 -1.9289 -0.8637  0.1256
  154SAPE     P17094   3.693   4.224  10.931 -0.2684  0.2471 -0.3671
  154SAPE   O1317095   3.558   4.279  10.912 -0.0378  0.3812  0.5061
  154SAPE   O1417096   3.792   4.310  11.003 -0.0670  0.3002 -0.0511
  154SAPE   O1217097   3.687   4.082  10.997 -0.5036  0.4669 -0.2596
  154SAPE   O1117098   3.746   4.189  10.791 -0.2482  1.1290 -0.3573
  154SAPE    C117099   3.865   4.124  10.773 -0.1644 -0.3855 -0.7090
  154SAPE    HA17100   3.925   4.189  10.706 -1.5683  0.8866 -0.7532
  154SAPE    HB17101   3.930   4.114  10.862  1.1315  2.4702 -1.2877
  154SAPE    C217102   3.842   3.986  10.697  0.0709  0.0688  0.2702
  154SAPE    HS17103   3.794   3.934  10.783  0.7514  0.4807  0.9090
  154SAPE   O2117104   3.969   3.930  10.666 -0.4686 -0.8054 -0.1782
  154SAPE   C2117105   3.960   3.804  10.646 -0.2076 -0.1046 -0.3152
  154SAPE   O2217106   3.859   3.729  10.658 -0.3267  0.3831  0.0162
  154SAPE   C2217107   4.104   3.751  10.607  0.0917  0.0873 -1.1870
  154SAPE   H2R17108   4.155   3.813  10.530  0.7894  0.6195 -0.3113
  154SAPE   H2S17109   4.168   3.758  10.698  2.6349  0.4230 -2.9381
  154SAPE    C317110   3.748   4.000  10.575  0.0747 -0.3342 -0.2240
  154SAPE    HX17111   3.654   4.044  10.615  1.0958 -0.5120  2.4988
  154SAPE    HY17112   3.723   3.900  10.533  0.9657 -0.5393 -0.2702
  154SAPE   O3117113   3.792   4.093  10.470  0.0870  0.1364  0.1514
  154SAPE   C3117114   3.843   4.038  10.360 -0.3331 -0.0902 -0.0134
  154SAPE   O3217115   3.864   3.921  10.343  0.4403 -0.0024 -0.0329
  154SAPE   C3217116   3.883   4.144  10.261 -0.1339 -0.7861  0.3085
  154SAPE   H2X17117   3.990   4.138  10.232 -0.5366 -1.6277 -1.0843
  154SAPE   H2Y17118   3.849   4.245  10.292 -2.5008 -0.4573 -3.1518
  154SAPE   C2317119   4.102   3.604  10.550  0.2276 -0.5581 -0.7253
  154SAPE   H3R17120   4.049   3.530  10.614 -0.3707  1.3449  1.0174
  154SAPE   H3S17121   4.207   3.569  10.553  0.1267 -0.8327 -0.3714
  154SAPE   C2417122   4.050   3.620  10.407 -0.3214 -0.1554 -0.3302
  154SAPE   H4R17123   4.111   3.698  10.357  0.6756 -0.9461 -0.3589
  154SAPE   H4S17124   3.949   3.666  10.419  0.2314  0.9092  0.3016
  154SAPE   C2517125   4.036   3.502  10.321 -0.0340 -0.0995  0.2370
  154SAPE   H5R17126   4.093   3.414  10.357  0.1500 -0.4980 -1.0088
  154SAPE   C2617127   3.972   3.490  10.201  0.9727 -0.5051 -0.0661
  154SAPE   H6R17128   3.956   3.390  10.159 -0.0887 -0.2762 -0.2068
  154SAPE   C2717129   3.906   3.613  10.135 -0.0148  0.0300 -0.5626
  154SAPE   H7R17130   3.990   3.680  10.106  0.5203  0.1363  1.2140
  154SAPE   H7S17131   3.852   3.682  10.203  0.4679 -0.5562  0.4324
  154SAPE   C2817132   3.819   3.572  10.023 -0.4925  0.4057 -0.4298
  154SAPE   H8R17133   3.751   3.488  10.040  0.1514  0.0015  0.2043
  154SAPE   C2917134   3.823   3.636   9.905  0.2457 -0.5639 -0.5410
  154SAPE   H9R17135   3.760   3.611   9.818  1.4157 -0.5704 -1.3894
  154SAPE  C21017136   3.913   3.755   9.876  0.6385 -0.7081  0.3077
  154SAPE  H10R17137   4.016   3.714   9.886  1.5577  1.7781  1.6266
  154SAPE  H10S17138   3.913   3.838   9.950 -0.0175  0.5211 -1.0367
  154SAPE  C21117139   3.887   3.825   9.747 -0.5677 -0.1645 -0.3328
  154SAPE  H11R17140   3.836   3.922   9.752 -0.3738  0.0079 -1.5889
  154SAPE  C21217141   3.938   3.801   9.621  0.6487  0.8543  0.3039
  154SAPE  H12R17142   3.919   3.877   9.544 -1.3930  0.5149  0.4295
  154SAPE  C21317143   4.038   3.695   9.584  0.4071 -0.3022  0.8582
  154SAPE  H13R17144   4.008   3.647   9.489 -0.1437  1.0916  0.3149
  154SAPE  H13S17145   4.045   3.618   9.664 -0.2312 -1.3258 -0.0672
  154SAPE  C21417146   4.190   3.732   9.567  0.5183 -0.1779  0.0705
  154SAPE  H14R17147   4.242   3.761   9.660 -0.0483 -0.6206  0.5267
  154SAPE  C21517148   4.270   3.718   9.460  0.0511  0.7816  0.2513
  154SAPE  H15R17149   4.374   3.752   9.466  0.0552  0.7009  0.6571
  154SAPE  C21617150   4.244   3.666   9.321  0.1479 -0.3987  0.0345
  154SAPE  H16R17151   4.296   3.733   9.250 -0.5668  0.3186  0.1795
  154SAPE  H16S17152   4.136   3.656   9.297  0.6634  0.2670 -2.7313
  154SAPE  C21717153   4.299   3.525   9.308  0.1819 -0.0866 -0.1373
  154SAPE  H17R17154   4.233   3.461   9.370 -0.4464  0.2848 -0.4172
  154SAPE  H17S17155   4.403   3.531   9.347  0.6282  0.3239 -1.3723
  154SAPE  C21817156   4.290   3.468   9.162 -0.4051 -1.0906 -0.0969
  154SAPE  H18R17157   4.393   3.466   9.119 -1.3237 -0.5733 -2.3655
  154SAPE  H18S17158   4.225   3.534   9.102  0.1579 -0.8467 -0.4392
  154SAPE  C21917159   4.228   3.323   9.152  0.1522  0.2946 -0.5231
  154SAPE  H19R17160   4.152   3.321   9.233  0.3715 -0.2046 -0.3267
  154SAPE  H19S17161   4.296   3.241   9.184  0.1037  0.2774 -0.4631
  154SAPE  C22017162   4.162   3.285   9.022  0.0263 -0.3191 -0.2179
  154SAPE  H20R17163   4.246   3.248   8.960  0.7883 -1.6455  1.5441
  154SAPE  H20S17164   4.124   3.370   8.962  0.4499  1.8875  2.5189
  154SAPE  H20T17165   4.083   3.208   9.038  0.6961 -1.0601 -0.4275
  154SAPE   C3317166   3.808   4.113  10.129  0.7476 -0.8720 -0.1457
  154SAPE   H3X17167   3.700   4.110  10.152  0.4691  0.1702 -1.2733
  154SAPE   H3Y17168   3.830   4.008  10.099 -0.7308 -1.4452  0.7459
  154SAPE   C3417169   3.835   4.208  10.004  0.0176 -0.0992 -0.1409
  154SAPE   H4X17170   3.940   4.186   9.973  0.1199  1.0936 -0.6953
  154SAPE   H4Y17171   3.834   4.316  10.027  2.4597  0.1628 -1.0326
  154SAPE   C3517172   3.742   4.187   9.880 -0.3424 -0.1502 -0.4881
  154SAPE   H5X17173   3.698   4.086   9.888  0.0734 -0.2299  1.0323
  154SAPE   H5Y17174   3.805   4.192   9.789 -0.7658  0.4227 -0.7551
  154SAPE   C3617175   3.636   4.291   9.889  0.2695 -0.0795  0.0006
  154SAPE   H6X17176   3.678   4.393   9.876  1.0005 -0.5063 -1.0298
  154SAPE   H6Y17177   3.580   4.282   9.984  1.0673  0.9018  0.5718
  154SAPE   C3717178   3.536   4.294   9.769  0.3521  1.0204 -0.3576
  154SAPE   H7X17179   3.462   4.375   9.785 -0.4975  0.2936 -0.5272
  154SAPE   H7Y17180   3.482   4.196   9.763 -1.1916  1.9449 -2.0541
  154SAPE   C3817181   3.608   4.314   9.633  0.5507  0.6237 -0.2783
  154SAPE   H8X17182   3.679   4.230   9.621  0.3640  0.0373  2.2957
  154SAPE   H8Y17183   3.658   4.413   9.635  2.1499 -0.1895  1.0364
  154SAPE   C3917184   3.510   4.298   9.514 -0.0306  0.3603 -0.5445
  154SAPE   H9X17185   3.412   4.258   9.549 -0.0722  1.0940  0.1899
  154SAPE   H9Y17186   3.558   4.221   9.449  0.1419  0.8166 -0.9627
  154SAPE  C31017187   3.481   4.414   9.421  0.0241  0.2346 -0.3293
  154SAPE  H10X17188   3.458   4.509   9.472 -2.8230 -0.8312  0.4649
  154SAPE  H10Y17189   3.387   4.397   9.365  0.6407 -1.7692 -0.7926
  154SAPE  C31117190   3.599   4.436   9.315  0.3656  0.1352 -0.3746
  154SAPE  H11X17191   3.692   4.448   9.374 -0.0048 -0.8073  0.4347
  154SAPE  H11Y17192   3.577   4.524   9.252 -2.1681 -0.0887  0.1553
  154SAPE  C31217193   3.619   4.319   9.219 -0.6117 -0.2439 -0.1021
  154SAPE  H12X17194   3.522   4.276   9.187  0.0871 -2.2443  0.3553
  154SAPE  H12Y17195   3.687   4.241   9.261  1.6881  0.7337 -1.8684
  154SAPE  C31317196   3.695   4.382   9.099  0.6987  0.6512  0.3645
  154SAPE  H13X17197   3.791   4.419   9.140  1.1020  0.1493 -0.1181
  154SAPE  H13Y17198   3.625   4.461   9.063 -1.7946 -0.2415  3.0645
  154SAPE  C31417199   3.733   4.280   8.994 -0.0030 -0.2637 -0.3953
  154SAPE  H14X17200   3.814   4.212   9.029  0.7698  1.1663  0.6667
  154SAPE  H14Y17201   3.785   4.336   8.913  1.7872 -2.5949 -0.9150
  154SAPE  C31517202   3.623   4.196   8.931 -0.0677  0.1968  0.1227
  154SAPE  H15X17203   3.544   4.260   8.887  0.3417 -0.0061 -0.9192
  154SAPE  H15Y17204   3.585   4.123   9.006  2.4591 -0.5470  0.7169
  154SAPE  C31617205   3.689   4.112   8.814  0.0219  0.1400  0.2239
  154SAPE  H16X17206   3.785   4.078   8.860  0.1589  0.3711  0.1101
  154SAPE  H16Y17207   3.712   4.187   8.736 -0.5635  1.5615  1.3895
  154SAPE  C31717208   3.599   4.005   8.756  0.4382  0.0394 -0.0126
  154SAPE  H17X17209   3.659   3.947   8.683  0.9396  1.2773 -0.6028
  154SAPE  H17Y17210   3.522   4.066   8.704  1.4634  0.4501 -1.0750
  154SAPE  C31817211   3.518   3.908   8.853  0.3014 -0.6034  0.5392
  154SAPE  H18X17212   3.584   3.822   8.873  0.0084 -1.0226 -0.2780
  154SAPE  H18Y17213   3.428   3.862   8.807  0.7185 -1.7199  0.8223
  154SAPE  H18Z17214   3.479   3.939   8.953 -1.7346 -0.1543 -0.3749
  155SAPE     N17215   4.267   5.038  10.779  0.3391 -0.2897 -0.2304
  155SAPE   HN117216   4.349   5.095  10.750  0.8571 -0.7990  0.2073
  155SAPE   HN217217   4.311   4.950  10.814 -0.6270 -0.4731  0.5350
  155SAPE   HN317218   4.206   5.017  10.698 -0.4716  0.1927  0.2449
  155SAPE   C1217219   4.179   5.105  10.885 -0.0382 -0.0146  0.6974
  155SAPE  H12A17220   4.247   5.124  10.970  3.1601  0.1550 -1.7845
  155SAPE  H12B17221   4.112   5.025  10.923 -0.0588  0.0025  0.6947
  155SAPE   C1117222   4.112   5.225  10.812  0.2488  0.6581 -0.0796
  155SAPE  H11A17223   4.030   5.249  10.883  0.4704  0.4546  0.2474
  155SAPE  H11B17224   4.055   5.197  10.721 -0.8608 -0.7804  1.0250
  155SAPE     P17225   4.147   5.450  10.691 -0.0671  0.2719 -0.2808
  155SAPE   O1317226   4.020   5.496  10.747 -0.3839 -0.1291 -0.1964
  155SAPE   O1417227   4.250   5.551  10.664  0.4107  0.0641 -0.4518
  155SAPE   O1217228   4.192   5.343  10.802 -0.4521 -0.3432 -0.1479
  155SAPE   O1117229   4.119   5.366  10.554 -0.1038  0.0131 -0.5130
  155SAPE    C117230   4.232   5.324  10.480 -0.2517 -0.5330  0.7052
  155SAPE    HA17231   4.312   5.401  10.470 -2.0201  0.9158 -2.9115
  155SAPE    HB17232   4.269   5.233  10.533 -1.5001 -0.3526  1.9030
  155SAPE    C217233   4.202   5.297  10.331 -0.2213 -0.2077  0.4569
  155SAPE    HS17234   4.287   5.244  10.283  0.3464  1.2425 -0.1828
  155SAPE   O2117235   4.181   5.421  10.261 -0.0891 -0.4561  0.0673
  155SAPE   C2117236   4.289   5.468  10.201  1.1567 -0.1991 -0.1692
  155SAPE   O2217237   4.396   5.409  10.191  0.3290 -0.1399  0.8384
  155SAPE   C2217238   4.258   5.603  10.131  0.7375  0.2776 -0.1005
  155SAPE   H2R17239   4.152   5.622  10.105  1.4445  3.3995 -0.9672
  155SAPE   H2S17240   4.270   5.681  10.210 -1.9975  0.5643  0.0828
  155SAPE    C317241   4.070   5.222  10.318  0.0128  0.5815  0.4538
  155SAPE    HX17242   3.999   5.301  10.351  1.2353  1.2765  1.5018
  155SAPE    HY17243   4.058   5.144  10.396 -0.5619  1.9926  1.8139
  155SAPE   O3117244   4.040   5.164  10.186 -0.1913  0.4125 -0.4714
  155SAPE   C3117245   4.123   5.056  10.165 -0.1094  0.4022  0.0376
  155SAPE   O3217246   4.201   5.013  10.249 -0.6798  0.6122 -0.4311
  155SAPE   C3217247   4.114   5.006  10.023  0.3656  0.3503 -0.9351
  155SAPE   H2X17248   4.006   4.999  10.000  0.5719  1.3895 -2.2640
  155SAPE   H2Y17249   4.154   4.903  10.032  0.1587  0.3872  0.6772
  155SAPE   C2317250   4.344   5.628  10.010 -0.0419  0.7091  0.1516
  155SAPE   H3R17251   4.451   5.608  10.031 -0.5469 -3.0849 -0.4617
  155SAPE   H3S17252   4.330   5.735   9.986  0.0436  0.3538 -1.5488
  155SAPE   C2417253   4.300   5.545   9.890 -1.0760  0.0868 -0.0347
  155SAPE   H4R17254   4.326   5.439   9.914  4.8116  1.6365  1.2035
  155SAPE   H4S17255   4.370   5.577   9.810 -1.1668 -2.2000 -1.0905
  155SAPE   C2517256   4.160   5.551   9.836 -0.0171 -1.1228 -0.3278
  155SAPE   H5R17257   4.078   5.547   9.909 -0.1099  0.2122 -0.3467
  155SAPE   C2617258   4.133   5.573   9.704  0.0040  0.2547 -0.0461
  155SAPE   H6R17259   4.026   5.562   9.684  0.1302  0.2848 -0.7501
  155SAPE   C2717260   4.226   5.591   9.592  0.2029  0.7576  0.2648
  155SAPE   H7R17261   4.294   5.504   9.577 -0.4977  0.3607 -0.6843
  155SAPE   H7S17262   4.293   5.674   9.622 -0.5983  1.3689  0.3565
  155SAPE   C2817263   4.171   5.623   9.456  0.3947 -0.5817 -1.2710
  155SAPE   H8R17264   4.063   5.606   9.441 -0.1038  0.7058  0.6534
  155SAPE   C2917265   4.242   5.650   9.342  0.3980 -0.4479 -0.5099
  155SAPE   H9R17266   4.188   5.669   9.248  2.0952  0.4007 -1.3505
  155SAPE  C21017267   4.384   5.657   9.315 -0.3512  0.1380  0.5361
  155SAPE  H10R17268   4.405   5.572   9.246 -2.8297 -0.1016  0.0425
  155SAPE  H10S17269   4.446   5.647   9.407  0.9653  0.9428 -0.2483
  155SAPE  C21117270   4.416   5.786   9.248  0.3903  1.2388  1.2342
  155SAPE  H11R17271   4.333   5.832   9.193  1.3981 -0.4879 -1.8684
  155SAPE  C21217272   4.532   5.847   9.234  0.5460 -0.8762 -0.1704
  155SAPE  H12R17273   4.530   5.936   9.170 -1.6506  0.7946  2.1375
  155SAPE  C21317274   4.671   5.815   9.284 -0.6813 -0.2379 -0.5704
  155SAPE  H13R17275   4.743   5.839   9.203  0.0465  2.1516  0.7399
  155SAPE  H13S17276   4.675   5.708   9.311  1.0978  0.3005  1.5305
  155SAPE  C21417277   4.710   5.901   9.404 -1.3017 -0.2577 -0.5572
  155SAPE  H14R17278   4.633   5.887   9.481 -1.3247 -0.8200 -0.6801
  155SAPE  C21517279   4.810   5.983   9.427  0.1497  0.5378  1.0846
  155SAPE  H15R17280   4.812   6.028   9.528  0.4400 -1.0038  1.7733
  155SAPE  C21617281   4.927   6.020   9.335 -0.2389  0.3088  0.2760
  155SAPE  H16R17282   4.980   5.938   9.281 -3.2420 -1.6152  0.1341
  155SAPE  H16S17283   5.016   6.055   9.392 -1.8107  1.6975  1.9284
  155SAPE  C21717284   4.869   6.119   9.233  0.0919  0.0653 -0.0403
  155SAPE  H17R17285   4.858   6.215   9.288  0.0533  0.2101 -0.2993
  155SAPE  H17S17286   4.769   6.086   9.197 -1.0936  1.5684  1.7487
  155SAPE  C21817287   4.963   6.141   9.119  0.2366 -0.2955  0.2434
  155SAPE  H18R17288   4.955   6.058   9.046 -1.3886 -0.1831  0.2638
  155SAPE  H18S17289   5.067   6.157   9.154  0.6949  1.0699 -1.6743
  155SAPE  C21917290   4.930   6.266   9.029 -0.8511 -0.5410  0.0819
  155SAPE  H19R17291   4.819   6.259   9.030 -0.9063  0.0578 -0.8900
  155SAPE  H19S17292   4.961   6.259   8.922 -1.7481  3.4499 -0.5047
  155SAPE  C22017293   4.986   6.390   9.086 -0.6199  0.1908 -0.2477
  155SAPE  H20R17294   4.943   6.475   9.028 -3.2635 -0.4279  0.7406
  155SAPE  H20S17295   5.097   6.396   9.087 -0.7009  1.8695  1.9243
  155SAPE  H20T17296   4.947   6.412   9.187 -1.3889  0.2942 -0.5587
  155SAPE   C3317297   4.199   5.102   9.936 -0.0596 -0.2300 -0.2863
  155SAPE   H3X17298   4.302   5.113   9.975  0.6056 -0.9590 -1.8045
  155SAPE   H3Y17299   4.159   5.206   9.942  1.8103  0.5716 -1.3791
  155SAPE   C3417300   4.225   5.057   9.791  0.0182  0.2224 -0.0327
  155SAPE   H4X17301   4.133   5.025   9.738 -0.3087 -2.7764  2.2313
  155SAPE   H4Y17302   4.284   4.963   9.795  0.5926  0.6453  1.7680
  155SAPE   C3517303   4.293   5.167   9.707  0.3693 -0.2505 -0.1392
  155SAPE   H5X17304   4.373   5.205   9.773  1.2440 -1.1198 -0.6862
  155SAPE   H5Y17305   4.221   5.251   9.700 -0.0812 -0.7946 -2.4630
  155SAPE   C3617306   4.364   5.117   9.582 -0.0114 -0.6786  0.0588
  155SAPE   H6X17307   4.448   5.052   9.613  0.7518 -0.9424 -2.4969
  155SAPE   H6Y17308   4.410   5.203   9.528 -1.2476  0.5910  0.9789
  155SAPE   C3717309   4.275   5.029   9.479  0.5521 -0.2449  0.5546
  155SAPE   H7X17310   4.188   5.089   9.446 -0.0943 -0.9493  0.9681
  155SAPE   H7Y17311   4.226   4.939   9.521 -1.6171  0.6517  0.0252
  155SAPE   C3817312   4.362   4.987   9.359 -0.0085  0.2423  0.0264
  155SAPE   H8X17313   4.428   4.911   9.404  0.0208  0.2071 -0.0754
  155SAPE   H8Y17314   4.415   5.082   9.335 -1.4720  1.2274  0.5757
  155SAPE   C3917315   4.287   4.960   9.228  0.0009  0.5592  0.1323
  155SAPE   H9X17316   4.373   4.956   9.157  0.3018  2.1956  0.3783
  155SAPE   H9Y17317   4.211   5.035   9.197  0.4968  0.3199 -1.7284
  155SAPE  C31017318   4.198   4.830   9.207 -0.4101 -0.1084 -0.5262
  155SAPE  H10X17319   4.121   4.822   9.286 -0.2477  0.6335 -0.2896
  155SAPE  H10Y17320   4.272   4.747   9.219 -1.6454 -1.1729 -0.2115
  155SAPE  C31117321   4.153   4.833   9.064 -0.1713  0.1912  0.2912
  155SAPE  H11X17322   4.241   4.860   9.002  1.1018  1.8683  2.7105
  155SAPE  H11Y17323   4.073   4.908   9.049 -1.6789 -1.5817 -0.6959
  155SAPE  C31217324   4.085   4.702   9.031 -0.2566  0.3119  0.2117
  155SAPE  H12X17325   3.999   4.676   9.096 -0.6147 -0.2500 -0.4769
  155SAPE  H12Y17326   4.160   4.623   9.050  0.8686  0.4913 -3.1455
  155SAPE  C31317327   4.026   4.705   8.886  0.6069 -0.0781 -0.2104
  155SAPE  H13X17328   4.106   4.724   8.811  0.2536  1.5178 -0.1970
  155SAPE  H13Y17329   3.951   4.786   8.870 -1.2678 -1.8236 -0.4164
  155SAPE  C31417330   3.968   4.568   8.852  0.0781  0.7541  0.1346
  155SAPE  H14X17331   3.896   4.548   8.935  1.1057 -0.5340  0.7412
  155SAPE  H14Y17332   4.037   4.481   8.861 -1.9015 -0.6450  2.6295
  155SAPE  C31517333   3.893   4.566   8.718  0.3364  0.4679  0.8261
  155SAPE  H15X17334   3.851   4.663   8.682 -2.5756 -0.9384  0.2898
  155SAPE  H15Y17335   3.800   4.505   8.721  0.8476 -0.3247  0.4815
  155SAPE  C31617336   3.984   4.498   8.609  0.1226  0.1938  0.1106
  155SAPE  H16X17337   4.011   4.395   8.640 -0.6286  0.3117  1.2134
  155SAPE  H16Y17338   4.079   4.552   8.592  0.6635 -1.9056 -3.9852
  155SAPE  C31717339   3.914   4.510   8.469  0.0438 -0.4547  0.0740
  155SAPE  H17X17340   3.906   4.618   8.444  0.7452 -0.6221 -0.9090
  155SAPE  H17Y17341   3.809   4.477   8.487  0.2634 -0.7211  0.8944
  155SAPE  C31817342   3.994   4.457   8.355 -0.1956  0.4078  0.1790
  155SAPE  H18X17343   3.935   4.446   8.262  0.6072  1.0118 -0.4128
  155SAPE  H18Y17344   4.043   4.363   8.388 -1.3254 -0.2241  0.0788
  155SAPE  H18Z17345   4.078   4.526   8.332 -1.9829  1.6464 -2.7764
  156SAPE     N17346   1.799   3.729  10.782  0.3790  0.0302  0.2334
  156SAPE   HN117347   1.878   3.749  10.717 -0.8123  1.4090 -0.8415
  156SAPE   HN217348   1.712   3.760  10.733 -0.4661 -0.6032  1.3059
  156SAPE   HN317349   1.804   3.788  10.867  0.4903 -0.7848  0.7946
  156SAPE   C1217350   1.784   3.582  10.830 -0.4317 -0.4225 -0.6520
  156SAPE  H12A17351   1.718   3.575  10.919  0.2256  0.7823 -0.0698
  156SAPE  H12B17352   1.887   3.546  10.850  0.1656  2.8742  2.5153
  156SAPE   C1117353   1.712   3.504  10.714  0.0439  0.3916 -0.0985
  156SAPE  H11A17354   1.634   3.570  10.671  1.4291  2.6075  0.7243
  156SAPE  H11B17355   1.665   3.413  10.757  0.8744 -0.8510 -1.7322
  156SAPE     P17356   1.917   3.368  10.605  0.1801 -0.2570  0.1366
  156SAPE   O1317357   2.044   3.407  10.668  0.1541  0.1845  0.2416
  156SAPE   O1417358   1.864   3.244  10.664  0.0954  0.3016  0.2228
  156SAPE   O1217359   1.811   3.487  10.611 -0.4972 -0.7092 -0.2405
  156SAPE   O1117360   1.935   3.348  10.446 -0.3992 -0.1568 -0.1467
  156SAPE    C117361   1.916   3.452  10.352  0.0318  0.6830 -0.4735
  156SAPE    HA17362   1.815   3.439  10.307  0.3089 -4.1689  0.0309
  156SAPE    HB17363   1.925   3.555  10.393 -0.8666  1.2454 -1.6440
  156SAPE    C217364   2.014   3.448  10.226 -0.2055  0.2371 -0.8450
  156SAPE    HS17365   1.977   3.368  10.158 -0.7385 -1.1044  0.9761
  156SAPE   O2117366   2.149   3.423  10.261 -0.2788 -0.7019  0.0278
  156SAPE   C2117367   2.206   3.508  10.339 -0.8243 -0.4607 -0.2538
  156SAPE   O2217368   2.163   3.617  10.375 -0.6246  0.1049 -1.0505
  156SAPE   C2217369   2.347   3.464  10.370  0.0285 -0.1125  0.7206
  156SAPE   H2R17370   2.366   3.355  10.377 -1.9890 -0.5653 -0.5004
  156SAPE   H2S17371   2.407   3.504  10.285 -0.4461 -0.9183  0.0013
  156SAPE    C317372   2.003   3.577  10.142 -0.6661 -0.1564 -0.2451
  156SAPE    HX17373   2.046   3.668  10.188  1.4853 -0.7774 -0.9907
  156SAPE    HY17374   1.895   3.606  10.143 -0.9145 -0.8691 -2.7078
  156SAPE   O3117375   2.056   3.565  10.008 -0.2592 -0.2388  0.0093
  156SAPE   C3117376   1.953   3.522   9.924 -0.1651  0.4175  0.1666
  156SAPE   O3217377   1.839   3.491   9.965  0.2906  0.1204  0.0146
  156SAPE   C3217378   2.011   3.510   9.789  0.4868 -0.4695 -0.6881
  156SAPE   H2X17379   2.121   3.517   9.803  0.3721 -1.3159  0.7273
  156SAPE   H2Y17380   1.963   3.599   9.741 -0.4039 -2.0957 -2.8805
  156SAPE   C2317381   2.412   3.526  10.501  0.2312  0.1156 -0.4612
  156SAPE   H3R17382   2.356   3.478  10.583 -0.8654  0.0973 -1.2120
  156SAPE   H3S17383   2.405   3.637  10.502  1.1624  0.2017 -1.5488
  156SAPE   C2417384   2.568   3.507  10.510 -0.5987  0.4103 -0.3643
  156SAPE   H4R17385   2.615   3.570  10.589  1.9312 -1.5319 -0.2664
  156SAPE   H4S17386   2.616   3.541  10.415 -1.1824  1.5681 -0.2556
  156SAPE   C2517387   2.591   3.359  10.530 -0.3402  0.4292 -0.2359
  156SAPE   H5R17388   2.537   3.311  10.613  2.1324  0.3516  1.4041
  156SAPE   C2617389   2.655   3.276  10.442  0.5398  0.4280 -0.3265
  156SAPE   H6R17390   2.670   3.170  10.466 -0.8640  0.5016  0.9235
  156SAPE   C2717391   2.733   3.320  10.320  0.1682 -0.1284  0.6137
  156SAPE   H7R17392   2.811   3.243  10.306  0.9921  0.2952  2.7400
  156SAPE   H7S17393   2.790   3.413  10.339 -0.8854  0.4696  0.8811
  156SAPE   C2817394   2.645   3.328  10.197 -0.2544  0.2093  0.0437
  156SAPE   H8R17395   2.544   3.289  10.211 -0.3953 -0.5706 -2.7764
  156SAPE   C2917396   2.669   3.409  10.095 -0.0831 -0.2205  0.6121
  156SAPE   H9R17397   2.599   3.410  10.010  0.3923 -2.1759  0.1787
  156SAPE  C21017398   2.793   3.488  10.081 -0.8672 -0.0152 -0.0325
  156SAPE  H10R17399   2.812   3.561  10.162 -0.3199 -1.2095  0.9301
  156SAPE  H10S17400   2.784   3.553   9.991  2.7047  0.9854  0.2663
  156SAPE  C21117401   2.917   3.402  10.066  0.1279 -0.4344  0.5209
  156SAPE  H11R17402   2.971   3.378  10.159 -1.1104  2.6938  2.1155
  156SAPE  C21217403   2.977   3.367   9.953  0.7461 -0.0516 -0.2568
  156SAPE  H12R17404   3.080   3.328   9.953  0.9386  0.4219 -1.6295
  156SAPE  C21317405   2.939   3.394   9.810  0.3366  0.5619  0.7653
  156SAPE  H13R17406   3.026   3.371   9.744 -0.0070  0.0246  0.4903
  156SAPE  H13S17407   2.916   3.502   9.802 -1.1622  0.1176 -1.7187
  156SAPE  C21417408   2.814   3.324   9.758  0.0285  0.8011 -0.5668
  156SAPE  H14R17409   2.722   3.353   9.811  0.0039 -0.5476  0.1658
  156SAPE  C21517410   2.806   3.247   9.649 -0.1004  0.1011 -0.4557
  156SAPE  H15R17411   2.712   3.201   9.614 -0.0036  0.7899 -1.6124
  156SAPE  C21617412   2.915   3.192   9.559 -0.0880  0.6887  0.2456
  156SAPE  H16R17413   2.954   3.098   9.604  0.7520  0.5823 -0.6999
  156SAPE  H16S17414   3.009   3.251   9.552 -0.2547  1.4224  3.4862
  156SAPE  C21717415   2.864   3.172   9.418  0.9980 -0.0432  0.6161
  156SAPE  H17R17416   2.780   3.100   9.420  0.2336  0.7864 -0.8706
  156SAPE  H17S17417   2.926   3.121   9.342 -0.4364 -1.0756  0.1303
  156SAPE  C21817418   2.813   3.297   9.345  0.2077  0.1643  0.0591
  156SAPE  H18R17419   2.907   3.352   9.322 -1.1319  1.4082 -2.6070
  156SAPE  H18S17420   2.752   3.362   9.411  2.8182  4.7584 -1.8450
  156SAPE  C21917421   2.738   3.274   9.215 -0.3376 -0.0377  0.2219
  156SAPE  H19R17422   2.637   3.234   9.237 -0.8858  2.4511  2.4572
  156SAPE  H19S17423   2.791   3.202   9.148  1.8294  0.1439  1.6735
  156SAPE  C22017424   2.709   3.405   9.149 -0.1385  0.5392  0.4553
  156SAPE  H20R17425   2.640   3.402   9.063 -0.1494  1.4114  0.4253
  156SAPE  H20S17426   2.800   3.450   9.104  0.5846 -0.3396  0.9939
  156SAPE  H20T17427   2.674   3.482   9.221 -1.5534  0.7379 -0.4266
  156SAPE   C3317428   1.957   3.383   9.713 -0.4796  0.0396 -0.0346
  156SAPE   H3X17429   1.848   3.368   9.728 -0.1983 -0.2551  1.8222
  156SAPE   H3Y17430   1.993   3.287   9.756 -1.4423 -0.2678  0.1127
  156SAPE   C3417431   1.998   3.385   9.573 -0.2131  0.0122  0.3739
  156SAPE   H4X17432   2.106   3.409   9.559 -0.1635 -0.4184  0.0057
  156SAPE   H4Y17433   1.934   3.461   9.523  0.3847  2.7406  3.5919
  156SAPE   C3517434   1.967   3.249   9.510  0.2006  0.0859 -0.6376
  156SAPE   H5X17435   1.857   3.230   9.512  0.2426 -0.2292 -1.2986
  156SAPE   H5Y17436   2.016   3.168   9.569  0.2813  0.4332 -0.2197
  156SAPE   C3617437   2.027   3.235   9.375 -0.9240  0.5502 -0.1043
  156SAPE   H6X17438   2.040   3.128   9.348 -0.6211  0.8270 -1.1184
  156SAPE   H6Y17439   2.130   3.277   9.382 -0.4108 -0.7822  0.3076
  156SAPE   C3717440   1.948   3.303   9.266 -0.0863  0.3247 -0.8133
  156SAPE   H7X17441   1.931   3.410   9.290  1.0769 -0.3129  3.4436
  156SAPE   H7Y17442   1.845   3.262   9.264 -0.2296  0.6805 -0.7311
  156SAPE   C3817443   2.008   3.290   9.126  0.8220 -0.2967  0.4616
  156SAPE   H8X17444   2.034   3.184   9.107 -0.0518 -0.9209  2.6562
  156SAPE   H8Y17445   2.101   3.351   9.123  0.9084 -0.4106  0.8278
  156SAPE   C3917446   1.906   3.336   9.015 -0.6142  0.2071  0.3277
  156SAPE   H9X17447   1.848   3.426   9.043 -2.2866 -0.3130 -1.3537
  156SAPE   H9Y17448   1.832   3.253   9.015  1.1177 -1.3763 -0.4287
  156SAPE  C31017449   1.973   3.344   8.874  0.5149 -0.3567  0.2093
  156SAPE  H10X17450   2.018   3.244   8.864  0.5234 -0.4983  1.5618
  156SAPE  H10Y17451   2.054   3.420   8.883  0.1419  0.2401 -1.2177
  156SAPE  C31117452   1.868   3.368   8.769  0.2499  0.4152 -0.2761
  156SAPE  H11X17453   1.777   3.314   8.802  0.6853  0.0040  0.2617
  156SAPE  H11Y17454   1.911   3.332   8.673 -0.2414 -1.8198  0.3163
  156SAPE  C31217455   1.830   3.512   8.735 -0.3128  0.8363 -0.1734
  156SAPE  H12X17456   1.907   3.553   8.667  0.6573  1.2868  1.1659
  156SAPE  H12Y17457   1.843   3.572   8.828  0.3303  0.8891 -0.2924
  156SAPE  C31317458   1.690   3.539   8.678  1.0896 -0.7708  0.1876
  156SAPE  H13X17459   1.671   3.649   8.680  0.3002 -0.8451 -1.7148
  156SAPE  H13Y17460   1.609   3.503   8.745  1.4557 -0.1544  0.9688
  156SAPE  C31417461   1.662   3.488   8.536 -0.0631 -0.2103 -0.7433
  156SAPE  H14X17462   1.662   3.377   8.545  0.9348 -0.0588  1.3525
  156SAPE  H14Y17463   1.753   3.507   8.475  1.4553  1.0385  1.8559
  156SAPE  C31517464   1.533   3.531   8.473  0.5940  0.0994  0.2083
  156SAPE  H15X17465   1.543   3.639   8.450 -1.0723  0.0450 -0.8956
  156SAPE  H15Y17466   1.451   3.515   8.546 -0.0300 -2.6875 -1.0251
  156SAPE  C31617467   1.505   3.457   8.345 -0.1459  0.1437 -0.2578
  156SAPE  H16X17468   1.498   3.348   8.367  1.8478  0.1606  0.5492
  156SAPE  H16Y17469   1.594   3.470   8.279  0.0274  1.1397  0.1649
  156SAPE  C31717470   1.375   3.504   8.272 -0.3032 -0.1370 -0.3091
  156SAPE  H17X17471   1.280   3.472   8.320 -1.9972  2.2303 -2.0087
  156SAPE  H17Y17472   1.380   3.455   8.172  0.7183  1.1953 -0.9198
  156SAPE  C31817473   1.370   3.653   8.244  0.1994  0.4798  0.1293
  156SAPE  H18X17474   1.360   3.720   8.332 -0.5019  0.0293  0.4002
  156SAPE  H18Y17475   1.279   3.684   8.187  0.0526 -0.4226 -0.1280
  156SAPE  H18Z17476   1.466   3.680   8.195  0.1913 -0.3218 -0.3207
  157SAPE     N17477   1.570   2.924  10.629 -0.5262 -0.0659 -0.1805
  157SAPE   HN117478   1.600   3.015  10.671 -1.7843 -0.1070  0.8491
  157SAPE   HN217479   1.650   2.873  10.586 -1.3855 -1.4976 -0.1015
  157SAPE   HN317480   1.500   2.929  10.553  0.5302 -0.8863 -1.2346
  157SAPE   C1217481   1.506   2.849  10.740  0.2765 -0.1833 -0.4903
  157SAPE  H12A17482   1.471   2.930  10.808 -0.8168 -0.7121 -0.4246
  157SAPE  H12B17483   1.584   2.779  10.777 -0.6733 -0.2760  1.4011
  157SAPE   C1117484   1.385   2.771  10.704  0.4935  0.0347 -0.3072
  157SAPE  H11A17485   1.353   2.727  10.801  1.4322  1.4422  0.6642
  157SAPE  H11B17486   1.410   2.702  10.620 -0.8335  1.5980 -2.0363
  157SAPE     P17487   1.170   2.916  10.744 -0.0248  0.0636 -0.0169
  157SAPE   O1317488   1.199   2.887  10.879 -0.3335 -0.3056  0.1548
  157SAPE   O1417489   1.153   3.058  10.711  0.1211 -0.1649  0.1243
  157SAPE   O1217490   1.286   2.863  10.651 -0.1667  0.6547 -0.1044
  157SAPE   O1117491   1.046   2.831  10.703 -0.8547  0.1515  0.1079
  157SAPE    C117492   1.042   2.713  10.638 -1.0204  0.0116  0.1025
  157SAPE    HA17493   1.119   2.640  10.671 -2.8070 -1.4201  1.1922
  157SAPE    HB17494   0.948   2.666  10.672 -0.3585 -0.7645  0.8874
  157SAPE    C217495   1.057   2.731  10.487 -0.2508 -0.4675  0.0231
  157SAPE    HS17496   1.165   2.757  10.482 -0.3079 -0.2191  0.0477
  157SAPE   O2117497   0.973   2.832  10.434 -0.5543  0.4577 -0.0538
  157SAPE   C2117498   1.012   2.892  10.317  0.2411  0.2561  0.3984
  157SAPE   O2217499   1.125   2.884  10.267  0.2262 -0.7322  0.4528
  157SAPE   C2217500   0.898   2.977  10.265 -0.4669 -0.1681 -0.1546
  157SAPE   H2R17501   0.816   2.905  10.247  0.2626 -0.5989 -1.8086
  157SAPE   H2S17502   0.854   3.041  10.345 -1.6942 -0.2889 -0.7270
  157SAPE    C317503   1.039   2.599  10.412 -0.0001  0.3068 -0.1428
  157SAPE    HX17504   0.948   2.546  10.448 -2.1490  2.5486 -2.0765
  157SAPE    HY17505   1.128   2.535  10.423 -0.2516 -0.4412 -2.4037
  157SAPE   O3117506   1.010   2.618  10.272  0.6412  0.9868 -0.4770
  157SAPE   C3117507   0.956   2.514  10.209 -0.4209  0.2410  1.0799
  157SAPE   O3217508   0.954   2.402  10.247  0.2079  0.1656 -0.0709
  157SAPE   C3217509   0.904   2.552  10.069 -0.3026  0.0082  0.1809
  157SAPE   H2X17510   0.910   2.661  10.052 -1.3428 -0.2880 -2.2184
  157SAPE   H2Y17511   0.793   2.546  10.074 -0.2899 -1.5383 -0.8282
  157SAPE   C2317512   0.924   3.049  10.128  0.3335  0.2065  0.0453
  157SAPE   H3R17513   1.012   3.117  10.133  0.3918  0.2755 -1.7592
  157SAPE   H3S17514   0.844   3.114  10.087 -1.7481  0.0724  3.6870
  157SAPE   C2417515   0.961   2.951  10.008 -0.5187  0.3670 -0.0305
  157SAPE   H4R17516   0.871   2.887   9.993  0.4413 -0.9400 -0.3817
  157SAPE   H4S17517   1.038   2.876  10.038 -1.4880 -0.7446 -0.2669
  157SAPE   C2517518   1.008   3.022   9.881 -0.4340 -0.5209  0.4512
  157SAPE   H5R17519   1.072   3.110   9.900 -1.0892 -0.1739  1.0422
  157SAPE   C2617520   0.979   2.989   9.757 -0.4540 -0.2425 -0.0493
  157SAPE   H6R17521   1.010   3.063   9.682 -3.3267 -0.2253 -1.2891
  157SAPE   C2717522   0.895   2.874   9.701 -0.3976  0.4550  0.0278
  157SAPE   H7R17523   0.829   2.838   9.783  0.3393 -1.7503 -0.3107
  157SAPE   H7S17524   0.967   2.793   9.679  0.2782  1.1550 -0.3487
  157SAPE   C2817525   0.809   2.893   9.585 -0.4290  0.4416 -1.0049
  157SAPE   H8R17526   0.702   2.909   9.607 -0.3536  0.6457 -0.7927
  157SAPE   C2917527   0.842   2.873   9.457  0.3631  1.0603 -0.9377
  157SAPE   H9R17528   0.764   2.910   9.390 -1.2659  0.7044  0.7356
  157SAPE  C21017529   0.980   2.844   9.409 -0.5575  0.4411 -0.4189
  157SAPE  H10R17530   0.984   2.745   9.358  1.2243  0.5709 -0.5587
  157SAPE  H10S17531   1.050   2.830   9.494 -1.5018  0.3149  0.3483
  157SAPE  C21117532   1.044   2.942   9.313 -0.5857  0.8996  0.4941
  157SAPE  H11R17533   1.124   3.001   9.361  0.1847 -0.0519  0.3907
  157SAPE  C21217534   1.021   2.955   9.182 -0.0261 -0.6587  0.1886
  157SAPE  H12R17535   1.086   3.021   9.122 -3.4129  2.2926 -0.4199
  157SAPE  C21317536   0.913   2.886   9.102  0.5543 -0.2777 -0.7063
  157SAPE  H13R17537   0.815   2.903   9.152  0.9044  0.7502 -0.3738
  157SAPE  H13S17538   0.924   2.776   9.088 -2.0274 -0.5866 -0.5484
  157SAPE  C21417539   0.908   2.946   8.964  0.5567  0.6599 -0.3563
  157SAPE  H14R17540   0.850   3.039   8.966 -0.9553 -0.2369 -1.1973
  157SAPE  C21517541   0.946   2.892   8.847 -0.1530 -0.3030  0.1970
  157SAPE  H15R17542   0.935   2.954   8.756  2.2775 -2.8360 -1.9169
  157SAPE  C21617543   1.011   2.757   8.827  0.5691  0.8275 -0.2735
  157SAPE  H16R17544   1.070   2.719   8.914 -1.4020 -1.8759 -0.0480
  157SAPE  H16S17545   1.079   2.773   8.741  1.4064 -0.3962  0.1435
  157SAPE  C21717546   0.917   2.644   8.769 -0.4161 -1.2510  0.1798
  157SAPE  H17R17547   0.829   2.633   8.836 -0.8855 -1.4176 -0.4473
  157SAPE  H17S17548   0.968   2.545   8.773 -0.6494 -1.4162 -0.7252
  157SAPE  C21817549   0.874   2.673   8.620 -0.1436  0.5181  0.2267
  157SAPE  H18R17550   0.964   2.720   8.576  1.2228 -0.2363  2.1595
  157SAPE  H18S17551   0.788   2.743   8.625  1.1825  2.3504 -2.0805
  157SAPE  C21917552   0.826   2.554   8.538 -0.2105  0.0567  0.1608
  157SAPE  H19R17553   0.735   2.520   8.592 -0.4502 -1.0613 -0.9195
  157SAPE  H19S17554   0.904   2.476   8.527  1.4418  1.5004  1.4912
  157SAPE  C22017555   0.777   2.613   8.405  0.3483 -0.1332 -0.3437
  157SAPE  H20R17556   0.689   2.679   8.417 -0.4509 -1.3419  0.4701
  157SAPE  H20S17557   0.746   2.539   8.328 -1.0929  0.8020 -0.6692
  157SAPE  H20T17558   0.867   2.658   8.358  0.0883  1.3525  0.5411
  157SAPE   C3317559   0.973   2.468   9.955  0.4380 -0.4198  0.5783
  157SAPE   H3X17560   0.948   2.360   9.962  0.2012 -0.4359 -0.4596
  157SAPE   H3Y17561   1.084   2.480   9.952  0.1800  1.9093 -1.9040
  157SAPE   C3417562   0.930   2.507   9.810  0.4826  0.0158 -0.3526
  157SAPE   H4X17563   0.967   2.610   9.791  0.7382  0.0498  0.3212
  157SAPE   H4Y17564   0.820   2.501   9.796  0.2152 -1.8990  2.2559
  157SAPE   C3517565   0.980   2.425   9.689  0.0063 -0.9851 -0.6243
  157SAPE   H5X17566   0.961   2.317   9.709 -1.0771 -0.3663  1.8658
  157SAPE   H5Y17567   1.091   2.436   9.690 -0.1371  0.6105  1.6500
  157SAPE   C3617568   0.930   2.477   9.554 -0.2287 -0.8273 -0.0038
  157SAPE   H6X17569   0.960   2.582   9.537 -2.9543  0.0619  0.3208
  157SAPE   H6Y17570   0.819   2.478   9.539 -0.1634 -2.5896 -0.7760
  157SAPE   C3717571   0.979   2.394   9.434  0.5068  0.2963  0.4544
  157SAPE   H7X17572   0.953   2.287   9.451 -1.2614  1.1763  3.6753
  157SAPE   H7Y17573   1.088   2.409   9.421  0.3002  0.1806 -1.5741
  157SAPE   C3817574   0.924   2.444   9.298  0.8861 -0.3215  0.3037
  157SAPE   H8X17575   0.942   2.553   9.289 -0.1096 -0.2544 -1.0436
  157SAPE   H8Y17576   0.816   2.428   9.319  1.0489  0.3980  1.7340
  157SAPE   C3917577   0.981   2.356   9.188  0.3800  0.0644  0.6684
  157SAPE   H9X17578   0.971   2.248   9.212 -1.3884 -0.0719 -0.5894
  157SAPE   H9Y17579   1.092   2.357   9.186  0.3527  0.1141 -0.7868
  157SAPE  C31017580   0.924   2.375   9.046  0.0870 -0.8336 -0.2267
  157SAPE  H10X17581   0.995   2.334   8.971  0.4274  0.9387 -0.8912
  157SAPE  H10Y17582   0.930   2.484   9.025  1.6797 -0.7349  0.6331
  157SAPE  C31117583   0.782   2.317   9.026  0.4591 -0.1152  0.4187
  157SAPE  H11X17584   0.716   2.391   9.078  2.2021 -0.3388  3.0296
  157SAPE  H11Y17585   0.780   2.216   9.073  0.5746 -0.6018 -0.6186
  157SAPE  C31217586   0.746   2.317   8.882  0.1003 -0.5008  0.3612
  157SAPE  H12X17587   0.804   2.232   8.838 -1.3186 -2.8096  2.7866
  157SAPE  H12Y17588   0.772   2.408   8.825 -1.3145 -0.0767  0.3807
  157SAPE  C31317589   0.594   2.297   8.849 -0.1684 -0.2969 -0.5085
  157SAPE  H13X17590   0.548   2.392   8.884 -0.8199 -0.5848 -0.5778
  157SAPE  H13Y17591   0.554   2.215   8.913  0.5265 -0.7643 -0.6657
  157SAPE  C31417592   0.567   2.270   8.700 -0.2917  0.6002 -0.0338
  157SAPE  H14X17593   0.669   2.269   8.655 -1.2616  3.0797 -2.4545
  157SAPE  H14Y17594   0.504   2.354   8.663  0.8570  2.1265  1.3766
  157SAPE  C31517595   0.491   2.129   8.672 -0.1245 -0.6967 -0.5008
  157SAPE  H15X17596   0.388   2.136   8.714  0.2837  0.0704  0.3987
  157SAPE  H15Y17597   0.545   2.049   8.727  0.3122 -1.2099 -1.6758
  157SAPE  C31617598   0.481   2.086   8.523 -0.0790  0.1085 -1.0990
  157SAPE  H16X17599   0.423   1.991   8.526  0.3982 -0.1709 -0.7344
  157SAPE  H16Y17600   0.582   2.057   8.489 -0.2656 -0.5995 -1.0624
  157SAPE  C31717601   0.398   2.192   8.449 -0.0740  0.0129  0.6475
  157SAPE  H17X17602   0.466   2.278   8.431 -0.9497  0.5219 -0.2609
  157SAPE  H17Y17603   0.316   2.230   8.513  1.4239  2.8881  0.9464
  157SAPE  C31817604   0.346   2.133   8.320 -0.0641 -0.3680  0.1612
  157SAPE  H18X17605   0.420   2.086   8.253 -1.8097 -2.1918 -0.5355
  157SAPE  H18Y17606   0.291   2.209   8.260  1.4440 -0.0986 -0.9033
  157SAPE  H18Z17607   0.267   2.057   8.338  0.7253 -1.0532  0.7924
  158SAPE     N17608   2.839   4.642  10.764 -0.5820 -0.6743  0.2220
  158SAPE   HN117609   2.841   4.740  10.799  2.4266 -0.6044 -0.0217
  158SAPE   HN217610   2.916   4.641  10.694 -0.8275  0.4697 -0.0791
  158SAPE   HN317611   2.748   4.620  10.718 -1.1086 -1.1829  1.4950
  158SAPE   C1217612   2.868   4.547  10.875  0.1544 -0.0122  0.2267
  158SAPE  H12A17613   2.799   4.552  10.962  1.7797 -0.8390  1.6078
  158SAPE  H12B17614   2.967   4.578  10.914 -0.0440 -0.1114  0.8081
  158SAPE   C1117615   2.850   4.404  10.825  0.9394 -0.1889 -0.6149
  158SAPE  H11A17616   2.746   4.369  10.812  0.3717  1.5515 -0.8500
  158SAPE  H11B17617   2.883   4.331  10.903 -0.8591  1.9846  2.2503
  158SAPE     P17618   3.058   4.325  10.686 -0.0030  0.9466  0.1132
  158SAPE   O1317619   3.140   4.415  10.597 -0.5047  0.5725 -0.3272
  158SAPE   O1417620   3.119   4.295  10.817  0.2963 -0.4420  0.5391
  158SAPE   O1217621   2.920   4.389  10.701 -0.3831  0.5282  0.0805
  158SAPE   O1117622   3.042   4.193  10.602  0.3317 -0.2250  0.1605
  158SAPE    C117623   2.984   4.178  10.471 -0.4165 -0.3255 -0.2508
  158SAPE    HA17624   2.927   4.084  10.457 -3.1387  0.9706  1.7308
  158SAPE    HB17625   2.911   4.260  10.455 -1.4836 -1.1399  0.3754
  158SAPE    C217626   3.094   4.203  10.359 -0.1081 -0.2734 -0.4133
  158SAPE    HS17627   3.148   4.297  10.386 -1.4630  0.4081 -0.0408
  158SAPE   O2117628   3.033   4.211  10.227  0.0817 -0.2978 -0.0024
  158SAPE   C2117629   3.102   4.277  10.124  0.2428 -0.2432  0.0863
  158SAPE   O2217630   3.211   4.336  10.141  0.3774 -0.1373 -0.3408
  158SAPE   C2217631   3.025   4.266   9.992  0.3008  0.9685  0.4499
  158SAPE   H2R17632   2.952   4.182   9.993  1.2135  0.1726  1.6883
  158SAPE   H2S17633   2.966   4.360   9.992 -0.5267  0.4591  1.7837
  158SAPE    C317634   3.207   4.097  10.359 -0.1166 -0.5904  0.2472
  158SAPE    HX17635   3.227   4.070  10.465 -0.2043 -0.6875  0.2401
  158SAPE    HY17636   3.297   4.152  10.323 -0.0629  0.0079  1.2738
  158SAPE   O3117637   3.175   3.986  10.272 -0.2498 -0.0533  0.0137
  158SAPE   C3117638   3.126   3.874  10.317 -0.6886  0.2742 -0.9910
  158SAPE   O3217639   3.109   3.851  10.440 -0.2603 -0.2408  0.2888
  158SAPE   C3217640   3.117   3.782  10.203  0.3235 -0.0133  0.2024
  158SAPE   H2X17641   3.115   3.680  10.247 -2.6371  0.0482  0.3019
  158SAPE   H2Y17642   3.218   3.775  10.159  1.2861  0.6876  2.2081
  158SAPE   C2317643   3.120   4.261   9.861  0.4029  0.4889 -0.3767
  158SAPE   H3R17644   3.192   4.181   9.888 -0.9262 -0.3944  0.5752
  158SAPE   H3S17645   3.167   4.362   9.848  1.1213  0.2532  0.3225
  158SAPE   C2417646   3.045   4.219   9.739  0.4777 -0.1138  0.7741
  158SAPE   H4R17647   2.992   4.306   9.694  0.5736 -0.7729 -0.6473
  158SAPE   H4S17648   2.971   4.141   9.767 -0.9595  0.8180 -0.3215
  158SAPE   C2517649   3.128   4.148   9.635  0.3333 -0.1982 -0.3204
  158SAPE   H5R17650   3.211   4.083   9.665  0.8982  0.8519  0.4309
  158SAPE   C2617651   3.116   4.153   9.501 -0.8999  0.2250 -0.2138
  158SAPE   H6R17652   3.182   4.082   9.450  0.2086 -0.7327  2.4430
  158SAPE   C2717653   3.025   4.226   9.412  0.7196  0.2694 -0.1371
  158SAPE   H7R17654   2.950   4.281   9.472  0.6209 -0.3149  0.2783
  158SAPE   H7S17655   2.958   4.159   9.354  0.6719 -1.1205  1.4862
  158SAPE   C2817656   3.093   4.318   9.306  0.0586 -0.2328 -0.4606
  158SAPE   H8R17657   3.094   4.421   9.344 -3.2920  0.7928 -2.9344
  158SAPE   C2917658   3.137   4.294   9.182  0.0766 -0.5228 -0.4253
  158SAPE   H9R17659   3.194   4.373   9.131 -0.8477 -0.3555 -1.1995
  158SAPE  C21017660   3.158   4.157   9.107  0.1300 -0.9320 -0.2182
  158SAPE  H10R17661   3.062   4.135   9.056 -0.4239 -0.3422  0.5614
  158SAPE  H10S17662   3.177   4.069   9.173  0.2721 -0.2112  0.7050
  158SAPE  C21117663   3.267   4.167   9.006  0.2534  0.6162 -0.1018
  158SAPE  H11R17664   3.366   4.130   9.036 -0.1001  1.4205  2.1155
  158SAPE  C21217665   3.249   4.209   8.877  0.3644  0.2251  0.3232
  158SAPE  H12R17666   3.331   4.210   8.804  0.2392  0.2880  0.1841
  158SAPE  C21317667   3.116   4.260   8.822 -0.1879 -0.3712 -0.3502
  158SAPE  H13R17668   3.097   4.363   8.860 -2.6842 -1.0846  0.4027
  158SAPE  H13S17669   3.031   4.198   8.855 -1.2400  1.3353  0.1935
  158SAPE  C21417670   3.124   4.257   8.672  0.3748 -0.2545 -0.3619
  158SAPE  H14R17671   3.153   4.157   8.636  0.5150 -1.2985  2.5467
  158SAPE  C21517672   3.101   4.355   8.582  0.7550 -0.1136 -0.5403
  158SAPE  H15R17673   3.124   4.332   8.477 -0.1581  1.2620 -1.0606
  158SAPE  C21617674   3.064   4.492   8.619  0.7428  0.1698 -0.0775
  158SAPE  H16R17675   3.073   4.558   8.530  3.0170 -2.2380 -1.7368
  158SAPE  H16S17676   3.129   4.525   8.702 -0.7326 -0.6449  1.4510
  158SAPE  C21717677   2.915   4.510   8.652  0.0619 -0.0050  0.5627
  158SAPE  H17R17678   2.885   4.449   8.740 -1.0654 -0.3591 -0.0605
  158SAPE  H17S17679   2.862   4.476   8.561 -1.8851 -0.7484  1.9313
  158SAPE  C21817680   2.868   4.655   8.673  0.0017 -0.9987 -0.6049
  158SAPE  H18R17681   2.898   4.717   8.585 -0.8780  2.2652  1.3178
  158SAPE  H18S17682   2.916   4.707   8.758  2.2304  0.7102 -2.8320
  158SAPE  C21917683   2.720   4.655   8.695  0.0601 -0.0575  0.2929
  158SAPE  H19R17684   2.678   4.712   8.781 -1.1788 -0.6723  0.1163
  158SAPE  H19S17685   2.687   4.553   8.727  0.4581 -1.0637 -2.3885
  158SAPE  C22017686   2.637   4.695   8.572  0.2856 -0.4571 -0.5240
  158SAPE  H20R17687   2.627   4.805   8.562 -1.2673 -0.5942 -0.5636
  158SAPE  H20S17688   2.532   4.660   8.577  0.2581 -0.5216 -1.4980
  158SAPE  H20T17689   2.663   4.644   8.477 -1.6471 -1.8473 -0.3194
  158SAPE   C3317690   3.004   3.809  10.098 -0.4421 -0.2376  0.0950
  158SAPE   H3X17691   2.961   3.908  10.123 -0.7261 -0.1293 -0.8056
  158SAPE   H3Y17692   2.930   3.726  10.093 -1.3305  0.5877 -0.6802
  158SAPE   C3417693   3.075   3.805   9.958  0.1252  0.2837 -0.3693
  158SAPE   H4X17694   3.126   3.707   9.950 -0.7087 -0.0026 -2.4223
  158SAPE   H4Y17695   3.145   3.892   9.958 -3.0363  2.9177  0.9778
  158SAPE   C3517696   2.971   3.830   9.845 -0.4110  0.1303 -0.3036
  158SAPE   H5X17697   2.945   3.938   9.850 -2.1683 -0.3491  2.1846
  158SAPE   H5Y17698   2.876   3.779   9.872  1.0475 -1.3832  2.1987
  158SAPE   C3617699   3.019   3.798   9.708 -0.0270 -0.5264 -0.0659
  158SAPE   H6X17700   3.061   3.695   9.715 -0.1894 -0.5725  0.2425
  158SAPE   H6Y17701   3.108   3.861   9.689  0.9187 -0.6782  3.5122
  158SAPE   C3717702   2.909   3.808   9.607  0.6240 -0.6231 -0.2144
  158SAPE   H7X17703   2.943   3.775   9.507 -1.6252  1.6862 -1.8191
  158SAPE   H7Y17704   2.876   3.912   9.585 -0.4561 -0.7384  0.8233
  158SAPE   C3817705   2.787   3.722   9.631 -0.9299 -1.0899  0.3644
  158SAPE   H8X17706   2.725   3.779   9.704  0.1068  1.0056 -0.3453
  158SAPE   H8Y17707   2.821   3.637   9.694 -0.7391 -1.5337 -0.3426
  158SAPE   C3917708   2.725   3.679   9.497 -0.0933 -0.3495 -0.0926
  158SAPE   H9X17709   2.805   3.627   9.440 -0.3190  0.1200 -0.8457
  158SAPE   H9Y17710   2.688   3.763   9.434  4.6179 -0.9103 -3.8881
  158SAPE  C31017711   2.608   3.580   9.531 -0.6980 -0.1116 -0.2868
  158SAPE  H10X17712   2.630   3.517   9.620 -1.7734 -1.8500 -1.2191
  158SAPE  H10Y17713   2.595   3.508   9.447  2.5069 -0.3275 -0.6701
  158SAPE  C31117714   2.470   3.652   9.554  0.6519 -0.6409 -0.6518
  158SAPE  H11X17715   2.403   3.638   9.466  0.8828 -0.6287 -0.8281
  158SAPE  H11Y17716   2.489   3.760   9.571  0.6593 -0.3781 -2.2232
  158SAPE  C31217717   2.393   3.604   9.681  0.2376 -0.5094  0.1314
  158SAPE  H12X17718   2.371   3.496   9.665  1.1084 -0.7624  0.5989
  158SAPE  H12Y17719   2.291   3.647   9.680  0.8713  1.0274  0.6757
  158SAPE  C31317720   2.462   3.637   9.814  0.2633  0.9352  0.3870
  158SAPE  H13X17721   2.532   3.719   9.790  0.8732  0.2063 -0.3698
  158SAPE  H13Y17722   2.515   3.546   9.850 -2.4502 -0.7891  0.1727
  158SAPE  C31417723   2.375   3.685   9.923  0.1045 -0.1633  0.1325
  158SAPE  H14X17724   2.287   3.618   9.932  0.2873  0.0813  4.3407
  158SAPE  H14Y17725   2.333   3.781   9.885  0.2005  0.6167  1.9895
  158SAPE  C31517726   2.436   3.708  10.056  0.3354  0.1037  0.5942
  158SAPE  H15X17727   2.500   3.625  10.092 -0.5108  0.2786  2.5784
  158SAPE  H15Y17728   2.359   3.733  10.132 -0.4564  4.1413 -1.3781
  158SAPE  C31617729   2.527   3.828  10.050  0.1573  0.6022  0.0788
  158SAPE  H16X17730   2.473   3.917  10.011  0.8549  0.5803 -0.9457
  158SAPE  H16Y17731   2.621   3.817   9.993  0.7051  0.0412  1.0710
  158SAPE  C31717732   2.561   3.882  10.200 -0.0832  0.1536 -0.8336
  158SAPE  H17X17733   2.619   3.804  10.254 -1.6207  0.4409  1.2677
  158SAPE  H17Y17734   2.459   3.878  10.242 -0.4040 -1.2161 -1.6944
  158SAPE  C31817735   2.636   4.015  10.185  0.4143  0.6513 -0.2882
  158SAPE  H18X17736   2.571   4.093  10.140 -0.5848  0.2577  0.4477
  158SAPE  H18Y17737   2.736   4.011  10.137  0.3438 -2.9509 -0.2576
  158SAPE  H18Z17738   2.661   4.064  10.281 -1.6628 -0.7502  1.0208
  159SAPE     N17739   0.850   1.518   6.441 -0.6774  0.0058  0.5817
  159SAPE   HN117740   0.879   1.617   6.455 -3.0011  0.7267  0.3977
  159SAPE   HN217741   0.760   1.522   6.390  0.7031 -4.1330 -2.5252
  159SAPE   HN317742   0.844   1.468   6.532 -2.5601  0.3173  0.6510
  159SAPE   C1217743   0.934   1.438   6.351 -0.5681  0.3553  0.1432
  159SAPE  H12A17744   1.041   1.452   6.381 -0.7733  1.9225  0.1801
  159SAPE  H12B17745   0.918   1.473   6.247  0.2057 -0.8413 -0.3913
  159SAPE   C1117746   0.896   1.289   6.341 -0.2065  0.3154  0.6239
  159SAPE  H11A17747   0.967   1.246   6.267  0.0732 -0.7845  1.5197
  159SAPE  H11B17748   0.791   1.270   6.309  1.0105 -3.6681 -1.2973
  159SAPE     P17749   1.010   1.116   6.510  0.1034  0.2149  0.1136
  159SAPE   O1317750   0.976   0.993   6.440  0.5716  0.4053 -0.6473
  159SAPE   O1417751   1.138   1.186   6.494 -0.0309 -0.1319 -0.1113
  159SAPE   O1217752   0.906   1.226   6.463 -0.2965 -0.1095  0.4254
  159SAPE   O1117753   0.986   1.084   6.660  0.3473 -0.1145 -0.0715
  159SAPE    C117754   0.999   1.174   6.771 -0.2420  1.3874  0.3412
  159SAPE    HA17755   1.058   1.264   6.743  0.8897  0.2724 -0.9277
  159SAPE    HB17756   0.907   1.206   6.825 -1.7873 -1.6477 -0.3562
  159SAPE    C217757   1.092   1.103   6.884  0.5115  0.1844  0.1797
  159SAPE    HS17758   1.177   1.055   6.832  0.6408  1.7536 -1.1279
  159SAPE   O2117759   1.007   1.014   6.952  0.1229 -0.0743  0.1886
  159SAPE   C2117760   1.015   0.889   6.935  0.2192 -0.0291  0.1749
  159SAPE   O2217761   1.104   0.828   6.874  0.0886 -0.0883  0.1960
  159SAPE   C2217762   0.906   0.823   7.021  0.6486 -0.5579  0.1586
  159SAPE   H2R17763   0.878   0.899   7.098  2.5643  0.9644 -0.6134
  159SAPE   H2S17764   0.812   0.813   6.962  1.8162  0.9968 -2.0341
  159SAPE    C317765   1.148   1.207   6.983  0.7353  0.4103  0.0904
  159SAPE    HX17766   1.066   1.282   6.995 -0.5173 -0.6686 -1.4397
  159SAPE    HY17767   1.230   1.259   6.929  2.0875  1.0965  2.7077
  159SAPE   O3117768   1.199   1.154   7.109  0.0486 -0.0160  0.7078
  159SAPE   C3117769   1.317   1.085   7.117 -0.1605 -0.1009 -0.2211
  159SAPE   O3217770   1.390   1.059   7.026 -0.2317 -0.0871  0.7739
  159SAPE   C3217771   1.333   1.053   7.258 -0.2674 -0.4292  0.2389
  159SAPE   H2X17772   1.273   0.962   7.282  0.1267 -0.7900 -0.1285
  159SAPE   H2Y17773   1.283   1.128   7.322  1.2403  1.6145 -0.9374
  159SAPE   C2317774   0.957   0.695   7.090  0.5513  0.2957  0.3591
  159SAPE   H3R17775   1.049   0.725   7.145 -0.6674  1.6329  1.7177
  159SAPE   H3S17776   0.996   0.628   7.010 -2.1178 -1.5052  0.4892
  159SAPE   C2417777   0.855   0.626   7.177 -0.0671  0.5085 -0.6319
  159SAPE   H4R17778   0.756   0.635   7.127 -0.1682 -0.4935 -0.6386
  159SAPE   H4S17779   0.853   0.687   7.270 -0.6843  0.1066 -0.3754
  159SAPE   C2517780   0.884   0.481   7.210  0.6370  0.3840 -0.4819
  159SAPE   H5R17781   0.886   0.425   7.116  0.0389  1.6090 -1.2283
  159SAPE   C2617782   0.899   0.419   7.329 -0.5686 -0.2001 -0.4805
  159SAPE   H6R17783   0.928   0.313   7.331 -1.2753 -0.4550 -2.5807
  159SAPE   C2717784   0.893   0.495   7.460  0.3126  0.3117  0.2271
  159SAPE   H7R17785   0.809   0.456   7.522  1.1089 -0.2086  0.9865
  159SAPE   H7S17786   0.867   0.601   7.443 -0.5971 -0.2602 -2.0666
  159SAPE   C2817787   1.022   0.469   7.538 -0.3410  0.1531  0.4984
  159SAPE   H8R17788   1.108   0.446   7.474 -1.4072 -3.4279  0.2627
  159SAPE   C2917789   1.031   0.458   7.677 -0.1136  0.0429  0.4776
  159SAPE   H9R17790   1.113   0.408   7.731  0.3243  1.1158  0.8151
  159SAPE  C21017791   0.910   0.473   7.767 -0.1822 -1.1823  0.2433
  159SAPE  H10R17792   0.842   0.544   7.715  0.0908 -1.6796 -0.8139
  159SAPE  H10S17793   0.928   0.513   7.869 -0.4630 -0.5062  0.0332
  159SAPE  C21117794   0.834   0.343   7.775 -0.6238  0.5607 -0.6930
  159SAPE  H11R17795   0.813   0.293   7.679 -1.8419 -0.1156 -0.0859
  159SAPE  C21217796   0.767   0.292   7.877  0.3798  1.0406 -0.2776
  159SAPE  H12R17797   0.727   0.190   7.868  3.4700 -0.3432  1.1312
  159SAPE  C21317798   0.751   0.359   8.012  0.1509  0.0258  0.4208
  159SAPE  H13R17799   0.658   0.420   8.007 -0.2402 -0.6219 -0.3857
  159SAPE  H13S17800   0.834   0.425   8.044  0.1999 -0.6065  1.6250
  159SAPE  C21417801   0.735   0.240   8.107  0.5307 -1.5395 -0.2697
  159SAPE  H14R17802   0.813   0.163   8.111  0.7212 -1.2390  2.5710
  159SAPE  C21517803   0.639   0.232   8.200  0.0226  0.0397 -0.1893
  159SAPE  H15R17804   0.638   0.136   8.254  0.4892 -0.3008 -0.7844
  159SAPE  C21617805   0.531   0.335   8.235  0.1414  0.6634 -0.1589
  159SAPE  H16R17806   0.428   0.301   8.208  0.9221 -1.6832 -0.2776
  159SAPE  H16S17807   0.548   0.437   8.196  2.8562  0.3924  0.2750
  159SAPE  C21717808   0.510   0.359   8.396 -0.1620  0.5472  0.4423
  159SAPE  H17R17809   0.439   0.445   8.398 -0.6756  0.3049 -3.1382
  159SAPE  H17S17810   0.609   0.390   8.436  0.2032  1.8600 -1.3858
  159SAPE  C21817811   0.452   0.238   8.475 -0.5026 -0.0741  0.9490
  159SAPE  H18R17812   0.526   0.157   8.459  0.2154  1.0979 -1.8106
  159SAPE  H18S17813   0.348   0.208   8.449 -0.7020  0.2420  1.3604
  159SAPE  C21917814   0.445   0.276   8.623 -0.1679  0.6261 -0.8613
  159SAPE  H19R17815   0.367   0.355   8.629 -0.4615  0.2004  1.3923
  159SAPE  H19S17816   0.538   0.317   8.667  0.3775  1.6302 -2.8865
  159SAPE  C22017817   0.409   0.160   8.707 -0.2040 -0.4845  0.2916
  159SAPE  H20R17818   0.388   0.198   8.809  2.1559 -0.8670  0.9366
  159SAPE  H20S17819   0.491   0.088   8.723  0.2530 -0.2105 -0.7384
  159SAPE  H20T17820   0.319   0.101   8.681  0.1590 -2.3947  3.2366
  159SAPE   C3317821   1.474   1.013   7.314  0.5935  0.3416  0.2179
  159SAPE   H3X17822   1.559   1.063   7.262 -1.1960  3.1941 -0.0470
  159SAPE   H3Y17823   1.497   0.908   7.286  2.4874  1.3812 -2.3162
  159SAPE   C3417824   1.496   1.018   7.467  0.3813 -0.0403  0.7074
  159SAPE   H4X17825   1.477   0.915   7.504 -4.2398  0.6893  0.6172
  159SAPE   H4Y17826   1.421   1.085   7.513  0.9356  2.0516 -1.3471
  159SAPE   C3517827   1.639   1.056   7.523  0.0394 -0.2085 -0.0843
  159SAPE   H5X17828   1.680   1.144   7.470 -2.5155  1.3226  0.3941
  159SAPE   H5Y17829   1.707   0.970   7.503 -2.0141 -2.2278  1.3204
  159SAPE   C3617830   1.637   1.081   7.674 -0.5372  0.2933  0.1300
  159SAPE   H6X17831   1.542   1.135   7.693  0.2404  0.5513  3.5887
  159SAPE   H6Y17832   1.729   1.138   7.696 -0.7822  1.6498 -2.2535
  159SAPE   C3717833   1.630   0.946   7.742 -0.1936 -0.1420 -0.2380
  159SAPE   H7X17834   1.723   0.886   7.732  0.2764  0.5748 -0.2471
  159SAPE   H7Y17835   1.545   0.888   7.700  1.0425 -0.2640 -2.7100
  159SAPE   C3817836   1.615   0.944   7.892  0.5305  0.2162  0.0905
  159SAPE   H8X17837   1.543   1.017   7.936  0.1248 -0.7075  0.9905
  159SAPE   H8Y17838   1.718   0.967   7.925  0.3503  2.4725 -0.8817
  159SAPE   C3917839   1.582   0.801   7.947  0.0260  0.5035  0.3128
  159SAPE   H9X17840   1.671   0.737   7.927 -1.0949 -0.9481 -0.1931
  159SAPE   H9Y17841   1.483   0.765   7.911  0.4775  0.8150 -1.3040
  159SAPE  C31017842   1.573   0.803   8.101  0.0298  0.3351 -0.1350
  159SAPE  H10X17843   1.500   0.873   8.147 -1.1956 -1.5791  0.8466
  159SAPE  H10Y17844   1.671   0.809   8.153 -0.2347 -0.5275  0.4687
  159SAPE  C31117845   1.525   0.668   8.164  0.4307 -0.3716 -0.4483
  159SAPE  H11X17846   1.609   0.594   8.162  0.3035 -0.6641  2.7417
  159SAPE  H11Y17847   1.435   0.633   8.109 -0.1943 -0.2099  0.4776
  159SAPE  C31217848   1.481   0.683   8.311  0.1817  0.0171  0.7226
  159SAPE  H12X17849   1.408   0.766   8.326  0.2681  0.6083 -1.9509
  159SAPE  H12Y17850   1.571   0.693   8.375 -0.0838 -0.3252  1.1606
  159SAPE  C31317851   1.421   0.546   8.356  0.2327 -0.0765  0.0172
  159SAPE  H13X17852   1.511   0.481   8.344  1.7049  1.8738  0.2270
  159SAPE  H13Y17853   1.340   0.526   8.283 -1.1138  1.7702  0.9606
  159SAPE  C31417854   1.367   0.547   8.500  0.2133  1.1396  0.4136
  159SAPE  H14X17855   1.258   0.557   8.481  0.6960  1.5357 -2.3974
  159SAPE  H14Y17856   1.406   0.639   8.548  1.0429  1.0303 -0.0533
  159SAPE  C31517857   1.396   0.419   8.578 -0.3746  0.5221 -0.2082
  159SAPE  H15X17858   1.365   0.426   8.684 -1.1645 -0.2756 -0.3908
  159SAPE  H15Y17859   1.505   0.395   8.585 -0.9966 -2.8647 -1.3182
  159SAPE  C31617860   1.319   0.298   8.528  0.5682 -0.2335  0.1294
  159SAPE  H16X17861   1.335   0.278   8.420  0.2470 -1.2623  0.2685
  159SAPE  H16Y17862   1.213   0.304   8.559  0.0247 -0.1503 -1.6866
  159SAPE  C31717863   1.374   0.167   8.590 -0.4458 -0.4504 -0.1054
  159SAPE  H17X17864   1.384   0.189   8.698 -2.8215  0.4877 -0.0399
  159SAPE  H17Y17865   1.479   0.158   8.557  0.4143 -0.0500  2.4279
  159SAPE  C31817866   1.306   0.037   8.568  0.5499  0.1588  0.2273
  159SAPE  H18X17867   1.210   0.024   8.624  0.2352  0.9098 -0.1447
  159SAPE  H18Y17868   1.380  -0.039   8.602  0.9970  1.7699  3.0342
  159SAPE  H18Z17869   1.272   0.030   8.463  1.7067 -0.7883 -0.0904
  160SAPE     N17870   6.772   1.303   6.624  0.3704  0.5445  0.3650
  160SAPE   HN117871   6.860   1.275   6.575 -0.8077 -0.2718 -1.3577
  160SAPE   HN217872   6.806   1.358   6.705  1.4082  0.2499  0.1419
  160SAPE   HN317873   6.723   1.217   6.654 -2.5157  1.9228 -0.2819
  160SAPE   C1217874   6.709   1.365   6.507  0.4224 -0.1462 -0.0914
  160SAPE  H12A17875   6.660   1.460   6.535  0.0488  0.2434 -1.9664
  160SAPE  H12B17876   6.619   1.303   6.484  0.1030 -0.9269  3.1228
  160SAPE   C1117877   6.810   1.405   6.399  0.0532  0.2278  0.6040
  160SAPE  H11A17878   6.757   1.466   6.323  1.2144  1.2187  0.5593
  160SAPE  H11B17879   6.866   1.318   6.359  3.4019  1.2373  2.8102
  160SAPE     P17880   6.993   1.593   6.387 -0.0235 -0.4505 -0.8242
  160SAPE   O1317881   7.127   1.603   6.454  0.1081  0.1128  0.0863
  160SAPE   O1417882   6.994   1.582   6.243  0.9484 -0.1210 -0.4691
  160SAPE   O1217883   6.911   1.487   6.451 -0.1729  0.3295  0.1578
  160SAPE   O1117884   6.903   1.717   6.416  0.2672 -0.6678 -0.0778
  160SAPE    C117885   6.942   1.816   6.520  0.4178  0.2994  0.8211
  160SAPE    HA17886   7.052   1.832   6.515  0.4067  0.5006  1.1820
  160SAPE    HB17887   6.903   1.916   6.493  0.7585 -0.7704 -4.0374
  160SAPE    C217888   6.903   1.774   6.659  0.2314 -0.1326  0.5486
  160SAPE    HS17889   6.946   1.672   6.675  0.4885  0.0081  0.7636
  160SAPE   O2117890   6.752   1.773   6.665 -0.0663  0.5013  0.1910
  160SAPE   C2117891   6.710   1.661   6.730  0.0170 -0.2637  0.4222
  160SAPE   O2217892   6.779   1.565   6.762  0.3644  0.3719 -0.4388
  160SAPE   C2217893   6.566   1.689   6.781 -0.2499  0.2441  0.0232
  160SAPE   H2R17894   6.563   1.721   6.888  0.4973 -1.9666  0.7228
  160SAPE   H2S17895   6.531   1.783   6.732  0.7110  0.1915 -0.7673
  160SAPE    C317896   6.953   1.880   6.764  0.3360  0.3633 -0.3023
  160SAPE    HX17897   6.929   1.984   6.736  1.6345  0.7673  0.0753
  160SAPE    HY17898   7.063   1.867   6.760  0.1950 -1.6394  1.0267
  160SAPE   O3117899   6.897   1.860   6.897  0.3920 -0.2113  0.2526
  160SAPE   C3117900   6.946   1.764   6.960 -0.2468  0.2797  0.5450
  160SAPE   O3217901   7.041   1.695   6.929  0.6516 -0.4977 -0.1162
  160SAPE   C3217902   6.859   1.743   7.084  0.1543 -0.0988 -0.0043
  160SAPE   H2X17903   6.842   1.633   7.089  2.4586 -0.5217 -0.8451
  160SAPE   H2Y17904   6.769   1.806   7.072 -0.2166 -0.9226 -1.7550
  160SAPE   C2317905   6.457   1.578   6.757  0.2919 -0.2111 -0.8973
  160SAPE   H3R17906   6.492   1.474   6.774 -0.0147  0.1194  2.0818
  160SAPE   H3S17907   6.418   1.589   6.654 -1.1839 -1.8680 -0.5367
  160SAPE   C2417908   6.323   1.605   6.822  0.9277  0.0546 -0.0901
  160SAPE   H4R17909   6.242   1.547   6.773  1.0512 -0.3705  0.2019
  160SAPE   H4S17910   6.285   1.708   6.806 -1.7723 -0.8042  0.5483
  160SAPE   C2517911   6.344   1.573   6.968  0.3375 -0.4587 -0.3117
  160SAPE   H5R17912   6.337   1.469   7.002 -0.0108  0.1962  1.6961
  160SAPE   C2617913   6.353   1.668   7.066  0.0664  0.0003 -0.0458
  160SAPE   H6R17914   6.365   1.626   7.167  0.5525 -1.0372 -0.5234
  160SAPE   C2717915   6.354   1.817   7.055  0.5625 -0.2348  0.1678
  160SAPE   H7R17916   6.331   1.851   6.952  0.8383  2.6165  0.9760
  160SAPE   H7S17917   6.458   1.851   7.069  1.2384 -1.4705 -1.7083
  160SAPE   C2817918   6.248   1.873   7.146  0.8736  0.3418 -0.4647
  160SAPE   H8R17919   6.145   1.874   7.107  1.2541  0.1174 -1.4781
  160SAPE   C2917920   6.252   1.886   7.282  0.8828 -0.5394  0.0384
  160SAPE   H9R17921   6.167   1.921   7.343 -0.8020 -2.9877 -0.8361
  160SAPE  C21017922   6.372   1.857   7.362 -0.1173 -0.5404  0.0303
  160SAPE  H10R17923   6.460   1.879   7.298  0.2406 -0.6191  0.4952
  160SAPE  H10S17924   6.382   1.748   7.381  2.9953 -0.3693 -0.2479
  160SAPE  C21117925   6.403   1.955   7.474  0.5244 -0.2788  0.5701
  160SAPE  H11R17926   6.400   2.060   7.441  1.7545  0.1228  1.7262
  160SAPE  C21217927   6.428   1.939   7.606  0.2166 -0.1477  0.0217
  160SAPE  H12R17928   6.434   2.024   7.675 -0.9817  2.0756 -2.5510
  160SAPE  C21317929   6.441   1.810   7.684  0.0866 -0.0183  0.6243
  160SAPE  H13R17930   6.498   1.828   7.779  0.2614  1.1181  0.3191
  160SAPE  H13S17931   6.502   1.732   7.634 -1.0405 -0.6604  0.2529
  160SAPE  C21417932   6.298   1.765   7.714  0.2787 -0.5353 -0.2367
  160SAPE  H14R17933   6.257   1.704   7.632 -2.8762  1.3627 -0.1392
  160SAPE  C21517934   6.216   1.791   7.820 -0.2911 -0.0378 -0.0369
  160SAPE  H15R17935   6.113   1.754   7.828  0.0833 -0.8483  1.1069
  160SAPE  C21617936   6.264   1.867   7.946  0.5590  0.1549  0.5648
  160SAPE  H16R17937   6.170   1.919   7.973 -1.0253 -2.2073 -0.3033
  160SAPE  H16S17938   6.333   1.948   7.913 -0.1682  0.8527  0.7441
  160SAPE  C21717939   6.311   1.779   8.062 -0.0319  0.4976 -0.6063
  160SAPE  H17R17940   6.420   1.757   8.052  0.5524  2.2275  1.5878
  160SAPE  H17S17941   6.251   1.686   8.072  1.4911 -0.2872  1.9922
  160SAPE  C21817942   6.287   1.850   8.204  0.4123 -0.6457  0.9897
  160SAPE  H18R17943   6.178   1.871   8.212  0.2065 -2.0854  2.3857
  160SAPE  H18S17944   6.341   1.947   8.193 -1.0668  0.0355 -0.3992
  160SAPE  C21917945   6.345   1.777   8.325 -0.2512  0.0453 -0.3143
  160SAPE  H19R17946   6.399   1.689   8.285 -1.0146  0.7031 -2.9455
  160SAPE  H19S17947   6.262   1.741   8.389 -1.4407  0.2384 -1.7010
  160SAPE  C22017948   6.444   1.861   8.416 -0.6086  0.8246 -0.0050
  160SAPE  H20R17949   6.511   1.787   8.465  0.5607  2.1964  0.4673
  160SAPE  H20S17950   6.370   1.910   8.482 -0.8992 -0.4845  0.6564
  160SAPE  H20T17951   6.509   1.934   8.363  1.4004 -0.8111  0.1501
  160SAPE   C3317952   6.933   1.761   7.221  0.2236 -0.3607  1.0936
  160SAPE   H3X17953   6.980   1.862   7.228  0.5314 -0.5075  1.1432
  160SAPE   H3Y17954   6.994   1.671   7.245  1.1245  0.1440  0.7349
  160SAPE   C3417955   6.821   1.750   7.327 -0.0999 -0.0947  0.1980
  160SAPE   H4X17956   6.767   1.653   7.327  0.6274 -0.5166 -2.4077
  160SAPE   H4Y17957   6.757   1.838   7.300 -0.6648 -1.1798 -2.1378
  160SAPE   C3517958   6.869   1.770   7.468 -0.0536  0.0312 -0.3398
  160SAPE   H5X17959   6.934   1.681   7.484 -0.3739  0.0743  1.2722
  160SAPE   H5Y17960   6.794   1.786   7.548  2.3795 -1.2042  2.2942
  160SAPE   C3617961   6.952   1.902   7.491  0.2070 -0.4411  0.5061
  160SAPE   H6X17962   6.902   1.986   7.439 -1.3829 -0.8850  1.3011
  160SAPE   H6Y17963   7.052   1.887   7.444 -0.0952 -1.5629  0.2094
  160SAPE   C3717964   6.970   1.930   7.640 -0.7744  0.3543  0.0529
  160SAPE   H7X17965   7.058   1.998   7.648  1.7782 -2.5562 -1.9061
  160SAPE   H7Y17966   7.001   1.833   7.686  0.2186  1.5341  1.9381
  160SAPE   C3817967   6.843   1.997   7.705 -0.5528 -0.3100  0.3953
  160SAPE   H8X17968   6.746   1.950   7.678 -0.2157 -2.1223  2.1860
  160SAPE   H8Y17969   6.850   2.101   7.666  1.7768  0.5089  2.8120
  160SAPE   C3917970   6.862   1.996   7.859  0.9296  0.7681  0.8198
  160SAPE   H9X17971   6.854   1.889   7.888  1.7754  0.5172  0.1448
  160SAPE   H9Y17972   6.785   2.058   7.910 -1.0850 -0.2009 -0.9646
  160SAPE  C31017973   6.994   2.051   7.915  0.2682  0.3157  0.1232
  160SAPE  H10X17974   7.080   1.989   7.884 -1.5108 -2.3222  0.2811
  160SAPE  H10Y17975   6.982   2.030   8.023 -0.1705 -0.6962 -0.1113
  160SAPE  C31117976   7.007   2.199   7.888  0.1673 -0.5630  0.9450
  160SAPE  H11X17977   6.934   2.265   7.940  1.6579  0.6680  1.5164
  160SAPE  H11Y17978   6.993   2.226   7.781 -0.2865 -0.1318  1.1145
  160SAPE  C31217979   7.152   2.236   7.923  0.2259 -0.5186 -0.5681
  160SAPE  H12X17980   7.227   2.192   7.854 -1.7402 -1.5126 -2.0941
  160SAPE  H12Y17981   7.188   2.210   8.025 -1.4852 -1.3602 -0.1522
  160SAPE  C31317982   7.160   2.388   7.926 -0.3722 -0.2152  0.1214
  160SAPE  H13X17983   7.074   2.426   7.984  0.3710 -0.9295  1.7237
  160SAPE  H13Y17984   7.148   2.437   7.827 -1.0786 -1.5075 -0.4386
  160SAPE  C31417985   7.297   2.432   7.980 -0.0338 -0.1745 -0.0052
  160SAPE  H14X17986   7.383   2.390   7.923  1.0721 -0.6466  1.9547
  160SAPE  H14Y17987   7.307   2.405   8.087  0.1791  2.8600  0.7943
  160SAPE  C31517988   7.310   2.585   7.967  0.1602 -0.5132  0.2654
  160SAPE  H15X17989   7.215   2.621   8.012 -0.2620 -0.5515 -0.5902
  160SAPE  H15Y17990   7.296   2.612   7.860  1.8128  0.8185  0.3773
  160SAPE  C31617991   7.440   2.640   8.030  0.1611  0.4764  0.2131
  160SAPE  H16X17992   7.534   2.591   7.996  0.7762  1.5566  0.3368
  160SAPE  H16Y17993   7.448   2.615   8.138  1.3224  0.8020  0.2164
  160SAPE  C31717994   7.443   2.799   8.014 -0.9604  0.2038 -0.5285
  160SAPE  H17X17995   7.342   2.838   8.035 -1.1127 -1.3108  1.8073
  160SAPE  H17Y17996   7.455   2.831   7.909 -2.4117  1.9303 -0.1925
  160SAPE  C31817997   7.551   2.865   8.102 -0.0145 -0.4661  0.6043
  160SAPE  H18X17998   7.563   2.813   8.200  0.4558 -1.1887  0.1671
  160SAPE  H18Y17999   7.522   2.972   8.113 -0.4257 -0.7288  2.3468
  160SAPE  H18Z18000   7.646   2.861   8.046  0.3763 -0.4030  1.2536
  161SAPE     N18001   2.446   0.788   6.219  0.8670  0.1833  0.1317
  161SAPE   HN118002   2.420   0.733   6.135  0.8992  1.7085 -0.8918
  161SAPE   HN218003   2.439   0.889   6.194  1.6506 -0.0286 -0.9942
  161SAPE   HN318004   2.550   0.782   6.229  0.7926 -1.1130  0.2439
  161SAPE   C1218005   2.372   0.748   6.345 -0.4053 -0.5107 -0.7164
  161SAPE  H12A18006   2.399   0.816   6.429 -1.5751 -1.4058  0.4002
  161SAPE  H12B18007   2.394   0.644   6.378  2.2346  0.4515  0.7457
  161SAPE   C1118008   2.217   0.761   6.344  0.2187 -0.3310  0.5018
  161SAPE  H11A18009   2.182   0.866   6.337 -3.4151 -1.6219 -2.2989
  161SAPE  H11B18010   2.183   0.728   6.444 -0.6003  0.5131  0.4998
  161SAPE     P18011   2.070   0.558   6.243 -0.2292  0.3254  0.0032
  161SAPE   O1318012   1.926   0.591   6.236 -0.4456 -0.3789 -0.6482
  161SAPE   O1418013   2.123   0.463   6.144 -0.1084 -0.0722 -0.4695
  161SAPE   O1218014   2.147   0.700   6.231 -0.5746 -0.1502 -0.4070
  161SAPE   O1118015   2.108   0.516   6.389  0.1138  0.0576 -0.3340
  161SAPE    C118016   2.002   0.471   6.473  0.3575 -0.4183  0.1063
  161SAPE    HA18017   1.925   0.551   6.471  1.2023  0.3878 -0.1928
  161SAPE    HB18018   1.954   0.376   6.440  2.0120 -1.5417  0.8868
  161SAPE    C218019   2.050   0.462   6.624 -0.0067  0.5130  0.7266
  161SAPE    HS18020   1.970   0.433   6.695  0.6892  0.5449  1.5251
  161SAPE   O2118021   2.107   0.591   6.664 -0.7276  0.2037 -0.0026
  161SAPE   C2118022   2.012   0.682   6.688 -0.3242 -0.3091 -0.0450
  161SAPE   O2218023   1.890   0.667   6.680 -0.0094  0.0948  0.3643
  161SAPE   C2218024   2.094   0.794   6.755 -0.5274 -0.1947  0.0918
  161SAPE   H2R18025   2.153   0.840   6.673  0.5552 -4.4266 -1.6301
  161SAPE   H2S18026   2.025   0.872   6.794 -0.7939  0.6508 -2.0316
  161SAPE    C318027   2.166   0.350   6.633  0.4550 -0.2885  0.0429
  161SAPE    HX18028   2.233   0.387   6.553 -1.2827  0.6579 -0.9999
  161SAPE    HY18029   2.118   0.256   6.599  1.7726 -1.3278  1.0181
  161SAPE   O3118030   2.222   0.333   6.768 -0.1212 -0.3263 -0.3605
  161SAPE   C3118031   2.357   0.317   6.773  0.2253  0.1143  0.7795
  161SAPE   O3218032   2.427   0.318   6.675 -0.1349 -0.1176 -0.4654
  161SAPE   C3218033   2.410   0.317   6.916  0.0959  0.4578 -0.1108
  161SAPE   H2X18034   2.448   0.417   6.945 -1.7717  0.3026  3.1906
  161SAPE   H2Y18035   2.488   0.238   6.912 -1.6847 -1.2886 -1.2440
  161SAPE   C2318036   2.178   0.730   6.872 -1.1703  0.1967  0.1593
  161SAPE   H3R18037   2.235   0.815   6.917 -1.9895  0.3138  0.9898
  161SAPE   H3S18038   2.255   0.660   6.834 -2.1389 -2.0200  2.1459
  161SAPE   C2418039   2.102   0.661   6.982 -0.0203 -0.2258 -0.3269
  161SAPE   H4R18040   2.171   0.607   7.051 -0.3916  0.8478  0.8925
  161SAPE   H4S18041   2.040   0.580   6.936  0.0565 -0.2945 -0.3102
  161SAPE   C2518042   2.003   0.756   7.053 -0.0570 -0.3228  0.7501
  161SAPE   H5R18043   1.987   0.852   7.002  2.2059  0.6128  1.7019
  161SAPE   C2618044   1.948   0.743   7.171 -0.2365  0.2503 -0.6199
  161SAPE   H6R18045   1.905   0.832   7.219 -2.8343  0.4074 -3.1430
  161SAPE   C2718046   1.987   0.634   7.275 -0.3611 -0.0324  0.5349
  161SAPE   H7R18047   2.074   0.651   7.343 -1.9985 -1.4704  3.0682
  161SAPE   H7S18048   2.012   0.540   7.222  0.3448  0.2490  0.3683
  161SAPE   C2818049   1.867   0.603   7.357  0.5407  1.1004  0.4627
  161SAPE   H8R18050   1.776   0.565   7.307  1.7872  0.8281 -1.6874
  161SAPE   C2918051   1.862   0.614   7.491 -0.0431  0.9270  0.3333
  161SAPE   H9R18052   1.769   0.586   7.543  0.1723  0.2722  0.3644
  161SAPE  C21018053   1.961   0.654   7.595 -0.1527 -0.5510  0.3547
  161SAPE  H10R18054   1.910   0.732   7.656  0.2161 -2.1865  2.7823
  161SAPE  H10S18055   2.055   0.699   7.555 -2.5948  3.5587 -1.1796
  161SAPE  C21118056   2.005   0.536   7.682 -0.1570 -0.0458  0.3864
  161SAPE  H11R18057   2.031   0.452   7.617  2.0712 -0.0071  1.2082
  161SAPE  C21218058   2.004   0.504   7.816 -0.5801  0.2736 -0.4247
  161SAPE  H12R18059   2.057   0.409   7.833  0.4128  0.4373 -2.4419
  161SAPE  C21318060   1.964   0.599   7.931  0.0688  0.4814  1.0205
  161SAPE  H13R18061   1.907   0.685   7.891 -0.0672 -0.3161 -0.5584
  161SAPE  H13S18062   2.065   0.636   7.960  0.8722 -1.3643  0.6796
  161SAPE  C21418063   1.898   0.533   8.041 -0.0925  0.2827 -0.6218
  161SAPE  H14R18064   1.854   0.434   8.027  1.7110 -0.6188  0.0151
  161SAPE  C21518065   1.893   0.582   8.162 -0.2528 -0.2426  0.4879
  161SAPE  H15R18066   1.852   0.520   8.242 -0.4381 -1.3351 -0.4458
  161SAPE  C21618067   1.956   0.715   8.200 -0.1476 -0.3604  0.5226
  161SAPE  H16R18068   1.939   0.795   8.124 -2.3324 -1.1487  0.1677
  161SAPE  H16S18069   2.067   0.716   8.203 -0.1815  0.0645  2.5798
  161SAPE  C21718070   1.890   0.764   8.323  0.3286 -0.4157 -0.2014
  161SAPE  H17R18071   1.783   0.738   8.306  0.7733 -1.8927 -0.8225
  161SAPE  H17S18072   1.890   0.875   8.327  0.8511 -0.4140 -0.2727
  161SAPE  C21818073   1.951   0.724   8.456  0.1588  0.2809  0.1288
  161SAPE  H18R18074   2.058   0.755   8.457  0.5481 -0.9593 -0.7207
  161SAPE  H18S18075   1.942   0.616   8.481 -0.9140  0.8631  2.2983
  161SAPE  C21918076   1.883   0.793   8.569 -0.6823 -1.0544  0.2790
  161SAPE  H19R18077   1.772   0.791   8.565 -0.7511 -0.0443  1.3567
  161SAPE  H19S18078   1.905   0.899   8.544 -0.4418 -1.3696 -0.8534
  161SAPE  C22018079   1.936   0.744   8.704  0.8053 -0.1913 -0.7527
  161SAPE  H20R18080   1.908   0.819   8.780  0.1067 -1.4496  0.2497
  161SAPE  H20S18081   2.047   0.737   8.709  0.8183  1.6487  2.9617
  161SAPE  H20T18082   1.886   0.655   8.747  1.3426 -0.0017  0.2804
  161SAPE   C3318083   2.305   0.277   7.025  0.7251  0.3349  0.3561
  161SAPE   H3X18084   2.264   0.176   7.007 -1.0676  1.4733 -2.2370
  161SAPE   H3Y18085   2.225   0.354   7.024 -0.2250 -0.6520 -1.2442
  161SAPE   C3418086   2.377   0.265   7.157 -0.8023 -0.0436  0.0620
  161SAPE   H4X18087   2.432   0.359   7.177  1.0944 -0.7278 -1.7817
  161SAPE   H4Y18088   2.454   0.185   7.153  0.9428  1.5820  0.2422
  161SAPE   C3518089   2.279   0.249   7.272 -0.2289  0.0564 -0.8223
  161SAPE   H5X18090   2.211   0.163   7.259 -1.0467  0.5203  0.2831
  161SAPE   H5Y18091   2.217   0.341   7.277  0.7250  0.5933  2.5335
  161SAPE   C3618092   2.354   0.232   7.406 -0.0876  0.1952  0.5224
  161SAPE   H6X18093   2.394   0.331   7.439  2.0156  0.1733 -1.8154
  161SAPE   H6Y18094   2.436   0.157   7.400 -1.1355 -0.8631 -0.8936
  161SAPE   C3718095   2.263   0.193   7.527  0.2033 -0.7309  0.5553
  161SAPE   H7X18096   2.220   0.092   7.507 -0.4568 -0.4008  0.3295
  161SAPE   H7Y18097   2.178   0.260   7.549  1.5600  2.6798 -3.8150
  161SAPE   C3818098   2.338   0.179   7.663  0.2756 -0.0206 -0.7101
  161SAPE   H8X18099   2.397   0.271   7.684 -1.7454  1.1239  0.0186
  161SAPE   H8Y18100   2.411   0.096   7.651  1.4130  1.2642 -3.2139
  161SAPE   C3918101   2.250   0.136   7.782  0.4880  0.5066 -0.3679
  161SAPE   H9X18102   2.195   0.042   7.759  0.1881  0.5899  0.0138
  161SAPE   H9Y18103   2.174   0.217   7.784 -0.5955 -0.5342  1.3303
  161SAPE  C31018104   2.319   0.124   7.916  0.0419 -0.6502  0.5256
  161SAPE  H10X18105   2.381   0.216   7.929  2.0450 -2.0175  0.8531
  161SAPE  H10Y18106   2.389   0.040   7.898 -0.2442 -0.9516  0.7990
  161SAPE  C31118107   2.224   0.090   8.035  0.2038  0.3470  0.3365
  161SAPE  H11X18108   2.148   0.019   7.996  2.1501 -1.0747 -0.9325
  161SAPE  H11Y18109   2.174   0.174   8.088  0.1865 -0.2080  1.2167
  161SAPE  C31218110   2.284   0.005   8.149  0.6085  0.0303  0.0637
  161SAPE  H12X18111   2.335   0.071   8.223  0.1164 -0.7749  1.1387
  161SAPE  H12Y18112   2.364  -0.063   8.112  1.8902  0.6391  1.6343
  161SAPE  C31318113   2.185  -0.087   8.225  0.4105 -0.5505 -0.4282
  161SAPE  H13X18114   2.140  -0.157   8.151  1.1708  0.8271 -2.2561
  161SAPE  H13Y18115   2.105  -0.021   8.265  1.0451 -0.1050  0.1136
  161SAPE  C31418116   2.248  -0.171   8.339 -0.4883 -0.0213  0.6681
  161SAPE  H14X18117   2.306  -0.103   8.405 -0.6397  2.6861 -1.8784
  161SAPE  H14Y18118   2.316  -0.246   8.293 -1.5349  0.0581 -1.0567
  161SAPE  C31518119   2.145  -0.243   8.429  0.8127  0.1395  0.6225
  161SAPE  H15X18120   2.092  -0.324   8.375 -0.1320  0.5605  0.8996
  161SAPE  H15Y18121   2.066  -0.167   8.451 -0.9750 -1.2902 -0.6821
  161SAPE  C31618122   2.218  -0.279   8.554  0.3312 -0.6366 -0.6645
  161SAPE  H16X18123   2.273  -0.192   8.596  0.1712 -0.9381  0.1788
  161SAPE  H16Y18124   2.301  -0.350   8.534  0.6240 -0.7325  0.8227
  161SAPE  C31718125   2.131  -0.342   8.660 -0.5321  0.2612  0.8388
  161SAPE  H17X18126   2.062  -0.260   8.687  0.2302  0.7027  1.4850
  161SAPE  H17Y18127   2.189  -0.382   8.747 -1.8654  1.3172  2.2450
  161SAPE  C31818128   2.051  -0.461   8.598 -0.3273  0.2260 -0.1826
  161SAPE  H18X18129   2.008  -0.520   8.681  1.5178 -2.6634 -1.1731
  161SAPE  H18Y18130   2.123  -0.533   8.553 -0.2056 -0.4525  1.0859
  161SAPE  H18Z18131   1.983  -0.418   8.521  0.1144 -0.4141 -0.9438
  162SAPE     N18132   1.533   2.282   6.240  0.2169 -0.2081  0.2759
  162SAPE   HN118133   1.514   2.340   6.156  0.8107 -1.3368 -0.6384
  162SAPE   HN218134   1.633   2.284   6.269  0.2311 -1.7621  0.3564
  162SAPE   HN318135   1.511   2.184   6.212  0.2279 -0.1062 -0.0795
  162SAPE   C1218136   1.447   2.321   6.352 -0.3562  0.2224  0.0929
  162SAPE  H12A18137   1.427   2.430   6.363  1.2050  0.5054  0.2383
  162SAPE  H12B18138   1.493   2.292   6.449 -1.7937 -1.0671  0.4201
  162SAPE   C1118139   1.307   2.254   6.326  0.3477  0.4680 -0.5354
  162SAPE  H11A18140   1.229   2.297   6.393 -0.8789 -0.0561 -1.6090
  162SAPE  H11B18141   1.321   2.146   6.345 -0.0674  0.5749  0.4314
  162SAPE     P18142   1.176   2.376   6.134  0.0012  0.3034  0.3006
  162SAPE   O1318143   1.247   2.427   6.016  0.4186 -0.1123 -0.2773
  162SAPE   O1418144   1.046   2.309   6.124 -0.0232  0.2938 -0.2836
  162SAPE   O1218145   1.263   2.262   6.192  0.0077 -0.0939 -0.1566
  162SAPE   O1118146   1.173   2.493   6.252  0.3919  0.8730 -0.5609
  162SAPE    C118147   1.058   2.567   6.265 -0.4251  0.3495  0.1343
  162SAPE    HA18148   1.084   2.664   6.218  0.2487  0.4392  0.6946
  162SAPE    HB18149   0.967   2.524   6.219 -0.8978  1.9288 -0.4569
  162SAPE    C218150   1.018   2.587   6.414  0.3028 -0.1477 -0.4339
  162SAPE    HS18151   0.938   2.664   6.411  0.3052 -0.1713 -1.4016
  162SAPE   O2118152   1.124   2.624   6.506 -0.2021  0.1144 -0.0286
  162SAPE   C2118153   1.164   2.746   6.493  0.7139  0.6239  0.5343
  162SAPE   O2218154   1.126   2.826   6.407  0.2101 -0.0651 -0.0809
  162SAPE   C2218155   1.269   2.783   6.594  0.5561  0.0000  0.0423
  162SAPE   H2R18156   1.247   2.887   6.629 -0.2577 -0.0336 -0.3540
  162SAPE   H2S18157   1.250   2.720   6.683 -1.4542  1.7528  0.8949
  162SAPE    C318158   0.945   2.457   6.463 -0.2564  0.9067  1.0336
  162SAPE    HX18159   1.006   2.367   6.438 -1.7031  0.1288  0.2681
  162SAPE    HY18160   0.850   2.445   6.407  1.5264  1.3413 -2.1792
  162SAPE   O3118161   0.923   2.446   6.608  0.1021  0.0098  0.5068
  162SAPE   C3118162   0.809   2.517   6.634 -0.1112 -0.0663 -0.8157
  162SAPE   O3218163   0.749   2.585   6.551 -0.3151 -0.7945 -0.0608
  162SAPE   C3218164   0.756   2.488   6.772  0.8002  0.4415 -0.0242
  162SAPE   H2X18165   0.678   2.409   6.769 -0.1161  1.3522 -0.7586
  162SAPE   H2Y18166   0.713   2.581   6.816 -1.5130 -1.3314  1.6006
  162SAPE   C2318167   1.418   2.764   6.559 -0.6399 -0.4478  0.3643
  162SAPE   H3R18168   1.446   2.826   6.472 -0.2358 -1.1474 -0.0124
  162SAPE   H3S18169   1.434   2.658   6.528  2.0203  0.0715 -0.1760
  162SAPE   C2418170   1.512   2.807   6.677  0.2911  0.0521  0.4565
  162SAPE   H4R18171   1.510   2.727   6.755 -1.0251 -0.5111 -0.1276
  162SAPE   H4S18172   1.466   2.902   6.713 -1.3853 -0.0947 -1.2322
  162SAPE   C2518173   1.661   2.828   6.631 -0.0470 -0.5684  0.2370
  162SAPE   H5R18174   1.686   2.776   6.537 -2.2911 -0.2620 -0.5632
  162SAPE   C2618175   1.761   2.904   6.693  0.1533  0.3251 -0.1673
  162SAPE   H6R18176   1.859   2.906   6.642  0.5794  1.6150  0.6624
  162SAPE   C2718177   1.747   2.982   6.821  0.4711  0.1743  0.7120
  162SAPE   H7R18178   1.638   2.985   6.842  0.2970 -1.1432  0.0397
  162SAPE   H7S18179   1.778   3.087   6.804  2.1337 -0.5139 -0.7153
  162SAPE   C2818180   1.827   2.926   6.935  0.7493  0.5715  0.1893
  162SAPE   H8R18181   1.912   2.862   6.909  0.3765  0.4406 -0.7024
  162SAPE   C2918182   1.800   2.957   7.062 -0.1639  0.4096  0.1242
  162SAPE   H9R18183   1.869   2.913   7.135  0.5547 -2.0459 -1.9723
  162SAPE  C21018184   1.694   3.048   7.117  0.5815  0.3582  0.2092
  162SAPE  H10R18185   1.644   3.098   7.031  1.7714 -1.2376 -1.4414
  162SAPE  H10S18186   1.725   3.130   7.185 -0.6947  0.3126  0.8748
  162SAPE  C21118187   1.588   2.969   7.188  0.0358 -0.5230  0.1977
  162SAPE  H11R18188   1.498   2.960   7.126  0.8022 -0.3963 -0.9573
  162SAPE  C21218189   1.600   2.921   7.317 -0.4438 -0.5834 -0.1251
  162SAPE  H12R18190   1.524   2.858   7.365  0.7375 -1.3709  0.7299
  162SAPE  C21318191   1.720   2.954   7.409 -0.0268 -0.3584  0.3820
  162SAPE  H13R18192   1.688   3.023   7.490  2.0215  0.9650  0.0831
  162SAPE  H13S18193   1.799   3.009   7.353 -2.5336  0.1288 -2.8458
  162SAPE  C21418194   1.782   2.831   7.476 -0.3942  0.4876 -0.5464
  162SAPE  H14R18195   1.853   2.789   7.404  1.4015  1.0477  0.8559
  162SAPE  C21518196   1.774   2.772   7.592 -0.2082 -0.4664  0.3291
  162SAPE  H15R18197   1.839   2.686   7.616  0.3806 -0.0206  0.3276
  162SAPE  C21618198   1.693   2.820   7.706 -0.2246  0.2961 -0.4602
  162SAPE  H16R18199   1.683   2.736   7.779  0.5648  0.6417  0.0537
  162SAPE  H16S18200   1.590   2.842   7.672  0.8664  0.5962 -3.7526
  162SAPE  C21718201   1.757   2.940   7.786 -0.1172 -0.0300  0.2019
  162SAPE  H17R18202   1.726   3.031   7.729  1.0420  0.7152  0.7374
  162SAPE  H17S18203   1.868   2.943   7.786 -0.1149  3.3953  2.7120
  162SAPE  C21818204   1.696   2.939   7.928  0.0691  0.8064 -0.5027
  162SAPE  H18R18205   1.724   2.839   7.967  1.8075  1.3217 -0.3780
  162SAPE  H18S18206   1.588   2.922   7.914  0.5511 -0.3036 -3.2621
  162SAPE  C21918207   1.730   3.068   8.015  0.0486  1.2787  0.1161
  162SAPE  H19R18208   1.835   3.096   7.995  0.3689  0.8398  1.1670
  162SAPE  H19S18209   1.737   3.030   8.120  0.0998 -0.1748 -0.4069
  162SAPE  C22018210   1.630   3.191   8.007 -0.3073 -0.2531  0.5833
  162SAPE  H20R18211   1.635   3.242   7.909  0.1659 -1.1762  0.1147
  162SAPE  H20S18212   1.667   3.261   8.085 -0.1457 -1.4422  1.6007
  162SAPE  H20T18213   1.533   3.145   8.035  0.1912 -1.5792  0.1676
  162SAPE   C3318214   0.866   2.437   6.875 -0.2653  0.8792 -1.0175
  162SAPE   H3X18215   0.944   2.516   6.871 -0.0856  0.8968  2.0357
  162SAPE   H3Y18216   0.910   2.340   6.844 -0.0801  0.6058  0.0934
  162SAPE   C3418217   0.804   2.431   7.016  0.0194 -0.1749  0.1373
  162SAPE   H4X18218   0.744   2.337   7.018 -0.5354  0.2058  2.0952
  162SAPE   H4Y18219   0.735   2.516   7.037 -1.7729 -1.8163  1.0675
  162SAPE   C3518220   0.898   2.427   7.131 -0.0636  0.5497  0.1722
  162SAPE   H5X18221   0.845   2.456   7.224  0.1979 -1.1465  0.8612
  162SAPE   H5Y18222   0.980   2.502   7.125 -1.3346  1.9712  0.1244
  162SAPE   C3618223   0.972   2.296   7.126  0.1469  0.3756 -0.9457
  162SAPE   H6X18224   1.032   2.278   7.034 -0.4265 -2.4331 -0.8398
  162SAPE   H6Y18225   0.897   2.215   7.138 -1.7822  2.1549 -0.7104
  162SAPE   C3718226   1.078   2.288   7.246 -0.3393 -0.6419 -0.1650
  162SAPE   H7X18227   1.022   2.310   7.339 -1.1474 -1.4085 -0.4592
  162SAPE   H7Y18228   1.161   2.361   7.243  0.4346 -1.5690 -1.7020
  162SAPE   C3818229   1.154   2.149   7.265  0.6753  1.5433 -1.1853
  162SAPE   H8X18230   1.237   2.165   7.337 -1.5722 -1.6690  2.3234
  162SAPE   H8Y18231   1.198   2.128   7.164  2.5082  0.7291 -0.2543
  162SAPE   C3918232   1.060   2.031   7.303  0.1988 -0.1099 -0.2639
  162SAPE   H9X18233   1.036   1.983   7.206  1.4760  0.3224 -0.8085
  162SAPE   H9Y18234   0.967   2.070   7.349  0.9460  2.1566 -0.5605
  162SAPE  C31018235   1.113   1.932   7.400 -0.3643  0.2640 -0.7039
  162SAPE  H10X18236   1.212   1.900   7.363 -0.3177 -2.8576  1.8875
  162SAPE  H10Y18237   1.044   1.845   7.399 -1.3196  1.0179 -1.9200
  162SAPE  C31118238   1.127   1.987   7.545  0.3002 -0.5841  0.1815
  162SAPE  H11X18239   1.046   2.061   7.559 -0.0447 -0.7005 -1.1136
  162SAPE  H11Y18240   1.213   2.058   7.540 -0.8855  0.8992  0.6102
  162SAPE  C31218241   1.156   1.873   7.649  0.0091  0.1969 -0.2552
  162SAPE  H12X18242   1.242   1.805   7.631 -1.7555 -2.1310 -0.2882
  162SAPE  H12Y18243   1.063   1.812   7.655 -0.5695  1.1169  0.2085
  162SAPE  C31318244   1.179   1.943   7.786  0.4798  0.4373  0.0211
  162SAPE  H13X18245   1.079   1.960   7.830  0.8197 -1.9451  1.8290
  162SAPE  H13Y18246   1.242   2.031   7.761  2.1940 -0.6328  0.4768
  162SAPE  C31418247   1.252   1.840   7.876 -0.5233 -0.4647  0.1443
  162SAPE  H14X18248   1.353   1.825   7.832 -0.8395  0.7455 -1.0178
  162SAPE  H14Y18249   1.203   1.740   7.873 -1.1850 -0.3354  3.9051
  162SAPE  C31518250   1.279   1.889   8.018  0.2447  0.1289  0.4139
  162SAPE  H15X18251   1.179   1.904   8.066  0.5709  1.9141  0.5569
  162SAPE  H15Y18252   1.324   1.989   8.005 -1.1411  0.4106 -2.3972
  162SAPE  C31618253   1.355   1.778   8.099  1.0530 -0.8693  0.4357
  162SAPE  H16X18254   1.441   1.752   8.033 -0.6100 -1.4281 -1.5762
  162SAPE  H16Y18255   1.292   1.686   8.109 -1.5335  0.7137 -0.7115
  162SAPE  C31718256   1.402   1.821   8.233  0.8131  0.5922 -0.5364
  162SAPE  H17X18257   1.321   1.831   8.309 -0.3135 -2.0249 -1.3579
  162SAPE  H17Y18258   1.448   1.922   8.225 -0.7786  1.4179  0.3982
  162SAPE  C31818259   1.508   1.734   8.296 -0.1473  0.2338 -0.7100
  162SAPE  H18X18260   1.556   1.768   8.391  1.7432 -2.2989 -0.7143
  162SAPE  H18Y18261   1.590   1.714   8.224 -0.2012 -2.0734 -0.1898
  162SAPE  H18Z18262   1.460   1.636   8.321  2.0527 -0.8831 -0.7705
  163SAPE     N18263   6.288   1.153   6.303 -0.2624  0.7332 -0.0038
  163SAPE   HN118264   6.357   1.223   6.339 -0.1823 -0.5795  2.5177
  163SAPE   HN218265   6.266   1.182   6.206 -0.4529 -0.2736 -0.2687
  163SAPE   HN318266   6.219   1.183   6.374  1.6544  1.5326  1.5933
  163SAPE   C1218267   6.315   1.004   6.312 -0.3388 -0.1447  0.6809
  163SAPE  H12A18268   6.400   0.970   6.249 -2.4295 -1.9945 -1.1875
  163SAPE  H12B18269   6.231   0.947   6.269 -0.2310 -0.1817  0.5213
  163SAPE   C1118270   6.345   0.953   6.453  0.5016 -0.6279 -0.0678
  163SAPE  H11A18271   6.362   0.844   6.446  1.5655 -0.5184  0.7078
  163SAPE  H11B18272   6.263   0.969   6.526 -0.1073 -2.3056 -0.3688
  163SAPE     P18273   6.524   0.988   6.636 -0.2111  0.1291  0.4134
  163SAPE   O1318274   6.617   1.095   6.671 -0.5273 -0.5612 -0.2948
  163SAPE   O1418275   6.413   0.955   6.724 -0.5487 -0.1441 -0.4253
  163SAPE   O1218276   6.467   1.016   6.492  0.0804  0.1414  0.1798
  163SAPE   O1118277   6.617   0.869   6.618 -0.3328  0.3116 -0.1649
  163SAPE    C118278   6.573   0.732   6.660 -0.1652 -0.1985 -0.4377
  163SAPE    HA18279   6.471   0.704   6.627 -0.8202  0.4683  1.0046
  163SAPE    HB18280   6.640   0.663   6.604  0.6837  2.9655 -3.5070
  163SAPE    C218281   6.583   0.700   6.815 -0.3829  0.1696  0.0964
  163SAPE    HS18282   6.514   0.772   6.864 -1.5133  0.4566 -1.8693
  163SAPE   O2118283   6.725   0.714   6.857 -0.8101 -0.0147  0.5090
  163SAPE   C2118284   6.751   0.820   6.940  0.3080  1.1711 -0.2508
  163SAPE   O2218285   6.666   0.904   6.961  0.1007  0.0863  0.0277
  163SAPE   C2218286   6.889   0.817   7.004 -0.0706 -0.5495  0.0617
  163SAPE   H2R18287   6.912   0.715   7.040  0.5766 -0.4532 -0.0761
  163SAPE   H2S18288   6.970   0.838   6.931 -0.4443 -0.4442 -0.3312
  163SAPE    C318289   6.533   0.554   6.858 -0.0464 -0.4750  0.0167
  163SAPE    HX18290   6.611   0.481   6.827  1.2829  1.6452 -1.7300
  163SAPE    HY18291   6.439   0.538   6.800 -0.6318 -0.2928  0.9024
  163SAPE   O3118292   6.504   0.537   6.999 -0.2456 -1.5551 -0.8734
  163SAPE   C3118293   6.613   0.529   7.081  0.0212 -0.0717 -0.4242
  163SAPE   O3218294   6.726   0.512   7.038 -0.2834 -0.2025 -0.4842
  163SAPE   C3218295   6.568   0.554   7.223  0.2077  0.2707  0.4335
  163SAPE   H2X18296   6.459   0.576   7.229 -0.1439 -1.3030 -0.0582
  163SAPE   H2Y18297   6.626   0.645   7.250  1.8896 -0.8048  0.4684
  163SAPE   C2318298   6.893   0.917   7.123  0.3325  0.0649  0.1720
  163SAPE   H3R18299   6.849   1.013   7.088  0.9060  0.5532  0.7807
  163SAPE   H3S18300   7.001   0.938   7.143  0.4387  1.6410 -1.8363
  163SAPE   C2418301   6.816   0.862   7.253  0.2003 -0.4667 -0.0092
  163SAPE   H4R18302   6.862   0.763   7.275 -0.6142 -0.8901 -0.2195
  163SAPE   H4S18303   6.710   0.843   7.227 -0.7859  1.3153  2.5595
  163SAPE   C2518304   6.821   0.960   7.370 -0.0062  0.6801 -0.1619
  163SAPE   H5R18305   6.878   1.051   7.347 -1.8933  1.9941  0.2193
  163SAPE   C2618306   6.762   0.959   7.489 -0.8078 -0.6810 -0.2934
  163SAPE   H6R18307   6.782   1.041   7.559  0.4327  0.1333 -1.5531
  163SAPE   C2718308   6.679   0.842   7.542 -0.2105 -0.2723 -0.5738
  163SAPE   H7R18309   6.739   0.748   7.541  1.1611  0.6035 -3.0604
  163SAPE   H7S18310   6.589   0.824   7.480 -1.6542 -2.3528  1.9904
  163SAPE   C2818311   6.630   0.863   7.685  0.0061  1.1407 -0.0239
  163SAPE   H8R18312   6.521   0.856   7.697 -0.3186  0.8115 -2.7739
  163SAPE   C2918313   6.706   0.878   7.797  0.2681 -0.3959 -0.1336
  163SAPE   H9R18314   6.660   0.900   7.894  0.5354  1.0610 -0.3162
  163SAPE  C21018315   6.853   0.871   7.812 -0.2077  0.3772  0.5102
  163SAPE  H10R18316   6.894   0.814   7.726  2.6679  0.0452  2.0519
  163SAPE  H10S18317   6.886   0.807   7.896 -0.2095 -0.7144 -0.3066
  163SAPE  C21118318   6.924   1.003   7.811 -0.4586  0.9411  0.0881
  163SAPE  H11R18319   6.981   1.018   7.718 -1.6837 -1.2102 -1.0424
  163SAPE  C21218320   6.914   1.095   7.908  0.0013 -0.5347  0.2665
  163SAPE  H12R18321   6.975   1.185   7.913 -1.8850  0.6573  3.0916
  163SAPE  C21318322   6.831   1.094   8.034 -0.1606 -0.4271  0.1873
  163SAPE  H13R18323   6.729   1.067   8.000 -1.2270  0.4670  2.5563
  163SAPE  H13S18324   6.830   1.196   8.078 -1.5697 -0.9619  1.4150
  163SAPE  C21418325   6.881   1.002   8.148 -0.2815  1.1098  0.1077
  163SAPE  H14R18326   6.990   1.010   8.156  0.0389 -1.4485 -0.9429
  163SAPE  C21518327   6.807   0.902   8.211 -0.9751 -0.5143 -0.4192
  163SAPE  H15R18328   6.859   0.851   8.293 -2.7614 -1.4852  0.1478
  163SAPE  C21618329   6.657   0.872   8.201 -0.1678 -0.4133 -0.5636
  163SAPE  H16R18330   6.637   0.768   8.167  0.6185 -0.6245 -0.3779
  163SAPE  H16S18331   6.615   0.944   8.127 -1.2533  0.3087  0.7330
  163SAPE  C21718332   6.580   0.902   8.329  0.0618  0.5355 -0.2715
  163SAPE  H17R18333   6.473   0.923   8.312 -0.0065 -0.1430 -0.6900
  163SAPE  H17S18334   6.633   0.989   8.375  0.5096  1.2251 -2.0747
  163SAPE  C21818335   6.573   0.785   8.418 -0.6450  0.1515 -0.0142
  163SAPE  H18R18336   6.675   0.750   8.445 -1.1109 -1.1219  0.1168
  163SAPE  H18S18337   6.523   0.700   8.366 -0.8284  1.0518 -1.3476
  163SAPE  C21918338   6.504   0.810   8.557 -0.4342  0.3430 -0.1727
  163SAPE  H19R18339   6.395   0.833   8.548 -1.0875 -2.4121  0.3339
  163SAPE  H19S18340   6.551   0.900   8.603 -0.1274  0.1467 -0.1040
  163SAPE  C22018341   6.513   0.686   8.643  0.5733  0.5081 -0.8748
  163SAPE  H20R18342   6.453   0.603   8.601  1.9790 -1.0618  0.1200
  163SAPE  H20S18343   6.487   0.709   8.749  0.5710  0.0397 -0.7716
  163SAPE  H20T18344   6.620   0.653   8.647 -0.3583 -2.4526  1.3291
  163SAPE   C3318345   6.604   0.441   7.319  0.9229 -0.3084  0.0126
  163SAPE   H3X18346   6.715   0.432   7.325  0.7424 -1.9659  1.0262
  163SAPE   H3Y18347   6.573   0.337   7.296 -1.3634  0.4998 -0.6350
  163SAPE   C3418348   6.555   0.461   7.467 -0.4962 -0.9345  0.3218
  163SAPE   H4X18349   6.449   0.492   7.462  0.2331  1.7007  0.5082
  163SAPE   H4Y18350   6.603   0.550   7.513 -1.9347  0.5515 -0.9837
  163SAPE   C3518351   6.570   0.336   7.556 -0.3790  0.1605  0.7614
  163SAPE   H5X18352   6.517   0.259   7.497  0.3216  1.1477 -1.1788
  163SAPE   H5Y18353   6.519   0.360   7.652 -3.5990 -2.1918 -0.2636
  163SAPE   C3618354   6.719   0.279   7.572  0.2856 -0.8892 -0.3204
  163SAPE   H6X18355   6.754   0.232   7.478 -0.8676 -0.5445 -0.9284
  163SAPE   H6Y18356   6.724   0.188   7.636  2.8404 -0.8456 -0.4170
  163SAPE   C3718357   6.826   0.384   7.609 -0.1136 -0.5876  0.0235
  163SAPE   H7X18358   6.820   0.473   7.543  3.6372 -0.7783 -0.7098
  163SAPE   H7Y18359   6.934   0.362   7.594 -0.2376 -0.8951 -0.4415
  163SAPE   C3818360   6.816   0.457   7.749 -0.8008  0.4189 -0.4565
  163SAPE   H8X18361   6.710   0.476   7.777 -0.6072  0.5809  0.1709
  163SAPE   H8Y18362   6.852   0.560   7.730 -1.8670  1.3272  2.2124
  163SAPE   C3918363   6.890   0.384   7.857 -0.1466  0.4064 -0.2136
  163SAPE   H9X18364   6.998   0.378   7.832  0.3051  1.9083  1.2555
  163SAPE   H9Y18365   6.848   0.284   7.881  0.6139  0.0372 -0.4199
  163SAPE  C31018366   6.888   0.455   7.996  0.9217  0.2585  0.1546
  163SAPE  H10X18367   6.780   0.448   8.021  1.6415 -1.6143  2.9560
  163SAPE  H10Y18368   6.912   0.564   7.996 -3.1536  1.2363 -1.4708
  163SAPE  C31118369   6.948   0.381   8.108 -0.5518  0.2440  0.5071
  163SAPE  H11X18370   7.058   0.387   8.096 -0.4595  2.1777  2.1002
  163SAPE  H11Y18371   6.920   0.274   8.094  3.2156 -0.7829  0.0990
  163SAPE  C31218372   6.918   0.439   8.250 -0.1238  0.3719  0.3538
  163SAPE  H12X18373   6.946   0.358   8.321 -0.6959  0.3628  0.5665
  163SAPE  H12Y18374   6.809   0.461   8.251 -0.0337  0.8195  0.9494
  163SAPE  C31318375   6.998   0.568   8.269  0.2994  0.4751 -0.2255
  163SAPE  H13X18376   6.958   0.639   8.193  3.0299 -0.0030 -2.2060
  163SAPE  H13Y18377   7.102   0.555   8.233  0.4952  2.7065 -0.5550
  163SAPE  C31418378   6.991   0.609   8.413 -0.8244 -0.4327 -0.2308
  163SAPE  H14X18379   7.018   0.525   8.480 -2.0795  0.1379  1.0166
  163SAPE  H14Y18380   6.882   0.621   8.427 -1.2591 -2.0626 -2.0295
  163SAPE  C31518381   7.068   0.739   8.437 -0.5256  0.2644 -0.0880
  163SAPE  H15X18382   7.064   0.807   8.349 -1.1812  0.0820 -0.2090
  163SAPE  H15Y18383   7.173   0.708   8.453 -0.7011  0.4501  1.4436
  163SAPE  C31618384   7.002   0.823   8.556  0.2409  0.1077 -0.0706
  163SAPE  H16X18385   7.027   0.755   8.640  1.8140 -0.0867 -0.6871
  163SAPE  H16Y18386   6.893   0.800   8.544  0.2943 -1.2510  1.9312
  163SAPE  C31718387   7.048   0.965   8.575  0.7885 -0.7848  0.0682
  163SAPE  H17X18388   7.047   1.016   8.477 -0.9408  1.4171  1.1821
  163SAPE  H17Y18389   7.148   0.964   8.625 -0.0723  1.4878  1.9101
  163SAPE  C31818390   6.959   1.034   8.675  0.0589 -0.4412  0.4033
  163SAPE  H18X18391   6.996   1.139   8.678  1.8080 -1.0795  2.4702
  163SAPE  H18Y18392   6.968   0.987   8.775  2.4198 -0.0010  0.4331
  163SAPE  H18Z18393   6.854   1.046   8.642  0.0379  1.4102  1.0255
  164SAPE     N18394   2.872   5.396   5.978 -0.1529  0.1827  0.0719
  164SAPE   HN118395   2.810   5.314   5.965 -1.6485  0.9717  1.9386
  164SAPE   HN218396   2.922   5.421   5.890 -0.1129 -1.4205 -0.3721
  164SAPE   HN318397   2.945   5.357   6.041  0.5925 -2.2236 -2.2133
  164SAPE   C1218398   2.798   5.516   6.037 -1.1051  0.1282 -0.0349
  164SAPE  H12A18399   2.869   5.601   6.040  0.6271 -1.2852  0.1231
  164SAPE  H12B18400   2.775   5.498   6.144 -3.0615 -1.1488 -0.6407
  164SAPE   C1118401   2.670   5.547   5.960 -0.2136  0.1224 -0.3539
  164SAPE  H11A18402   2.698   5.565   5.854 -1.1300 -0.5506 -0.7243
  164SAPE  H11B18403   2.614   5.634   6.003 -0.6397 -0.8566  1.1284
  164SAPE     P18404   2.450   5.429   6.036 -0.3277 -0.2620 -0.0782
  164SAPE   O1318405   2.462   5.525   6.148  0.1900 -0.7419  0.8416
  164SAPE   O1418406   2.327   5.443   5.958  0.2521  0.1200 -0.4482
  164SAPE   O1218407   2.584   5.438   5.948  0.3504  0.0061 -0.5556
  164SAPE   O1118408   2.455   5.289   6.101  0.5873  0.5197 -0.4885
  164SAPE    C118409   2.554   5.252   6.194  1.0776 -0.2486  0.4625
  164SAPE    HA18410   2.579   5.148   6.162  0.9579 -0.3913  0.8372
  164SAPE    HB18411   2.645   5.315   6.187  0.0067  1.1969 -0.8634
  164SAPE    C218412   2.513   5.272   6.340 -0.3902  1.5315 -0.3343
  164SAPE    HS18413   2.491   5.377   6.369  2.3303  2.0036  0.2014
  164SAPE   O2118414   2.620   5.225   6.431  0.3250  0.7850  0.2569
  164SAPE   C2118415   2.713   5.314   6.463  0.1014  0.4799 -0.2246
  164SAPE   O2218416   2.716   5.424   6.414  0.0179 -0.0678 -0.2002
  164SAPE   C2218417   2.823   5.254   6.551  0.2400  0.4795  0.0835
  164SAPE   H2R18418   2.917   5.303   6.519  0.8089 -0.3938  0.3803
  164SAPE   H2S18419   2.801   5.272   6.658  3.6190  2.6620  0.4734
  164SAPE    C318420   2.386   5.198   6.376  0.1433  0.7721 -0.1533
  164SAPE    HX18421   2.396   5.088   6.361 -3.9081  0.5627 -2.1160
  164SAPE    HY18422   2.305   5.222   6.304 -0.0239  0.6136 -0.0185
  164SAPE   O3118423   2.343   5.229   6.509  0.5907 -0.2552  0.2428
  164SAPE   C3118424   2.231   5.152   6.545  0.2818  0.0430 -0.1060
  164SAPE   O3218425   2.171   5.075   6.474 -0.5848  0.1663 -0.1444
  164SAPE   C3218426   2.184   5.199   6.676  0.2117 -0.2939  0.0462
  164SAPE   H2X18427   2.257   5.276   6.710  0.6710 -0.3187 -0.8622
  164SAPE   H2Y18428   2.173   5.113   6.745  0.1249 -1.8172 -1.8224
  164SAPE   C2318429   2.835   5.098   6.536  0.1452  0.6836  0.6515
  164SAPE   H3R18430   2.869   5.065   6.435 -0.6621 -0.9375  0.8800
  164SAPE   H3S18431   2.736   5.050   6.551  0.4868 -0.2998 -0.1393
  164SAPE   C2418432   2.926   5.027   6.639  0.0655 -0.1045  0.1161
  164SAPE   H4R18433   2.883   4.931   6.675  0.7603 -0.1872  0.7260
  164SAPE   H4S18434   2.917   5.089   6.731  0.7316 -0.4878  0.4411
  164SAPE   C2518435   3.067   5.004   6.596 -0.2405  0.3025  0.2550
  164SAPE   H5R18436   3.074   4.940   6.506 -0.7041  1.8430 -0.8959
  164SAPE   C2618437   3.178   5.047   6.651  0.3504 -0.4549 -0.6179
  164SAPE   H6R18438   3.269   4.996   6.616 -1.1280 -1.9181 -2.4450
  164SAPE   C2718439   3.190   5.137   6.776 -0.1442 -0.0737  0.4199
  164SAPE   H7R18440   3.154   5.076   6.861  0.9705 -0.3838  0.6822
  164SAPE   H7S18441   3.121   5.222   6.759 -0.7726 -0.6800 -0.0854
  164SAPE   C2818442   3.333   5.177   6.800  0.1345 -0.8773 -0.2700
  164SAPE   H8R18443   3.398   5.189   6.712 -1.1482  0.0268 -1.1080
  164SAPE   C2918444   3.372   5.215   6.929  0.0291 -0.0643  0.4638
  164SAPE   H9R18445   3.476   5.247   6.944 -0.0621  0.5491 -0.1886
  164SAPE  C21018446   3.294   5.220   7.061 -0.4649  0.5867 -0.7036
  164SAPE  H10R18447   3.354   5.182   7.147  1.0207 -0.8132 -2.3234
  164SAPE  H10S18448   3.212   5.145   7.063 -1.4440  1.6549 -1.0534
  164SAPE  C21118449   3.230   5.353   7.086 -0.2153 -0.6171 -0.6150
  164SAPE  H11R18450   3.193   5.403   6.996  2.0061  2.1281 -0.0880
  164SAPE  C21218451   3.215   5.412   7.210 -0.1730  0.1839 -0.2750
  164SAPE  H12R18452   3.167   5.511   7.214  1.8269  1.2060 -0.9580
  164SAPE  C21318453   3.280   5.361   7.339 -0.4483 -0.4716  0.0358
  164SAPE  H13R18454   3.341   5.441   7.386  0.3906 -1.3341  0.4491
  164SAPE  H13S18455   3.351   5.277   7.320 -0.5362 -0.8198  1.2198
  164SAPE  C21418456   3.173   5.321   7.441  0.2763 -0.2333 -0.5336
  164SAPE  H14R18457   3.080   5.274   7.405  1.2289 -0.8167 -2.2765
  164SAPE  C21518458   3.206   5.308   7.569  0.1268 -0.0920  0.1503
  164SAPE  H15R18459   3.120   5.293   7.637  0.5444  0.8074  0.8787
  164SAPE  C21618460   3.335   5.333   7.637  0.0606  0.0676 -0.0868
  164SAPE  H16R18461   3.333   5.423   7.703 -1.3833 -0.2460  0.3047
  164SAPE  H16S18462   3.425   5.356   7.577  0.9783 -0.7985  0.9259
  164SAPE  C21718463   3.372   5.210   7.730  1.1822  0.0118 -0.2710
  164SAPE  H17R18464   3.359   5.121   7.665  0.4522 -0.5656  0.6442
  164SAPE  H17S18465   3.296   5.198   7.811 -1.3262  1.6947 -2.3089
  164SAPE  C21818466   3.514   5.212   7.772 -0.6210 -0.2085 -0.1590
  164SAPE  H18R18467   3.543   5.318   7.784  0.9748 -0.5501 -0.9032
  164SAPE  H18S18468   3.576   5.188   7.683 -0.7491  1.9116 -0.8595
  164SAPE  C21918469   3.565   5.124   7.886 -0.7513 -0.1009 -0.0912
  164SAPE  H19R18470   3.508   5.148   7.978  0.3647 -1.3623  0.9519
  164SAPE  H19S18471   3.671   5.147   7.914 -1.2377  0.2057  1.5579
  164SAPE  C22018472   3.552   4.970   7.851  0.1898 -0.4348  0.1650
  164SAPE  H20R18473   3.444   4.952   7.831 -0.1159  2.6953 -1.2575
  164SAPE  H20S18474   3.592   4.904   7.932  1.7109 -0.5102 -0.6295
  164SAPE  H20T18475   3.617   4.963   7.762  0.2189 -0.2477  0.1728
  164SAPE   C3318476   2.045   5.268   6.662  0.4798 -0.4708 -0.1925
  164SAPE   H3X18477   1.961   5.201   6.636  1.4156 -1.5856 -0.3562
  164SAPE   H3Y18478   2.037   5.333   6.572  1.2462 -0.5626 -0.3267
  164SAPE   C3418479   2.011   5.339   6.797 -0.0385 -0.6525  0.0802
  164SAPE   H4X18480   1.916   5.392   6.776 -0.2601 -0.8108  0.7035
  164SAPE   H4Y18481   2.088   5.414   6.825  1.0047 -1.7829  0.2848
  164SAPE   C3518482   1.993   5.241   6.915 -0.5669 -1.1059  0.3990
  164SAPE   H5X18483   2.091   5.216   6.960 -0.4108  1.0641  1.3232
  164SAPE   H5Y18484   1.937   5.151   6.880  0.7955 -0.9296 -2.3931
  164SAPE   C3618485   1.920   5.306   7.033  0.1662  0.2361  0.1508
  164SAPE   H6X18486   1.838   5.372   6.998  0.6008  0.4637 -0.4507
  164SAPE   H6Y18487   1.998   5.382   7.056  0.5107 -0.6245  1.9253
  164SAPE   C3718488   1.882   5.214   7.151 -0.5402 -0.2177 -1.0115
  164SAPE   H7X18489   1.850   5.117   7.108  2.4756 -1.6718 -0.1235
  164SAPE   H7Y18490   1.800   5.253   7.215 -1.2047  0.5699 -2.3278
  164SAPE   C3818491   1.996   5.192   7.251  0.4812 -0.4389  0.5078
  164SAPE   H8X18492   2.024   5.293   7.287  2.1594 -0.6743 -0.0672
  164SAPE   H8Y18493   2.083   5.142   7.204 -0.7445 -0.2871 -1.9962
  164SAPE   C3918494   1.965   5.098   7.366  0.2412 -0.4872 -0.4853
  164SAPE   H9X18495   1.890   5.024   7.329  0.7136 -1.1802 -0.0589
  164SAPE   H9Y18496   1.907   5.158   7.439 -0.2929  1.3825 -2.3766
  164SAPE  C31018497   2.085   5.027   7.433  0.2705  0.2161 -0.4895
  164SAPE  H10X18498   2.149   5.086   7.501  1.4268 -0.1497 -1.2595
  164SAPE  H10Y18499   2.152   4.973   7.363 -3.1724 -4.2512 -0.5773
  164SAPE  C31118500   2.034   4.911   7.517 -0.5883  0.4631 -0.0972
  164SAPE  H11X18501   2.031   4.818   7.457  0.7900  2.0807 -2.7696
  164SAPE  H11Y18502   1.932   4.941   7.549 -1.5885 -1.1530 -1.6729
  164SAPE  C31218503   2.132   4.894   7.639 -0.3589 -0.2631  0.2650
  164SAPE  H12X18504   2.102   4.965   7.718  1.9477 -0.2392  1.1770
  164SAPE  H12Y18505   2.240   4.909   7.616 -0.0425  0.1174  1.9410
  164SAPE  C31318506   2.119   4.756   7.699 -0.4708 -0.0671  0.0749
  164SAPE  H13X18507   2.145   4.681   7.621 -2.5818  0.2384 -0.9561
  164SAPE  H13Y18508   2.011   4.733   7.716 -0.6348  0.6307 -0.0361
  164SAPE  C31418509   2.200   4.728   7.822  1.0062 -0.4385  0.6405
  164SAPE  H14X18510   2.290   4.794   7.822  2.1794 -1.9889  1.1463
  164SAPE  H14Y18511   2.241   4.625   7.810  1.5418 -0.2246  0.6081
  164SAPE  C31518512   2.131   4.723   7.957  0.7813 -0.4078  0.9416
  164SAPE  H15X18513   2.032   4.673   7.952 -1.1892  3.3530 -0.0981
  164SAPE  H15Y18514   2.095   4.827   7.974 -0.5249 -0.7919  0.6195
  164SAPE  C31618515   2.218   4.666   8.061  0.6237  0.0766  0.4266
  164SAPE  H16X18516   2.271   4.576   8.023  0.3825 -0.2425  0.8395
  164SAPE  H16Y18517   2.159   4.629   8.148  0.1076  1.9981  0.9239
  164SAPE  C31718518   2.313   4.767   8.116  0.0159  0.3895 -0.5172
  164SAPE  H17X18519   2.258   4.861   8.140 -0.6485 -0.3859  1.0814
  164SAPE  H17Y18520   2.384   4.793   8.034  2.1457  0.9472  1.4560
  164SAPE  C31818521   2.376   4.710   8.242  0.2447 -0.1089  0.4298
  164SAPE  H18X18522   2.435   4.617   8.224 -0.0492 -0.2213  0.0610
  164SAPE  H18Y18523   2.292   4.692   8.313 -2.3323  2.0404 -1.9642
  164SAPE  H18Z18524   2.452   4.778   8.287  0.9183 -1.4617  1.3989
  165SAPE     N18525   2.879   1.398   6.316  0.3266 -0.2629 -0.3883
  165SAPE   HN118526   2.904   1.489   6.273 -2.1651  0.3428 -0.5917
  165SAPE   HN218527   2.871   1.332   6.236 -0.7336  1.2118 -1.5053
  165SAPE   HN318528   2.780   1.409   6.345  0.9911  2.7318  0.8515
  165SAPE   C1218529   2.966   1.352   6.424 -0.7125  0.4826  0.3076
  165SAPE  H12A18530   2.982   1.428   6.503 -0.0318 -0.0489  0.6813
  165SAPE  H12B18531   3.063   1.324   6.378 -1.7196 -1.2237 -0.8573
  165SAPE   C1118532   2.910   1.225   6.486  0.6345 -0.4072  0.2863
  165SAPE  H11A18533   2.821   1.247   6.547 -0.6542 -1.3886 -1.2034
  165SAPE  H11B18534   2.984   1.194   6.563 -0.8603  1.8779  2.7494
  165SAPE     P18535   2.989   1.011   6.349 -0.0339  0.4148  0.2228
  165SAPE   O1318536   2.937   0.874   6.335  0.4760 -0.0001 -0.2434
  165SAPE   O1418537   3.066   1.063   6.231 -0.1022  0.3669 -0.0286
  165SAPE   O1218538   2.879   1.118   6.399 -0.0450 -0.1570  0.0458
  165SAPE   O1118539   3.085   1.000   6.467  0.2038 -0.4901 -0.9873
  165SAPE    C118540   3.068   0.915   6.581 -0.3398 -0.3307 -0.6527
  165SAPE    HA18541   2.962   0.884   6.590 -0.1690 -0.5536  0.8617
  165SAPE    HB18542   3.124   0.820   6.571  0.8536  0.4859 -1.8307
  165SAPE    C218543   3.121   0.978   6.715 -0.1298 -0.2742  0.3743
  165SAPE    HS18544   3.076   1.078   6.734 -0.2505 -0.3729  0.6083
  165SAPE   O2118545   3.267   0.983   6.713 -0.3318 -0.0712 -0.2546
  165SAPE   C2118546   3.328   1.078   6.773 -0.3870 -0.7264  0.1449
  165SAPE   O2218547   3.276   1.164   6.844  0.4973  0.2066 -0.3783
  165SAPE   C2218548   3.480   1.055   6.750  0.4080 -0.2863 -0.1166
  165SAPE   H2R18549   3.513   1.000   6.841  0.5584 -0.5327 -0.3213
  165SAPE   H2S18550   3.489   0.980   6.669 -0.3618  1.6171 -2.0285
  165SAPE    C318551   3.078   0.890   6.838 -0.1151 -0.4242  0.2300
  165SAPE    HX18552   3.131   0.793   6.823 -2.0148 -1.6463  1.2611
  165SAPE    HY18553   2.971   0.865   6.826  0.1312 -0.5906 -1.9574
  165SAPE   O3118554   3.113   0.953   6.956 -0.0267 -0.0880 -0.7347
  165SAPE   C3118555   3.020   1.039   6.998 -0.1630  0.7431  0.4130
  165SAPE   O3218556   2.911   1.052   6.940  0.0589  0.8503 -0.5442
  165SAPE   C3218557   3.065   1.102   7.124  0.2018 -0.8190 -0.3027
  165SAPE   H2X18558   3.163   1.150   7.104  0.5714 -0.7867  1.4610
  165SAPE   H2Y18559   3.094   1.021   7.195 -2.7503 -1.8008 -0.1411
  165SAPE   C2318560   3.568   1.179   6.724  0.2094 -0.2480 -0.8956
  165SAPE   H3R18561   3.523   1.247   6.648 -1.1443 -0.1960 -0.0762
  165SAPE   H3S18562   3.661   1.133   6.686 -0.0613 -0.5790 -1.1612
  165SAPE   C2418563   3.588   1.264   6.852  0.2386 -0.0292 -0.1974
  165SAPE   H4R18564   3.491   1.312   6.877  0.1456  1.1672 -2.7610
  165SAPE   H4S18565   3.657   1.348   6.833 -0.6339  0.7147 -0.1318
  165SAPE   C2518566   3.630   1.182   6.971  0.7812 -0.2870  0.1273
  165SAPE   H5R18567   3.694   1.099   6.937  1.0732  0.3898 -1.0143
  165SAPE   C2618568   3.586   1.175   7.099 -0.0090 -0.9135 -0.3051
  165SAPE   H6R18569   3.633   1.100   7.165 -1.2015 -1.9018 -0.5543
  165SAPE   C2718570   3.482   1.269   7.167  0.8887  0.6706  0.3492
  165SAPE   H7R18571   3.398   1.208   7.207  1.7502 -1.0317 -0.3532
  165SAPE   H7S18572   3.435   1.346   7.103 -1.8428 -0.6205  0.7124
  165SAPE   C2818573   3.547   1.355   7.275  0.0592 -0.1543  0.1926
  165SAPE   H8R18574   3.599   1.446   7.239  2.0967 -2.4352 -2.8481
  165SAPE   C2918575   3.561   1.347   7.408 -0.0591 -0.4215 -0.3537
  165SAPE   H9R18576   3.610   1.434   7.455 -1.4146  1.3131 -2.0083
  165SAPE  C21018577   3.513   1.231   7.493 -0.1922 -0.2334  0.7291
  165SAPE  H10R18578   3.462   1.152   7.433  2.2216 -2.2265  1.2033
  165SAPE  H10S18579   3.428   1.270   7.553 -1.1638  2.2695 -2.1529
  165SAPE  C21118580   3.615   1.178   7.589 -0.6604  0.2751 -0.0177
  165SAPE  H11R18581   3.695   1.113   7.551 -1.8050 -2.5641  2.1642
  165SAPE  C21218582   3.618   1.199   7.720  0.0487 -0.0513  0.5071
  165SAPE  H12R18583   3.691   1.149   7.785 -0.7214  0.8790  2.1221
  165SAPE  C21318584   3.510   1.266   7.804 -0.5054 -0.4049  0.0047
  165SAPE  H13R18585   3.459   1.172   7.834  0.3680 -0.2271  2.1052
  165SAPE  H13S18586   3.424   1.314   7.753 -1.5670  2.4321  4.2157
  165SAPE  C21418587   3.556   1.337   7.923  0.1385  0.3041 -0.5411
  165SAPE  H14R18588   3.578   1.442   7.900  0.8625 -0.1697 -2.0560
  165SAPE  C21518589   3.577   1.298   8.052  0.2160  0.6402  0.9112
  165SAPE  H15R18590   3.629   1.372   8.115  2.6722 -0.2256 -0.0307
  165SAPE  C21618591   3.566   1.156   8.109 -0.3564  0.4369 -0.2548
  165SAPE  H16R18592   3.532   1.079   8.036 -0.4404  0.0733  0.1678
  165SAPE  H16S18593   3.483   1.147   8.182  0.2891  0.1439  0.4432
  165SAPE  C21718594   3.702   1.104   8.175  0.2852 -0.5019 -0.4888
  165SAPE  H17R18595   3.678   1.009   8.225  0.7842  0.7770  2.2589
  165SAPE  H17S18596   3.746   1.167   8.255  0.6997  0.8861 -1.7645
  165SAPE  C21818597   3.810   1.079   8.070 -0.5523 -1.1345  0.2729
  165SAPE  H18R18598   3.827   1.170   8.009  1.0425 -1.3456  0.3765
  165SAPE  H18S18599   3.775   0.993   8.009  1.2414 -2.3360  0.8948
  165SAPE  C21918600   3.934   1.021   8.135 -0.1741 -0.2243  0.4395
  165SAPE  H19R18601   3.908   0.927   8.190 -0.5325 -0.3858 -0.0019
  165SAPE  H19S18602   3.992   1.094   8.195 -0.1512  1.6880 -1.8368
  165SAPE  C22018603   4.026   0.980   8.011 -0.2739 -0.7353  0.3889
  165SAPE  H20R18604   4.038   1.073   7.951 -0.4616  0.4408  2.1126
  165SAPE  H20S18605   3.965   0.909   7.951 -3.5066  1.7834  0.5297
  165SAPE  H20T18606   4.124   0.941   8.046  0.5712  1.8264  1.0651
  165SAPE   C3318607   2.960   1.204   7.175  0.0796 -0.3657  0.3499
  165SAPE   H3X18608   2.927   1.271   7.093 -0.0083 -0.1158  0.5877
  165SAPE   H3Y18609   3.002   1.269   7.255  3.0695 -0.5285 -1.0277
  165SAPE   C3418610   2.836   1.137   7.234 -0.0976  0.3760 -0.0780
  165SAPE   H4X18611   2.790   1.066   7.162 -1.6728  0.6895  0.6073
  165SAPE   H4Y18612   2.759   1.215   7.247 -0.2876 -0.0938  1.7209
  165SAPE   C3518613   2.865   1.062   7.362  0.2352 -0.6917 -0.0872
  165SAPE   H5X18614   2.883   1.127   7.450 -0.2755  0.8734 -1.1283
  165SAPE   H5Y18615   2.958   1.002   7.350  0.7809 -0.0375  0.8282
  165SAPE   C3618616   2.738   0.987   7.391  0.2360  0.1367  0.0191
  165SAPE   H6X18617   2.723   0.912   7.309 -0.6465 -0.9739  1.1831
  165SAPE   H6Y18618   2.656   1.061   7.392 -1.0543 -1.2776  1.4195
  165SAPE   C3718619   2.746   0.902   7.524 -0.7167  0.2465  0.1905
  165SAPE   H7X18620   2.812   0.817   7.497  0.3059  1.2555 -0.5170
  165SAPE   H7Y18621   2.644   0.866   7.549 -0.9296 -0.8196 -2.0393
  165SAPE   C3818622   2.785   0.971   7.656 -0.5319 -0.1622  0.8916
  165SAPE   H8X18623   2.888   1.012   7.658 -0.7866  0.5178  0.2792
  165SAPE   H8Y18624   2.800   0.901   7.741  2.2691  0.4258  0.9285
  165SAPE   C3918625   2.687   1.082   7.696  0.2518  0.3682  0.7991
  165SAPE   H9X18626   2.681   1.162   7.620 -1.5742  0.6396  1.2141
  165SAPE   H9Y18627   2.731   1.138   7.782  1.5075 -0.6202  0.8228
  165SAPE  C31018628   2.545   1.042   7.737  0.4353  0.3779  0.0282
  165SAPE  H10X18629   2.493   0.984   7.658 -0.8243 -0.5719  1.5185
  165SAPE  H10Y18630   2.485   1.133   7.757 -0.1455 -0.1420  0.6815
  165SAPE  C31118631   2.541   0.954   7.868  0.1517  0.3107  0.7113
  165SAPE  H11X18632   2.601   0.866   7.837  0.8216  1.1593 -0.4554
  165SAPE  H11Y18633   2.442   0.909   7.892 -0.0712 -0.4176 -1.4066
  165SAPE  C31218634   2.611   1.021   7.985 -0.3615  1.1660 -0.7708
  165SAPE  H12X18635   2.568   1.120   8.011 -3.5007 -0.0107 -1.3632
  165SAPE  H12Y18636   2.718   1.042   7.964 -0.1710  1.8148  0.7605
  165SAPE  C31318637   2.627   0.927   8.103 -0.2935 -0.6909 -0.2908
  165SAPE  H13X18638   2.687   0.839   8.071 -0.2818 -1.4331  1.7215
  165SAPE  H13Y18639   2.532   0.888   8.144 -0.1202 -1.2928 -0.4499
  165SAPE  C31418640   2.699   0.997   8.216 -0.4416  0.0429  0.1904
  165SAPE  H14X18641   2.646   1.087   8.256 -1.0016 -1.3708  2.7524
  165SAPE  H14Y18642   2.798   1.028   8.176 -0.4400 -2.9345 -2.2633
  165SAPE  C31518643   2.713   0.914   8.340 -0.6667 -0.5697 -0.1469
  165SAPE  H15X18644   2.759   0.818   8.308 -0.8097 -0.5342 -0.4534
  165SAPE  H15Y18645   2.618   0.896   8.395 -0.6729  0.8618  0.3373
  165SAPE  C31618646   2.812   0.983   8.446  0.2746  0.6229 -0.7706
  165SAPE  H16X18647   2.906   1.010   8.395  0.7343 -0.6953 -0.6387
  165SAPE  H16Y18648   2.852   0.918   8.526  2.2084  0.1823 -2.0682
  165SAPE  C31718649   2.744   1.096   8.522 -0.7574 -0.0383  0.1780
  165SAPE  H17X18650   2.646   1.064   8.564 -0.5514 -0.3870  0.3978
  165SAPE  H17Y18651   2.723   1.166   8.438 -1.1309  2.0543  1.9771
  165SAPE  C31818652   2.833   1.148   8.631 -0.0820 -0.7180 -0.0274
  165SAPE  H18X18653   2.780   1.219   8.696  0.2703 -0.5308  0.0598
  165SAPE  H18Y18654   2.923   1.194   8.583  0.3144 -1.4676 -0.0116
  165SAPE  H18Z18655   2.869   1.067   8.698 -1.7923  0.1918  2.0305
  166SAPE     N18656   2.280   4.132   6.138 -0.2845  0.4784 -0.4747
  166SAPE   HN118657   2.196   4.074   6.156 -0.1371  0.8472  1.5656
  166SAPE   HN218658   2.359   4.095   6.194  0.7324  0.1889 -2.0735
  166SAPE   HN318659   2.258   4.231   6.159  1.0159  0.7058 -0.1631
  166SAPE   C1218660   2.325   4.137   5.996 -0.0644  0.8176  0.6601
  166SAPE  H12A18661   2.327   4.032   5.961  1.1961  1.0427  0.0122
  166SAPE  H12B18662   2.432   4.166   5.990  0.0308  0.6132  1.3138
  166SAPE   C1118663   2.244   4.231   5.906  0.8146  0.4155 -0.3056
  166SAPE  H11A18664   2.138   4.198   5.912  1.1391 -0.6134 -0.2944
  166SAPE  H11B18665   2.270   4.208   5.801 -1.2083 -0.0023 -0.7384
  166SAPE     P18666   2.172   4.463   6.018  0.2985  0.4201 -0.2794
  166SAPE   O1318667   2.222   4.604   6.025 -0.2671  0.6672 -0.7317
  166SAPE   O1418668   2.033   4.439   5.980  0.8444 -0.3472 -0.1000
  166SAPE   O1218669   2.271   4.371   5.929  0.2097 -0.0398  0.1224
  166SAPE   O1118670   2.194   4.394   6.149 -0.3097 -0.1287 -0.5726
  166SAPE    C118671   2.169   4.461   6.278  0.1409 -0.6097 -0.0737
  166SAPE    HA18672   2.126   4.561   6.257  1.3641  0.0802  0.6274
  166SAPE    HB18673   2.101   4.391   6.332  1.1652 -2.4827 -1.1430
  166SAPE    C218674   2.296   4.480   6.353 -0.4949  0.2769  0.8296
  166SAPE    HS18675   2.358   4.555   6.300  0.9233  0.7604  3.1206
  166SAPE   O2118676   2.371   4.355   6.357  0.2992 -0.6167 -0.4228
  166SAPE   C2118677   2.490   4.367   6.402 -0.1402  0.0338  0.7425
  166SAPE   O2218678   2.551   4.471   6.427  0.6960 -0.4854  0.2149
  166SAPE   C2218679   2.553   4.228   6.415  0.2344  1.2073 -0.2891
  166SAPE   H2R18680   2.469   4.164   6.383  0.3900  0.3141  1.0266
  166SAPE   H2S18681   2.639   4.236   6.345  0.0311  2.5702 -0.3951
  166SAPE    C318682   2.261   4.526   6.497 -0.2389 -0.3500 -0.8370
  166SAPE    HX18683   2.172   4.591   6.480  1.2852  2.0514  0.1224
  166SAPE    HY18684   2.346   4.584   6.539 -0.9499 -1.4372  2.2476
  166SAPE   O3118685   2.223   4.412   6.582 -0.3100 -0.0663  0.3861
  166SAPE   C3118686   2.158   4.455   6.689  0.6545 -0.2674 -0.3266
  166SAPE   O3218687   2.155   4.569   6.721 -0.1233 -0.4775 -0.4213
  166SAPE   C3218688   2.112   4.327   6.766  0.3271 -0.4165  0.4929
  166SAPE   H2X18689   2.197   4.256   6.773  1.2890  0.5284 -1.2320
  166SAPE   H2Y18690   2.035   4.280   6.702 -0.7485 -1.1465  2.2724
  166SAPE   C2318691   2.609   4.192   6.555 -0.0091  0.1184  0.7577
  166SAPE   H3R18692   2.705   4.243   6.579  1.2437 -2.1744  0.8183
  166SAPE   H3S18693   2.636   4.085   6.545 -0.8629 -0.2795  2.5292
  166SAPE   C2418694   2.501   4.205   6.664 -0.1288 -0.3013  0.4781
  166SAPE   H4R18695   2.417   4.133   6.654 -0.2630  0.1965 -2.4894
  166SAPE   H4S18696   2.452   4.304   6.666  1.8912  0.7666 -0.9175
  166SAPE   C2518697   2.561   4.168   6.797  0.2954 -0.2331 -0.2457
  166SAPE   H5R18698   2.573   4.058   6.799 -2.8160 -0.6310 -0.8505
  166SAPE   C2618699   2.590   4.247   6.897 -0.1408  0.2486  0.2602
  166SAPE   H6R18700   2.628   4.207   6.992 -1.5286 -0.9574  0.3248
  166SAPE   C2718701   2.567   4.397   6.893  0.3786 -0.1669 -0.2063
  166SAPE   H7R18702   2.581   4.427   6.999 -1.4211 -0.5812  0.1614
  166SAPE   H7S18703   2.463   4.425   6.867  0.0723 -1.5010 -0.4247
  166SAPE   C2818704   2.666   4.477   6.813  0.9568 -0.1942  0.5095
  166SAPE   H8R18705   2.761   4.429   6.786  1.2891  0.8680 -0.2660
  166SAPE   C2918706   2.647   4.605   6.772 -0.1698  0.3125 -0.2087
  166SAPE   H9R18707   2.716   4.648   6.698 -0.3608  1.2464  0.1542
  166SAPE  C21018708   2.527   4.688   6.797  0.2336  0.0447 -0.2740
  166SAPE  H10R18709   2.528   4.721   6.904 -1.1079 -3.1771  0.7870
  166SAPE  H10S18710   2.432   4.632   6.789 -0.5103  1.5509 -2.2997
  166SAPE  C21118711   2.521   4.800   6.699  0.0478 -0.2262  0.5969
  166SAPE  H11R18712   2.538   4.766   6.596  2.6149  3.0002 -0.1283
  166SAPE  C21218713   2.501   4.932   6.721 -0.4437  0.1498  0.1299
  166SAPE  H12R18714   2.526   4.995   6.634  0.8545 -2.2558 -1.3256
  166SAPE  C21318715   2.481   5.010   6.849 -0.4034  0.2623 -0.6125
  166SAPE  H13R18716   2.511   4.948   6.937 -1.1414 -2.8588 -2.5004
  166SAPE  H13S18717   2.376   5.035   6.877 -0.0721 -0.6391  1.5776
  166SAPE  C21418718   2.567   5.139   6.848  0.3869  0.2283  0.0108
  166SAPE  H14R18719   2.569   5.186   6.749  1.8990  1.9170  0.8017
  166SAPE  C21518720   2.646   5.176   6.949  0.3051 -0.2603 -0.1229
  166SAPE  H15R18721   2.708   5.265   6.932 -0.8450  0.5672 -0.0175
  166SAPE  C21618722   2.656   5.111   7.085 -0.2166 -0.4834  0.0498
  166SAPE  H16R18723   2.573   5.037   7.095 -0.0283 -0.7596 -0.4020
  166SAPE  H16S18724   2.639   5.185   7.166  2.7754  1.2913 -0.8779
  166SAPE  C21718725   2.787   5.045   7.121 -0.2341  0.6565  0.9279
  166SAPE  H17R18726   2.797   5.005   7.224  1.1200  0.9965  0.9523
  166SAPE  H17S18727   2.869   5.119   7.105 -1.3980  1.5900 -0.7694
  166SAPE  C21818728   2.808   4.934   7.024 -0.0782 -0.2697 -0.6723
  166SAPE  H18R18729   2.821   4.972   6.921 -0.6502  0.8956 -0.3112
  166SAPE  H18S18730   2.721   4.865   7.018 -0.1611 -0.3397  0.9731
  166SAPE  C21918731   2.936   4.859   7.050  0.0703 -0.1750  0.0385
  166SAPE  H19R18732   2.945   4.844   7.159 -1.5924 -1.7143 -0.0030
  166SAPE  H19S18733   3.022   4.923   7.022  0.6162  0.4193  3.0091
  166SAPE  C22018734   2.943   4.717   6.990 -0.2526 -0.1341  0.0085
  166SAPE  H20R18735   2.934   4.735   6.880  0.7719 -3.0760 -0.6014
  166SAPE  H20S18736   2.863   4.646   7.017  0.1492 -0.5796  0.0246
  166SAPE  H20T18737   3.043   4.675   7.013  0.0362 -0.1096 -1.1337
  166SAPE   C3318738   2.048   4.360   6.907  0.0012  0.0187 -0.3215
  166SAPE   H3X18739   2.005   4.269   6.952  0.3343  0.4826  0.9589
  166SAPE   H3Y18740   1.962   4.427   6.888 -0.2731 -0.5144 -0.9784
  166SAPE   C3418741   2.152   4.423   7.004  0.7996 -0.2765 -0.3969
  166SAPE   H4X18742   2.099   4.466   7.092  0.4275 -2.9952  0.7618
  166SAPE   H4Y18743   2.202   4.506   6.948  0.3166  0.5917  0.4290
  166SAPE   C3518744   2.258   4.336   7.064  0.2472 -0.2703 -0.2335
  166SAPE   H5X18745   2.344   4.392   7.105 -3.6022  3.0562  3.9138
  166SAPE   H5Y18746   2.291   4.268   6.983 -0.4323 -1.9490  0.8711
  166SAPE   C3618747   2.209   4.251   7.182 -0.4179 -0.7476  0.3005
  166SAPE   H6X18748   2.278   4.165   7.194 -0.9147 -1.1949 -0.0122
  166SAPE   H6Y18749   2.101   4.226   7.171  0.1222 -1.6712 -3.6922
  166SAPE   C3718750   2.244   4.316   7.315  0.2486  0.7893 -0.1291
  166SAPE   H7X18751   2.194   4.415   7.323 -0.9842  0.0253  2.0214
  166SAPE   H7Y18752   2.350   4.335   7.340  0.7653 -0.5045 -1.2266
  166SAPE   C3818753   2.189   4.246   7.446 -0.2541 -0.0607  0.3091
  166SAPE   H8X18754   2.188   4.135   7.440 -0.9534  0.0353 -2.1048
  166SAPE   H8Y18755   2.080   4.269   7.443 -0.1450  0.4622  0.3048
  166SAPE   C3918756   2.249   4.296   7.571 -0.1677  0.2759 -0.3399
  166SAPE   H9X18757   2.288   4.392   7.533  1.3879 -1.2743 -2.8089
  166SAPE   H9Y18758   2.337   4.232   7.594  1.1560  2.2439  0.0886
  166SAPE  C31018759   2.157   4.308   7.693  0.1160  0.7356 -0.1597
  166SAPE  H10X18760   2.096   4.216   7.698  1.4766 -0.2384 -1.2632
  166SAPE  H10Y18761   2.095   4.396   7.664 -1.1413 -0.5137 -1.2914
  166SAPE  C31118762   2.218   4.339   7.829  0.0444  0.2964 -0.5814
  166SAPE  H11X18763   2.136   4.391   7.884 -0.2847 -1.4127  0.5917
  166SAPE  H11Y18764   2.310   4.400   7.822 -0.1585  0.4796 -1.7115
  166SAPE  C31218765   2.258   4.222   7.923  0.1049 -0.0056 -0.0828
  166SAPE  H12X18766   2.328   4.146   7.883 -0.5503 -1.5877  1.6925
  166SAPE  H12Y18767   2.163   4.164   7.921 -1.9005  3.1331  1.1223
  166SAPE  C31318768   2.281   4.249   8.072 -0.3562  0.1224 -0.1862
  166SAPE  H13X18769   2.330   4.349   8.073  1.7717 -0.8059 -3.5451
  166SAPE  H13Y18770   2.358   4.178   8.108 -1.4319 -0.8873  0.1563
  166SAPE  C31418771   2.153   4.262   8.159 -0.6222 -0.3139 -0.3598
  166SAPE  H14X18772   2.107   4.161   8.152 -1.5118 -0.0958  1.7149
  166SAPE  H14Y18773   2.089   4.333   8.104 -0.2038  1.2818  1.1525
  166SAPE  C31518774   2.185   4.322   8.296 -0.0891  0.3894  0.5579
  166SAPE  H15X18775   2.093   4.367   8.338 -0.4862 -0.0500  0.1739
  166SAPE  H15Y18776   2.263   4.400   8.288  2.5173 -2.2424 -0.8535
  166SAPE  C31618777   2.235   4.219   8.403  0.6770  0.2375 -0.2842
  166SAPE  H16X18778   2.328   4.167   8.371  0.1629 -0.7752 -0.1465
  166SAPE  H16Y18779   2.162   4.138   8.426  2.1801 -0.9382  0.4889
  166SAPE  C31718780   2.258   4.291   8.543  0.1761  0.2568  0.6662
  166SAPE  H17X18781   2.335   4.362   8.507 -0.3242 -0.3969 -1.7867
  166SAPE  H17Y18782   2.290   4.219   8.621  1.2271 -1.3928 -1.2185
  166SAPE  C31818783   2.149   4.382   8.602 -0.3786  0.3605 -0.1197
  166SAPE  H18X18784   2.176   4.409   8.706 -1.6870 -1.0478  0.6049
  166SAPE  H18Y18785   2.055   4.324   8.602  1.4593 -2.7656 -1.7518
  166SAPE  H18Z18786   2.136   4.472   8.537  3.2673  1.8191  1.0251
  167SAPE     N18787   3.609   3.897   6.181  0.1174  0.8258 -0.7665
  167SAPE   HN118788   3.515   3.920   6.144 -1.0273 -0.3209  1.3545
  167SAPE   HN218789   3.661   3.978   6.221  1.7059 -0.5459  0.0132
  167SAPE   HN318790   3.662   3.855   6.102  1.3313 -0.6376  0.7845
  167SAPE   C1218791   3.590   3.778   6.267 -0.2236 -0.3921  0.8160
  167SAPE  H12A18792   3.483   3.760   6.289 -0.7334 -2.0603 -2.7354
  167SAPE  H12B18793   3.660   3.794   6.352 -0.4906  0.0003  0.9635
  167SAPE   C1118794   3.631   3.639   6.205  0.0847  0.0600 -0.1051
  167SAPE  H11A18795   3.567   3.610   6.119 -1.5570  2.4281  0.2585
  167SAPE  H11B18796   3.605   3.556   6.274 -0.7564  0.3108 -0.1202
  167SAPE     P18797   3.850   3.503   6.169  0.2164  0.0342  0.4245
  167SAPE   O1318798   3.795   3.417   6.054 -0.3375  0.1210 -0.3663
  167SAPE   O1418799   3.997   3.529   6.168 -0.6130  0.1638 -0.1583
  167SAPE   O1218800   3.769   3.645   6.168 -0.5171 -0.5196  0.0154
  167SAPE   O1118801   3.811   3.437   6.309  0.1285 -0.5827 -0.2567
  167SAPE    C118802   3.901   3.447   6.413  0.1617 -0.2172 -0.2124
  167SAPE    HA18803   3.980   3.370   6.398 -0.6522 -1.1230  0.0678
  167SAPE    HB18804   3.945   3.549   6.415 -1.0976  0.3239  0.3235
  167SAPE    C218805   3.839   3.422   6.558  0.0269 -0.6834  0.6188
  167SAPE    HS18806   3.798   3.318   6.564 -1.2648 -0.1048  2.2770
  167SAPE   O2118807   3.721   3.511   6.553  0.5716 -0.2284 -0.4055
  167SAPE   C2118808   3.617   3.471   6.624 -0.3290  0.2692  0.0050
  167SAPE   O2218809   3.613   3.370   6.693  0.0055  0.5769 -0.4587
  167SAPE   C2218810   3.521   3.587   6.612  0.7765  0.3876  0.0890
  167SAPE   H2R18811   3.569   3.687   6.618  0.7967  0.5459 -2.4688
  167SAPE   H2S18812   3.475   3.584   6.512  3.2280  1.7926 -1.1351
  167SAPE    C318813   3.932   3.449   6.678  0.8998 -0.5242  0.5668
  167SAPE    HX18814   3.969   3.554   6.669  0.7161 -0.5700 -0.7978
  167SAPE    HY18815   4.028   3.393   6.667  0.5338 -1.5251  2.2675
  167SAPE   O3118816   3.873   3.407   6.803 -0.1200 -0.5623 -0.0588
  167SAPE   C3118817   3.826   3.507   6.880  0.3418  0.4162  0.2970
  167SAPE   O3218818   3.831   3.623   6.852 -0.2436 -0.3975 -0.2684
  167SAPE   C3218819   3.751   3.444   7.002 -0.9276 -0.6774 -0.0928
  167SAPE   H2X18820   3.818   3.360   7.030  1.7263  1.6644  0.7385
  167SAPE   H2Y18821   3.652   3.401   6.972 -0.7133  0.3885 -2.4417
  167SAPE   C2318822   3.407   3.589   6.717 -0.0339  0.7344  0.4387
  167SAPE   H3R18823   3.352   3.492   6.716  1.8393 -0.3478  0.1057
  167SAPE   H3S18824   3.332   3.666   6.687  0.8588  1.5748  0.3535
  167SAPE   C2418825   3.456   3.606   6.858 -0.0869 -0.6784  0.2276
  167SAPE   H4R18826   3.505   3.515   6.899  0.7303  0.6843  2.3439
  167SAPE   H4S18827   3.366   3.607   6.923 -0.1574  0.3655  0.1150
  167SAPE   C2518828   3.532   3.734   6.881 -0.1920  0.3401  0.3024
  167SAPE   H5R18829   3.639   3.748   6.859 -0.3601 -0.4350 -1.0629
  167SAPE   C2618830   3.466   3.852   6.898  0.0550 -0.1721  0.6452
  167SAPE   H6R18831   3.521   3.947   6.905  0.3316 -0.2377 -0.6012
  167SAPE   C2718832   3.313   3.861   6.897  0.0750  0.1886  0.3001
  167SAPE   H7R18833   3.259   3.764   6.892  0.2507  0.1567 -1.3711
  167SAPE   H7S18834   3.280   3.916   6.806  1.0785  0.4552  0.0935
  167SAPE   C2818835   3.271   3.941   7.016 -0.3352 -0.3124 -0.1092
  167SAPE   H8R18836   3.267   4.050   7.003  1.6322 -0.2088 -0.0534
  167SAPE   C2918837   3.241   3.901   7.138 -0.3696  0.4375  0.3264
  167SAPE   H9R18838   3.198   3.967   7.215  1.3928 -1.5947  3.1116
  167SAPE  C21018839   3.243   3.763   7.193  0.0031 -0.2602  0.1482
  167SAPE  H10R18840   3.218   3.680   7.123 -0.3946 -1.5467  1.7857
  167SAPE  H10S18841   3.163   3.752   7.269 -1.1735 -1.2624 -1.1910
  167SAPE  C21118842   3.376   3.742   7.256 -0.0976 -0.7181 -0.2279
  167SAPE  H11R18843   3.444   3.687   7.190  2.5531 -0.8657  2.5088
  167SAPE  C21218844   3.419   3.776   7.378 -0.1564 -0.9511 -0.4784
  167SAPE  H12R18845   3.526   3.762   7.399  0.0418  1.2518  0.1236
  167SAPE  C21318846   3.329   3.841   7.480  0.6747  0.3506  0.8496
  167SAPE  H13R18847   3.266   3.763   7.529 -0.4877 -0.7294 -2.2045
  167SAPE  H13S18848   3.249   3.907   7.440 -1.1167 -2.2990 -0.1234
  167SAPE  C21418849   3.402   3.924   7.587  0.2915  0.1243 -1.0414
  167SAPE  H14R18850   3.483   3.988   7.550  2.0121  0.4895  3.1835
  167SAPE  C21518851   3.372   3.939   7.718 -0.0453 -0.0859  0.1359
  167SAPE  H15R18852   3.437   4.004   7.778  2.1423 -1.6264 -0.5374
  167SAPE  C21618853   3.264   3.860   7.798  0.3326 -0.1502 -0.0038
  167SAPE  H16R18854   3.301   3.780   7.865  1.3922 -0.6418 -1.1658
  167SAPE  H16S18855   3.207   3.803   7.722 -1.2740 -1.3760  2.0723
  167SAPE  C21718856   3.155   3.933   7.888  0.2203  0.1925  0.1747
  167SAPE  H17R18857   3.085   3.851   7.916  1.3483 -1.3946 -1.5109
  167SAPE  H17S18858   3.106   4.010   7.825  1.4804  0.3030 -0.6951
  167SAPE  C21818859   3.216   3.998   8.008 -0.2772 -0.2066  0.0694
  167SAPE  H18R18860   3.313   4.045   7.981  0.3985 -2.4771 -1.5992
  167SAPE  H18S18861   3.247   3.924   8.085  0.4472 -1.2889 -1.2284
  167SAPE  C21918862   3.131   4.103   8.070  0.4778  0.0597  0.2692
  167SAPE  H19R18863   3.072   4.167   8.001  0.8198 -0.1625 -0.2296
  167SAPE  H19S18864   3.201   4.171   8.124  1.7732 -0.5774 -0.5797
  167SAPE  C22018865   3.024   4.045   8.176 -0.2848  0.1636 -0.0125
  167SAPE  H20R18866   2.990   3.944   8.142 -0.2319 -0.3755  1.4839
  167SAPE  H20S18867   2.934   4.109   8.186  0.5295  1.2733  0.2799
  167SAPE  H20T18868   3.072   4.021   8.274  0.1846  0.3717 -0.1928
  167SAPE   C3318869   3.744   3.532   7.132  0.2042  0.5889 -0.5155
  167SAPE   H3X18870   3.648   3.588   7.122  1.0086  1.8500 -1.4517
  167SAPE   H3Y18871   3.820   3.613   7.123 -0.1663  1.1341  1.1151
  167SAPE   C3418872   3.762   3.450   7.261  0.6502 -0.7664 -0.2390
  167SAPE   H4X18873   3.861   3.402   7.254  1.3097  0.4927  0.2501
  167SAPE   H4Y18874   3.689   3.367   7.269  1.7576 -1.7141  0.1269
  167SAPE   C3518875   3.742   3.546   7.389  0.2526 -0.1076  0.0865
  167SAPE   H5X18876   3.636   3.579   7.394  0.6455  1.4921 -1.8063
  167SAPE   H5Y18877   3.810   3.634   7.388  0.5629 -0.3514 -0.3903
  167SAPE   C3618878   3.774   3.471   7.520  0.0311  0.3519  0.0708
  167SAPE   H6X18879   3.879   3.435   7.524 -0.5180 -1.2959 -0.0292
  167SAPE   H6Y18880   3.708   3.384   7.540  0.4859  0.3467  1.6145
  167SAPE   C3718881   3.780   3.565   7.649 -0.6484  0.1469  0.2542
  167SAPE   H7X18882   3.862   3.639   7.643 -0.1980 -0.3621  0.0871
  167SAPE   H7Y18883   3.804   3.501   7.737 -2.5726 -1.9708 -0.7331
  167SAPE   C3818884   3.647   3.633   7.678  0.3678  0.2639  0.7133
  167SAPE   H8X18885   3.621   3.687   7.585 -1.4643 -1.4747  0.1783
  167SAPE   H8Y18886   3.653   3.704   7.764 -1.6043  2.9736 -1.2913
  167SAPE   C3918887   3.528   3.541   7.706  0.8011 -0.0351  0.2230
  167SAPE   H9X18888   3.510   3.480   7.615 -0.0429 -1.3791  1.2721
  167SAPE   H9Y18889   3.436   3.599   7.730  1.3876  0.2810  1.8089
  167SAPE  C31018890   3.541   3.436   7.817  0.4844  0.1538 -0.0560
  167SAPE  H10X18891   3.628   3.368   7.807 -0.5053 -1.1240 -0.1730
  167SAPE  H10Y18892   3.451   3.372   7.825 -0.3704  1.2227 -0.9931
  167SAPE  C31118893   3.571   3.497   7.950  0.1789 -0.0053 -0.1612
  167SAPE  H11X18894   3.495   3.578   7.959 -0.5106 -0.7255  0.6334
  167SAPE  H11Y18895   3.677   3.524   7.967 -0.0864  0.9831 -0.0245
  167SAPE  C31218896   3.534   3.393   8.059 -0.2528  0.2153 -0.0692
  167SAPE  H12X18897   3.599   3.304   8.042 -0.3012  0.6259 -2.7498
  167SAPE  H12Y18898   3.433   3.348   8.050  0.1688 -0.6509 -0.5204
  167SAPE  C31318899   3.550   3.443   8.200 -0.8542  1.5364 -0.4187
  167SAPE  H13X18900   3.657   3.460   8.224 -0.3293 -1.0362 -0.8106
  167SAPE  H13Y18901   3.507   3.367   8.268  1.5524  0.3222 -0.1872
  167SAPE  C31418902   3.478   3.578   8.231 -0.4125  0.1311 -0.0824
  167SAPE  H14X18903   3.373   3.573   8.194  0.4062 -2.2447 -2.2501
  167SAPE  H14Y18904   3.535   3.655   8.173  2.2202 -2.0548 -0.5038
  167SAPE  C31518905   3.484   3.627   8.374  0.1822  0.4248 -0.2306
  167SAPE  H15X18906   3.397   3.581   8.425  0.0901 -0.6931 -1.3721
  167SAPE  H15Y18907   3.466   3.736   8.375  0.0122  0.3879  1.0025
  167SAPE  C31618908   3.628   3.624   8.440  0.8160  0.2748 -0.7569
  167SAPE  H16X18909   3.684   3.713   8.404  0.8427  0.4961 -0.1765
  167SAPE  H16Y18910   3.666   3.520   8.427 -0.3334 -0.0782 -1.3712
  167SAPE  C31718911   3.611   3.643   8.591  0.1558 -0.2206 -0.5244
  167SAPE  H17X18912   3.570   3.554   8.645 -0.4681  1.3693  1.6786
  167SAPE  H17Y18913   3.546   3.732   8.608 -0.0140 -0.5214  0.4542
  167SAPE  C31818914   3.744   3.670   8.669  0.4123 -0.1579 -0.8282
  167SAPE  H18X18915   3.794   3.768   8.655  0.8407  0.0423  1.8257
  167SAPE  H18Y18916   3.817   3.588   8.655 -0.7724 -1.3755  0.0485
  167SAPE  H18Z18917   3.716   3.661   8.776  0.9374  0.6616 -0.6130
  168SAPE     N18918   5.171   5.470   6.199  0.9283  0.0288  0.3482
  168SAPE   HN118919   5.141   5.501   6.105  1.1394 -1.1855 -0.1305
  168SAPE   HN218920   5.265   5.511   6.218  1.8615 -1.0466 -1.6908
  168SAPE   HN318921   5.199   5.370   6.190  1.0840  0.1780 -0.9300
  168SAPE   C1218922   5.064   5.488   6.308 -0.0847 -0.8769  1.0078
  168SAPE  H12A18923   4.970   5.432   6.291 -0.4423 -0.3726  1.3139
  168SAPE  H12B18924   5.045   5.598   6.306 -1.5143 -1.1421 -1.5343
  168SAPE   C1118925   5.125   5.460   6.444 -0.1029 -0.1671  0.5081
  168SAPE  H11A18926   5.143   5.350   6.446  0.3447 -0.1209 -0.7465
  168SAPE  H11B18927   5.038   5.485   6.509 -0.6954 -1.5030  0.2500
  168SAPE     P18928   5.373   5.461   6.525  0.0020  0.4632 -0.0628
  168SAPE   O1318929   5.414   5.362   6.423  0.0514  0.6632  0.0609
  168SAPE   O1418930   5.478   5.565   6.557  0.2688  0.4021  0.4065
  168SAPE   O1218931   5.238   5.538   6.473  0.3251 -0.5932  0.1656
  168SAPE   O1118932   5.333   5.376   6.650 -0.4171  0.3134 -0.5939
  168SAPE    C118933   5.325   5.430   6.784  0.1918 -0.8247 -0.1550
  168SAPE    HA18934   5.405   5.382   6.843  0.5622 -0.1549 -0.1108
  168SAPE    HB18935   5.343   5.540   6.791 -0.0640 -0.7631 -0.4525
  168SAPE    C218936   5.194   5.384   6.852 -0.5180  0.3079 -0.3165
  168SAPE    HS18937   5.115   5.428   6.786 -1.5550  1.7615  1.8484
  168SAPE   O2118938   5.182   5.446   6.975 -0.2570  0.0217 -0.1867
  168SAPE   C2118939   5.055   5.453   7.010 -0.0368 -0.8789  0.1037
  168SAPE   O2218940   4.952   5.426   6.945 -0.1332 -0.1222 -0.4087
  168SAPE   C2218941   5.037   5.514   7.150 -0.2673  0.7463  0.2079
  168SAPE   H2R18942   5.115   5.592   7.170 -0.1989  0.8008 -0.2803
  168SAPE   H2S18943   4.948   5.580   7.148  1.3497  3.0031 -0.1825
  168SAPE    C318944   5.180   5.226   6.850  0.1245  0.7096  0.6316
  168SAPE    HX18945   5.277   5.201   6.897 -0.4408 -1.7176  0.5602
  168SAPE    HY18946   5.171   5.184   6.748  0.4134 -1.6840  1.5521
  168SAPE   O3118947   5.065   5.184   6.932  0.1251  0.0651 -0.0963
  168SAPE   C3118948   4.966   5.124   6.869 -0.0137 -0.2813 -0.5948
  168SAPE   O3218949   4.969   5.083   6.758 -0.3802 -0.1110 -0.2834
  168SAPE   C3218950   4.861   5.097   6.978  0.0859  0.6142  0.4734
  168SAPE   H2X18951   4.766   5.046   6.950  1.0353 -0.8923 -0.1166
  168SAPE   H2Y18952   4.829   5.189   7.030  1.9702  1.2912  0.4953
  168SAPE   C2318953   5.016   5.414   7.267 -0.3348 -0.4033  0.7315
  168SAPE   H3R18954   4.923   5.354   7.253  0.1010 -1.3181  1.6714
  168SAPE   H3S18955   4.980   5.473   7.354 -2.3103  1.6139 -1.3906
  168SAPE   C2418956   5.134   5.323   7.302  0.2664 -0.1764 -0.7357
  168SAPE   H4R18957   5.180   5.281   7.210  2.6976 -0.9210  0.7772
  168SAPE   H4S18958   5.100   5.233   7.357  0.4150  0.5009  0.5064
  168SAPE   C2518959   5.231   5.392   7.392 -0.5107 -0.1841 -1.2232
  168SAPE   H5R18960   5.322   5.430   7.344  0.8423 -2.0477 -0.2049
  168SAPE   C2618961   5.214   5.401   7.521 -0.4639 -0.5277 -0.6314
  168SAPE   H6R18962   5.292   5.441   7.586 -0.2161  0.2724 -1.4028
  168SAPE   C2718963   5.106   5.335   7.597  0.2253  0.3782  0.4123
  168SAPE   H7R18964   5.015   5.308   7.540  1.0612  0.1174 -0.8283
  168SAPE   H7S18965   5.068   5.401   7.678 -0.6909  0.7885 -0.3465
  168SAPE   C2818966   5.159   5.201   7.648  0.3985 -0.5917  0.4235
  168SAPE   H8R18967   5.185   5.132   7.566  0.5422 -0.3719  0.2829
  168SAPE   C2918968   5.183   5.166   7.777 -0.1882  0.8188 -0.5829
  168SAPE   H9R18969   5.238   5.073   7.795  1.1437  1.1547 -2.6386
  168SAPE  C21018970   5.146   5.247   7.904  0.3990  0.1970  0.2966
  168SAPE  H10R18971   5.048   5.298   7.893 -0.3262 -1.5968 -1.9819
  168SAPE  H10S18972   5.214   5.333   7.922 -0.8976  1.2935 -0.0450
  168SAPE  C21118973   5.162   5.165   8.033 -0.5931  0.2406  0.9778
  168SAPE  H11R18974   5.261   5.126   8.060  0.3118  0.3997 -1.8852
  168SAPE  C21218975   5.056   5.153   8.121 -1.3048 -0.0730 -0.6716
  168SAPE  H12R18976   5.074   5.089   8.208  0.4800 -0.0114 -0.9815
  168SAPE  C21318977   4.924   5.215   8.103 -0.3323  0.5874 -0.1194
  168SAPE  H13R18978   4.894   5.190   7.999 -0.8882  0.0275  0.1641
  168SAPE  H13S18979   4.940   5.324   8.111 -0.3963  0.6739 -1.0973
  168SAPE  C21418980   4.811   5.157   8.192 -0.1662  0.0575  0.9452
  168SAPE  H14R18981   4.833   5.130   8.296 -0.4953 -0.6527  0.8327
  168SAPE  C21518982   4.681   5.158   8.154  0.4658 -0.6519  0.1380
  168SAPE  H15R18983   4.606   5.104   8.212 -1.1885  0.8890 -0.5184
  168SAPE  C21618984   4.635   5.203   8.016 -0.8757 -1.0054  0.8498
  168SAPE  H16R18985   4.527   5.185   7.994 -0.1271 -0.8313 -3.4208
  168SAPE  H16S18986   4.686   5.148   7.934  0.4876  1.1230  0.2294
  168SAPE  C21718987   4.672   5.348   7.981  0.1574 -0.4147 -0.3191
  168SAPE  H17R18988   4.746   5.398   8.046 -0.4217 -1.8607  1.5063
  168SAPE  H17S18989   4.595   5.427   7.996 -0.4872 -0.9251 -0.8890
  168SAPE  C21818990   4.707   5.363   7.827 -0.2734 -0.0714 -0.4551
  168SAPE  H18R18991   4.607   5.372   7.780  0.2320  1.9771 -1.2000
  168SAPE  H18S18992   4.757   5.276   7.780 -1.8597 -0.6799 -1.0430
  168SAPE  C21918993   4.794   5.490   7.803  0.2722  0.1336  0.9866
  168SAPE  H19R18994   4.796   5.496   7.692 -0.6080  2.9208  1.0767
  168SAPE  H19S18995   4.897   5.474   7.842  0.2003 -0.8814  0.7577
  168SAPE  C22018996   4.741   5.617   7.868 -0.1874 -0.1782  0.1941
  168SAPE  H20R18997   4.743   5.609   7.978 -1.4214 -0.7628  0.1856
  168SAPE  H20S18998   4.639   5.644   7.833  0.9317  0.6994 -2.5128
  168SAPE  H20T18999   4.810   5.700   7.843 -1.3761  1.0883  1.0594
  168SAPE   C3319000   4.924   5.024   7.095  0.1678  0.1719 -0.3714
  168SAPE   H3X19001   5.006   5.092   7.126  1.9821 -1.9738 -0.3727
  168SAPE   H3Y19002   4.965   4.926   7.062  3.2648  1.7002 -1.2040
  168SAPE   C3419003   4.824   4.995   7.211 -0.9967 -0.7087 -0.2884
  168SAPE   H4X19004   4.879   4.932   7.285 -0.8848 -0.3442 -0.0576
  168SAPE   H4Y19005   4.725   4.948   7.195 -2.0914  0.5597  2.4611
  168SAPE   C3519006   4.797   5.119   7.302 -0.3593  0.1581  0.5266
  168SAPE   H5X19007   4.775   5.204   7.234 -0.6018 -0.2101  0.1439
  168SAPE   H5Y19008   4.882   5.151   7.366  1.3570 -0.5909 -1.3151
  168SAPE   C3619009   4.677   5.094   7.390  0.6884  0.1970  0.5119
  168SAPE   H6X19010   4.589   5.060   7.331  0.2031  2.1852  0.0331
  168SAPE   H6Y19011   4.646   5.192   7.432  2.6925  1.8570 -1.6660
  168SAPE   C3719012   4.703   5.004   7.511 -0.3295  0.4972 -0.3142
  168SAPE   H7X19013   4.794   5.036   7.567  0.2117 -0.1347 -0.8216
  168SAPE   H7Y19014   4.728   4.901   7.476  2.9635  0.1903  2.6240
  168SAPE   C3819015   4.575   4.990   7.600  0.9887  0.1198  0.2723
  168SAPE   H8X19016   4.490   4.956   7.537  0.4320  0.3915  0.8662
  168SAPE   H8Y19017   4.549   5.087   7.647  1.1488  0.8611 -1.1407
  168SAPE   C3919018   4.596   4.881   7.708  0.1832 -0.6319  0.3047
  168SAPE   H9X19019   4.700   4.893   7.744  1.0989 -2.0985 -1.7835
  168SAPE   H9Y19020   4.598   4.781   7.660 -1.0704 -0.4850 -0.0956
  168SAPE  C31019021   4.490   4.896   7.825  0.2367 -0.6999  0.8465
  168SAPE  H10X19022   4.393   4.855   7.788  1.7218 -1.4216 -2.4008
  168SAPE  H10Y19023   4.474   5.004   7.846  0.6385 -0.9241  2.3666
  168SAPE  C31119024   4.510   4.807   7.949 -0.0215 -0.2382 -0.7105
  168SAPE  H11X19025   4.611   4.832   7.989  0.3865  1.5727 -2.7564
  168SAPE  H11Y19026   4.511   4.700   7.921 -0.4752  0.0608 -1.8724
  168SAPE  C31219027   4.408   4.824   8.059 -0.1556 -0.0453 -0.1422
  168SAPE  H12X19028   4.311   4.787   8.022 -0.3043  0.4763 -0.2762
  168SAPE  H12Y19029   4.402   4.933   8.082  1.0989 -0.0506  0.2732
  168SAPE  C31319030   4.448   4.764   8.195 -0.3483 -0.4264 -0.4226
  168SAPE  H13X19031   4.529   4.824   8.240  0.6747 -1.1293 -1.2903
  168SAPE  H13Y19032   4.499   4.667   8.176  1.0607  0.3608 -0.7716
  168SAPE  C31419033   4.332   4.728   8.282 -0.3683 -0.6167 -0.0304
  168SAPE  H14X19034   4.367   4.669   8.370  0.6143  2.9586  2.0736
  168SAPE  H14Y19035   4.264   4.663   8.222 -2.8900  2.7361 -0.9515
  168SAPE  C31519036   4.258   4.848   8.338  0.5971  0.8448 -0.0366
  168SAPE  H15X19037   4.203   4.892   8.252  2.8229  2.0530 -0.8739
  168SAPE  H15Y19038   4.340   4.917   8.369 -1.0519  2.4869  0.7562
  168SAPE  C31619039   4.162   4.809   8.444 -0.1009  0.4468 -0.4898
  168SAPE  H16X19040   4.215   4.759   8.528 -1.2461 -0.3773 -0.2452
  168SAPE  H16Y19041   4.091   4.740   8.395  1.7285 -1.3450 -0.6752
  168SAPE  C31719042   4.090   4.934   8.507 -0.0907 -0.7652 -0.0924
  168SAPE  H17X19043   4.006   4.904   8.573 -2.4972  1.6873 -1.9111
  168SAPE  H17Y19044   4.052   4.987   8.418 -0.7103  1.3904  1.4119
  168SAPE  C31819045   4.182   5.012   8.601  0.2059 -0.4110  0.2248
  168SAPE  H18X19046   4.133   5.105   8.635  3.2834  1.5509 -0.4669
  168SAPE  H18Y19047   4.271   5.050   8.547  0.4808 -0.1963  0.8208
  168SAPE  H18Z19048   4.220   4.954   8.689 -1.1441  0.0805  1.1446
  169SAPE     N19049   3.799   0.279   6.129  0.0671  0.2303  0.1032
  169SAPE   HN119050   3.891   0.305   6.170  0.5814  0.1438 -0.9799
  169SAPE   HN219051   3.825   0.239   6.037 -0.2870  0.3863 -0.0630
  169SAPE   HN319052   3.740   0.365   6.129  0.8927  0.8010 -0.6401
  169SAPE   C1219053   3.754   0.177   6.225  0.4414  0.1987 -0.0882
  169SAPE  H12A19054   3.654   0.137   6.202 -0.1102  0.2971  2.0378
  169SAPE  H12B19055   3.744   0.225   6.325 -0.6125 -0.5161  0.1615
  169SAPE   C1119056   3.855   0.060   6.231  0.5053  0.4064  0.6388
  169SAPE  H11A19057   3.838  -0.006   6.143 -0.1896  0.8977  0.4013
  169SAPE  H11B19058   3.824   0.002   6.321 -1.8967  2.2783  1.0759
  169SAPE     P19059   4.096  -0.016   6.250  0.0550 -0.0079  0.1504
  169SAPE   O1319060   4.071  -0.138   6.175 -0.1904  0.7108  0.6430
  169SAPE   O1419061   4.233   0.045   6.233  0.2325 -0.5422  0.4961
  169SAPE   O1219062   3.989   0.110   6.229  0.0541  0.5250 -0.0516
  169SAPE   O1119063   4.089  -0.064   6.405  0.0446 -0.7132  0.0484
  169SAPE    C119064   4.124   0.030   6.504 -0.3650  0.2449  0.1740
  169SAPE    HA19065   4.186  -0.025   6.579  1.9301  2.2415 -0.2025
  169SAPE    HB19066   4.184   0.116   6.470 -0.2339 -0.5811 -1.7492
  169SAPE    C219067   3.990   0.068   6.571  0.6246  0.6506 -0.1924
  169SAPE    HS19068   3.922   0.105   6.490 -0.4421 -1.0995 -0.1112
  169SAPE   O2119069   4.015   0.175   6.673  0.5890  0.3222 -0.2904
  169SAPE   C2119070   4.015   0.296   6.624  0.1786 -0.1157  0.1699
  169SAPE   O2219071   4.028   0.324   6.503  0.1366 -0.2037 -0.2480
  169SAPE   C2219072   3.995   0.399   6.736 -0.6329  0.1971  0.4334
  169SAPE   H2R19073   3.958   0.335   6.819  1.1808 -2.4625 -0.7223
  169SAPE   H2S19074   4.087   0.449   6.774 -0.1510  2.9596 -3.9455
  169SAPE    C319075   3.909  -0.054   6.633 -0.6402  0.3287  0.3366
  169SAPE    HX19076   3.971  -0.133   6.680 -1.3258 -0.1629  0.4257
  169SAPE    HY19077   3.870  -0.108   6.544 -2.1805 -1.4491  2.0304
  169SAPE   O3119078   3.804  -0.018   6.718  0.0494  0.4798  0.4665
  169SAPE   C3119079   3.691   0.037   6.664  0.6265 -0.1168  0.0254
  169SAPE   O3219080   3.670   0.061   6.547 -0.0791  0.2780 -0.1070
  169SAPE   C3219081   3.581   0.074   6.772  0.3586  0.4832 -0.3467
  169SAPE   H2X19082   3.527  -0.020   6.794  0.9706  0.8042  2.7487
  169SAPE   H2Y19083   3.511   0.152   6.736  1.3130  1.7677  0.5177
  169SAPE   C2319084   3.894   0.505   6.693 -0.4783 -0.0519  0.1961
  169SAPE   H3R19085   3.811   0.455   6.638 -0.9643  1.6120 -0.6191
  169SAPE   H3S19086   3.941   0.570   6.616 -0.3214 -0.1200  0.2367
  169SAPE   C2419087   3.821   0.560   6.815 -0.3870 -0.9572 -0.3514
  169SAPE   H4R19088   3.899   0.559   6.895  1.4269  1.9376 -2.0318
  169SAPE   H4S19089   3.749   0.484   6.854 -0.5033  0.5070  2.4057
  169SAPE   C2519090   3.764   0.693   6.772 -0.2734  0.5040  0.4198
  169SAPE   H5R19091   3.711   0.696   6.676 -0.3316 -3.0753  0.2828
  169SAPE   C2619092   3.767   0.803   6.853 -0.8988 -0.3717 -0.6354
  169SAPE   H6R19093   3.737   0.902   6.816  0.1505  0.0007 -0.5086
  169SAPE   C2719094   3.830   0.817   6.992  0.2549 -0.2254 -0.2150
  169SAPE   H7R19095   3.885   0.914   6.996  2.3362 -1.3340 -1.1877
  169SAPE   H7S19096   3.899   0.733   7.012 -1.0347 -1.2285  0.0604
  169SAPE   C2819097   3.727   0.799   7.106 -0.2438 -0.0686  0.2138
  169SAPE   H8R19098   3.627   0.775   7.065 -0.4932  0.8543  0.2712
  169SAPE   C2919099   3.750   0.791   7.233  0.6318  0.5565  0.2785
  169SAPE   H9R19100   3.663   0.786   7.299  0.9142  0.1972  0.6250
  169SAPE  C21019101   3.887   0.801   7.296 -0.1824  0.2051 -0.4912
  169SAPE  H10R19102   3.972   0.809   7.224  0.2428 -0.2022 -0.0373
  169SAPE  H10S19103   3.903   0.697   7.329  2.1106  0.6559 -0.0978
  169SAPE  C21119104   3.895   0.913   7.395 -0.9703 -0.5713 -0.1196
  169SAPE  H11R19105   3.902   1.008   7.341 -2.5220 -0.0387  0.5838
  169SAPE  C21219106   3.882   0.905   7.529  0.2736 -0.4700 -0.3573
  169SAPE  H12R19107   3.888   0.998   7.586 -1.1357 -0.8684  0.4590
  169SAPE  C21319108   3.858   0.778   7.603 -0.2459 -0.0692 -0.0310
  169SAPE  H13R19109   3.857   0.695   7.529  2.8678  0.9770 -1.3451
  169SAPE  H13S19110   3.760   0.783   7.654  0.3556  0.8086  1.0544
  169SAPE  C21419111   3.972   0.752   7.703 -0.6064  0.1433  0.0254
  169SAPE  H14R19112   4.068   0.794   7.671  0.0677 -0.5001  1.1809
  169SAPE  C21519113   3.971   0.679   7.815  0.1566 -0.9099  0.1262
  169SAPE  H15R19114   4.057   0.690   7.883 -0.3207  2.6828  0.2317
  169SAPE  C21619115   3.858   0.598   7.881 -0.0209  0.3536 -0.8533
  169SAPE  H16R19116   3.894   0.508   7.935 -0.7701 -0.4132 -1.6181
  169SAPE  H16S19117   3.781   0.557   7.811  1.9088 -2.3891 -1.4313
  169SAPE  C21719118   3.795   0.685   8.006  0.2245  0.3902 -0.4151
  169SAPE  H17R19119   3.752   0.781   7.969  0.9965  1.4671  1.4199
  169SAPE  H17S19120   3.875   0.718   8.075  0.5824 -1.4107  0.0549
  169SAPE  C21819121   3.691   0.595   8.079 -0.2001  0.0192 -0.2718
  169SAPE  H18R19122   3.740   0.515   8.139  0.6764  1.6744  1.2913
  169SAPE  H18S19123   3.615   0.547   8.013 -1.6887  0.3443  1.1760
  169SAPE  C21919124   3.623   0.685   8.179 -0.3301  0.7240  0.2194
  169SAPE  H19R19125   3.573   0.775   8.138 -2.6232 -0.6005 -0.0193
  169SAPE  H19S19126   3.705   0.717   8.247 -0.5177  1.8701 -0.0964
  169SAPE  C22019127   3.520   0.604   8.264 -0.4169 -0.0266  0.0765
  169SAPE  H20R19128   3.492   0.655   8.359 -1.8495  1.0612 -0.9225
  169SAPE  H20S19129   3.571   0.506   8.282 -0.8605 -0.0733  1.1401
  169SAPE  H20T19130   3.423   0.582   8.214 -1.8428  2.0735  1.8293
  169SAPE   C3319131   3.643   0.137   6.901  0.5032  0.0516 -0.4572
  169SAPE   H3X19132   3.718   0.213   6.872  0.6490 -0.0993 -0.4761
  169SAPE   H3Y19133   3.692   0.054   6.956  0.8353 -1.0973 -2.4503
  169SAPE   C3419134   3.536   0.198   6.987  0.3165  0.1702 -0.9184
  169SAPE   H4X19135   3.446   0.133   6.984 -1.8640  3.0100  0.3003
  169SAPE   H4Y19136   3.502   0.293   6.941 -1.0582  0.7934  1.2933
  169SAPE   C3519137   3.586   0.235   7.125 -0.2569  0.6297  0.1153
  169SAPE   H5X19138   3.676   0.298   7.110 -0.5893  0.8873 -0.7996
  169SAPE   H5Y19139   3.607   0.146   7.188 -0.5271 -0.8639 -1.8801
  169SAPE   C3619140   3.476   0.314   7.193  0.1362  0.1651 -0.3821
  169SAPE   H6X19141   3.373   0.274   7.179 -0.7119  2.1195  0.1213
  169SAPE   H6Y19142   3.476   0.420   7.161 -1.3560  0.1115 -0.6281
  169SAPE   C3719143   3.495   0.305   7.345 -0.8552  0.1568  0.0174
  169SAPE   H7X19144   3.601   0.324   7.373 -0.7654 -1.8523  1.1220
  169SAPE   H7Y19145   3.468   0.201   7.375 -0.7785  0.6195  1.7801
  169SAPE   C3819146   3.407   0.397   7.437 -0.0394  0.2443  0.1741
  169SAPE   H8X19147   3.299   0.396   7.409 -1.1037  1.6783  3.9391
  169SAPE   H8Y19148   3.452   0.497   7.420 -0.9273  0.4604 -0.9211
  169SAPE   C3919149   3.426   0.354   7.582 -0.8609  0.7586  0.3384
  169SAPE   H9X19150   3.533   0.326   7.592 -1.4530 -1.7212  0.0015
  169SAPE   H9Y19151   3.364   0.262   7.585 -0.7077  0.6642  0.6589
  169SAPE  C31019152   3.386   0.455   7.684 -0.0908  0.0456 -0.0528
  169SAPE  H10X19153   3.276   0.466   7.680 -0.1248 -0.2603 -0.0089
  169SAPE  H10Y19154   3.435   0.554   7.672  0.0862  0.2698  2.1700
  169SAPE  C31119155   3.406   0.423   7.834 -0.4635  0.4751 -0.1756
  169SAPE  H11X19156   3.353   0.497   7.897  0.0911  0.8222 -0.1184
  169SAPE  H11Y19157   3.515   0.426   7.853 -0.4739  2.4532 -0.3577
  169SAPE  C31219158   3.345   0.286   7.876  0.0336 -0.3085  0.1404
  169SAPE  H12X19159   3.392   0.215   7.805 -0.6365  0.1907 -0.8081
  169SAPE  H12Y19160   3.235   0.275   7.866  0.3832 -3.2189 -1.0298
  169SAPE  C31319161   3.387   0.247   8.019 -0.0276 -0.2594 -0.1584
  169SAPE  H13X19162   3.497   0.266   8.022  0.2767 -1.9566  0.2288
  169SAPE  H13Y19163   3.376   0.136   8.022 -0.7519 -0.2289 -1.6537
  169SAPE  C31419164   3.303   0.324   8.119  0.1794 -0.0635  0.0793
  169SAPE  H14X19165   3.201   0.301   8.082 -0.2487  1.4715  0.2872
  169SAPE  H14Y19166   3.330   0.432   8.125 -0.7567  0.1121  1.5713
  169SAPE  C31519167   3.324   0.276   8.256  0.0490 -0.5920  0.5141
  169SAPE  H15X19168   3.435   0.273   8.264 -0.1091 -2.0583  2.4645
  169SAPE  H15Y19169   3.296   0.169   8.258 -0.7120 -0.3988  0.6693
  169SAPE  C31619170   3.264   0.351   8.375  0.2283 -0.4612  0.1076
  169SAPE  H16X19171   3.158   0.317   8.386  0.0363 -0.4180 -1.5791
  169SAPE  H16Y19172   3.280   0.461   8.369  0.7188 -0.4484  1.3868
  169SAPE  C31719173   3.317   0.300   8.505  0.6278  0.8749 -0.0330
  169SAPE  H17X19174   3.425   0.274   8.507  0.2334 -0.7647  2.5761
  169SAPE  H17Y19175   3.271   0.200   8.523  1.8710  0.2358 -0.3198
  169SAPE  C31819176   3.282   0.380   8.633 -0.1173  0.6573  0.1931
  169SAPE  H18X19177   3.349   0.467   8.651  1.4994 -0.5789  0.2448
  169SAPE  H18Y19178   3.313   0.317   8.718 -1.7213  1.2533  1.2348
  169SAPE  H18Z19179   3.176   0.409   8.642  0.2683  1.8932  0.8817
  170SAPE     N19180   5.183   4.205   5.967 -0.0832  0.4341 -0.2774
  170SAPE   HN119181   5.251   4.249   6.033  1.4353 -2.3863  0.1256
  170SAPE   HN219182   5.235   4.133   5.913 -1.3348 -0.2752 -0.5393
  170SAPE   HN319183   5.135   4.277   5.911 -0.6626  1.3304  1.3335
  170SAPE   C1219184   5.064   4.155   6.044  0.7881  0.3113  0.2936
  170SAPE  H12A19185   5.082   4.057   6.093  0.6311  1.2194  2.2202
  170SAPE  H12B19186   4.984   4.139   5.968  1.2627 -3.1743  0.4385
  170SAPE   C1119187   5.026   4.250   6.152  0.0341  0.5637  0.2986
  170SAPE  H11A19188   5.085   4.245   6.245  1.0167 -1.2348 -0.3955
  170SAPE  H11B19189   4.928   4.209   6.186 -0.1000  0.9850  0.4259
  170SAPE     P19190   4.897   4.482   6.137 -0.0821  0.1074 -0.0501
  170SAPE   O1319191   4.949   4.613   6.105 -0.0355  0.2028 -0.7165
  170SAPE   O1419192   4.770   4.446   6.066  0.3323 -0.2873 -0.2321
  170SAPE   O1219193   5.010   4.386   6.108 -0.3633 -0.8236 -0.2925
  170SAPE   O1119194   4.861   4.467   6.284 -0.7322  0.2557 -0.3751
  170SAPE    C119195   4.953   4.502   6.383 -0.3031  0.5496 -0.6949
  170SAPE    HA19196   5.053   4.458   6.364 -1.0214 -0.2803 -2.6559
  170SAPE    HB19197   4.956   4.612   6.394  0.7872  0.4610 -0.0566
  170SAPE    C219198   4.892   4.470   6.517  0.4247  0.3040  0.3705
  170SAPE    HS19199   4.788   4.505   6.531 -0.2368 -0.8715 -1.5070
  170SAPE   O2119200   4.977   4.534   6.617  0.5233 -0.2330  0.1757
  170SAPE   C2119201   4.969   4.664   6.634  0.5525  0.0709  0.5590
  170SAPE   O2219202   4.893   4.743   6.576 -0.8175  0.2013 -0.3285
  170SAPE   C2219203   5.073   4.705   6.736 -0.4748  0.7220 -0.2911
  170SAPE   H2R19204   5.084   4.816   6.731  1.9655  0.5662  0.9018
  170SAPE   H2S19205   5.017   4.687   6.829  0.0922  1.5044  0.2136
  170SAPE    C319206   4.892   4.320   6.548  0.0516 -0.2906 -0.1102
  170SAPE    HX19207   4.994   4.277   6.555 -0.1861 -0.6909  1.0224
  170SAPE    HY19208   4.849   4.263   6.463 -1.3811  0.1874  0.2662
  170SAPE   O3119209   4.815   4.290   6.665  0.0800 -0.0001  0.1387
  170SAPE   C3119210   4.681   4.280   6.656 -0.5063 -0.3283 -0.1726
  170SAPE   O3219211   4.620   4.310   6.553  0.4918 -0.5962  0.5315
  170SAPE   C3219212   4.627   4.228   6.791  0.0873  0.3983 -0.4941
  170SAPE   H2X19213   4.656   4.306   6.865 -1.9787  0.4468  0.2929
  170SAPE   H2Y19214   4.669   4.129   6.820 -0.7644  0.8391  2.4569
  170SAPE   C2319215   5.206   4.625   6.718  0.6710  0.1569  0.1483
  170SAPE   H3R19216   5.233   4.641   6.612 -1.0779 -2.4478 -0.7246
  170SAPE   H3S19217   5.189   4.516   6.726 -1.2149  0.3710 -0.7969
  170SAPE   C2419218   5.326   4.660   6.810 -0.2642 -0.9410  0.1346
  170SAPE   H4R19219   5.421   4.608   6.786  0.3011 -0.2087  0.7743
  170SAPE   H4S19220   5.294   4.626   6.911 -0.0921 -0.9005  0.2024
  170SAPE   C2519221   5.347   4.809   6.800 -0.0926 -0.3545  0.0353
  170SAPE   H5R19222   5.374   4.856   6.705  0.6391 -1.3813 -0.2756
  170SAPE   C2619223   5.334   4.897   6.908 -0.4689  0.1653  0.1872
  170SAPE   H6R19224   5.339   5.006   6.891  3.0031  0.1137  0.6226
  170SAPE   C2719225   5.288   4.867   7.048 -0.4113  1.0909 -0.0106
  170SAPE   H7R19226   5.235   4.769   7.055 -0.0480  0.9883  1.4880
  170SAPE   H7S19227   5.204   4.932   7.082 -0.2669 -0.3212  3.2531
  170SAPE   C2819228   5.403   4.879   7.145 -0.0974 -0.1344 -0.0976
  170SAPE   H8R19229   5.502   4.857   7.104 -0.4990 -0.8928 -0.6879
  170SAPE   C2919230   5.395   4.892   7.280  0.4402 -0.3909 -0.1793
  170SAPE   H9R19231   5.486   4.882   7.342  0.4684  1.2425  0.0795
  170SAPE  C21019232   5.265   4.909   7.357  0.2059  0.3872 -0.0977
  170SAPE  H10R19233   5.210   4.983   7.294 -0.5384  0.2036  0.3265
  170SAPE  H10S19234   5.283   4.958   7.455 -0.6905 -0.2833  0.4070
  170SAPE  C21119235   5.169   4.791   7.363 -0.7510  0.4018  0.8290
  170SAPE  H11R19236   5.169   4.734   7.269 -0.5272  0.8796  0.5347
  170SAPE  C21219237   5.096   4.743   7.467 -0.0327  0.4373 -0.2564
  170SAPE  H12R19238   5.028   4.658   7.451 -1.9703  2.2594 -1.8342
  170SAPE  C21319239   5.098   4.792   7.608  0.0628  0.4616  0.3526
  170SAPE  H13R19240   5.007   4.850   7.635  0.8467  1.1336  1.6106
  170SAPE  H13S19241   5.182   4.858   7.637 -0.9560  1.3553  1.3411
  170SAPE  C21419242   5.087   4.678   7.708 -0.3501 -0.2500  0.3154
  170SAPE  H14R19243   5.056   4.581   7.667  1.4888 -0.8410  0.2368
  170SAPE  C21519244   5.101   4.691   7.841  0.3813  0.1266 -0.9146
  170SAPE  H15R19245   5.087   4.594   7.892  1.7187 -0.0964 -0.9352
  170SAPE  C21619246   5.114   4.808   7.929  0.9095  0.0398 -0.1276
  170SAPE  H16R19247   5.091   4.904   7.880 -0.1525 -0.3706 -0.4452
  170SAPE  H16S19248   5.216   4.833   7.964 -0.4062  2.0911  2.4151
  170SAPE  C21719249   5.017   4.790   8.050 -0.0661 -0.7558  0.3336
  170SAPE  H17R19250   4.920   4.738   8.033 -0.5913 -0.4930  2.4858
  170SAPE  H17S19251   4.990   4.893   8.080  0.1578 -0.1114 -1.5985
  170SAPE  C21819252   5.081   4.722   8.171  0.6976  0.4049 -0.3141
  170SAPE  H18R19253   5.145   4.806   8.205 -0.2765  0.7277  0.7580
  170SAPE  H18S19254   5.143   4.634   8.145 -0.0426 -0.9314  2.2799
  170SAPE  C21919255   4.989   4.697   8.281  0.0612 -0.7176  0.1213
  170SAPE  H19R19256   4.894   4.656   8.240 -0.0457 -1.6386  1.2674
  170SAPE  H19S19257   4.956   4.787   8.337 -0.4852 -1.8326  1.6274
  170SAPE  C22019258   5.044   4.597   8.383 -0.3755  0.3357 -0.5804
  170SAPE  H20R19259   4.964   4.565   8.454  0.3407 -1.3761 -0.5147
  170SAPE  H20S19260   5.133   4.639   8.435 -0.1680 -0.7545 -0.0155
  170SAPE  H20T19261   5.082   4.499   8.345  1.1369  0.4909  0.4852
  170SAPE   C3319262   4.475   4.215   6.786  0.7537 -1.2068  0.1920
  170SAPE   H3X19263   4.447   4.123   6.730 -2.1883  0.0621 -0.5774
  170SAPE   H3Y19264   4.437   4.301   6.726  2.1478 -0.0278  0.9601
  170SAPE   C3419265   4.403   4.207   6.921  0.0815 -0.2950 -0.3425
  170SAPE   H4X19266   4.294   4.195   6.907 -0.1168 -1.4651  2.0517
  170SAPE   H4Y19267   4.416   4.303   6.974  0.9568  0.2071 -1.4502
  170SAPE   C3519268   4.463   4.093   7.008  1.2233  0.0848  0.4831
  170SAPE   H5X19269   4.566   4.110   7.045  0.5349  0.2151  2.3740
  170SAPE   H5Y19270   4.478   4.005   6.941  1.7466 -0.9385  1.9174
  170SAPE   C3619271   4.382   4.051   7.136 -0.4983 -0.2924  0.2473
  170SAPE   H6X19272   4.420   3.949   7.156 -1.8768 -0.5433  1.6696
  170SAPE   H6Y19273   4.279   4.056   7.097 -0.1039 -3.0347 -1.2485
  170SAPE   C3719274   4.397   4.137   7.262 -0.2482 -0.4902 -0.4842
  170SAPE   H7X19275   4.380   4.245   7.241  0.5157 -0.2164  0.2904
  170SAPE   H7Y19276   4.505   4.130   7.286 -0.5157  2.2574  1.8363
  170SAPE   C3819277   4.323   4.094   7.385 -0.2628  0.2982  0.4002
  170SAPE   H8X19278   4.336   3.986   7.402 -3.1558 -0.3661 -1.2937
  170SAPE   H8Y19279   4.217   4.122   7.373 -0.1396  0.0817 -1.2684
  170SAPE   C3919280   4.362   4.171   7.512  0.1408 -0.0330  0.3878
  170SAPE   H9X19281   4.336   4.277   7.492 -2.3013 -0.3796  1.4904
  170SAPE   H9Y19282   4.470   4.161   7.532  0.8951 -5.4924 -5.0237
  170SAPE  C31019283   4.300   4.126   7.647  0.2018 -1.0573 -0.5052
  170SAPE  H10X19284   4.334   4.021   7.661 -3.4397 -2.2023  0.2822
  170SAPE  H10Y19285   4.191   4.121   7.628  0.0298  0.6334  0.0262
  170SAPE  C31119286   4.336   4.225   7.759  0.8007  0.1395  0.0101
  170SAPE  H11X19287   4.359   4.325   7.716 -1.2858  0.5844 -0.1551
  170SAPE  H11Y19288   4.423   4.187   7.816  1.4035  1.2573 -0.1549
  170SAPE  C31219289   4.218   4.251   7.855 -0.1399 -0.2787  0.9845
  170SAPE  H12X19290   4.176   4.153   7.886 -1.6619 -0.4407 -1.4574
  170SAPE  H12Y19291   4.138   4.310   7.805  0.7335 -1.4542 -1.9223
  170SAPE  C31319292   4.247   4.324   7.992 -0.2806  0.0243 -0.3417
  170SAPE  H13X19293   4.166   4.315   8.067  0.0818  1.6006  0.2646
  170SAPE  H13Y19294   4.254   4.433   7.973 -1.1294  0.4975  1.9752
  170SAPE  C31419295   4.379   4.284   8.048  0.1902  0.7376  0.4021
  170SAPE  H14X19296   4.466   4.282   7.979  0.9018  0.2590  1.2909
  170SAPE  H14Y19297   4.363   4.177   8.074 -2.0351  0.4224 -2.0927
  170SAPE  C31519298   4.404   4.362   8.181  0.1191  0.5250  0.3434
  170SAPE  H15X19299   4.333   4.320   8.256  3.1274 -1.4913  2.1553
  170SAPE  H15Y19300   4.387   4.472   8.178 -0.1019  0.5478  2.0409
  170SAPE  C31619301   4.546   4.345   8.242  0.6296 -0.5435 -0.6199
  170SAPE  H16X19302   4.621   4.420   8.208 -0.2949  0.0116 -1.4682
  170SAPE  H16Y19303   4.589   4.245   8.224  1.0948 -0.5514  0.4543
  170SAPE  C31719304   4.535   4.372   8.399 -0.2241  0.0259 -0.1232
  170SAPE  H17X19305   4.459   4.309   8.451 -1.0308  2.3779  1.6085
  170SAPE  H17Y19306   4.491   4.472   8.415 -1.7115 -0.6648  0.1410
  170SAPE  C31819307   4.667   4.351   8.483 -0.1299  0.0791  0.1009
  170SAPE  H18X19308   4.749   4.415   8.445 -0.9994  0.8424 -0.5098
  170SAPE  H18Y19309   4.697   4.244   8.479 -0.3663  0.0862 -2.0855
  170SAPE  H18Z19310   4.659   4.381   8.590  1.8953 -0.1713  0.3299
  171SAPE     N19311   0.346   4.430   6.398  0.9208  0.2422  0.0628
  171SAPE   HN119312   0.403   4.507   6.437  1.4718 -1.1456  2.0316
  171SAPE   HN219313   0.304   4.372   6.473  0.6016 -1.0370 -1.0760
  171SAPE   HN319314   0.406   4.362   6.347 -1.1143  0.2821 -2.5547
  171SAPE   C1219315   0.238   4.477   6.302 -0.7586 -0.0661 -0.5923
  171SAPE  H12A19316   0.164   4.530   6.366  1.7076  1.8242  0.8009
  171SAPE  H12B19317   0.197   4.384   6.258 -3.4944  0.5026  0.6645
  171SAPE   C1119318   0.300   4.567   6.191 -0.5324 -0.5317  0.0100
  171SAPE  H11A19319   0.222   4.587   6.115  1.4064  2.0656 -1.3690
  171SAPE  H11B19320   0.378   4.511   6.135  0.2087 -1.5659  1.9988
  171SAPE     P19321   0.296   4.821   6.228 -0.3937  1.0408 -0.4966
  171SAPE   O1319322   0.390   4.916   6.289  0.1362  0.6131  0.1247
  171SAPE   O1419323   0.245   4.845   6.092 -0.2434  0.1769 -0.2573
  171SAPE   O1219324   0.368   4.681   6.248 -0.2954  0.0693  0.1201
  171SAPE   O1119325   0.166   4.802   6.318 -0.7619 -0.0536 -0.7518
  171SAPE    C119326   0.112   4.924   6.372  0.5759  0.5006 -0.0499
  171SAPE    HA19327   0.193   4.997   6.394  0.5565  1.1757 -2.0928
  171SAPE    HB19328   0.053   4.983   6.298  1.8160  0.3869 -1.1536
  171SAPE    C219329   0.042   4.883   6.505  0.2557  0.1346  0.1145
  171SAPE    HS19330  -0.050   4.821   6.497  0.3139 -0.0097  0.5285
  171SAPE   O2119331   0.007   5.007   6.577 -0.0329  0.2871 -0.0445
  171SAPE   C2119332  -0.110   5.053   6.557  0.3428 -0.0974 -0.0488
  171SAPE   O2219333  -0.197   5.009   6.485  0.1783 -0.5414 -0.3975
  171SAPE   C2219334  -0.136   5.173   6.646  0.5309 -0.2115  0.2658
  171SAPE   H2R19335  -0.063   5.255   6.629  0.6228 -0.1333  1.0270
  171SAPE   H2S19336  -0.242   5.198   6.622  1.0047  0.8111 -0.8194
  171SAPE    C319337   0.137   4.807   6.599 -0.4385 -0.4953  0.4413
  171SAPE    HX19338   0.234   4.861   6.602 -0.6369 -0.1117  0.0066
  171SAPE    HY19339   0.145   4.710   6.546 -1.1112  0.0627 -0.7055
  171SAPE   O3119340   0.105   4.795   6.741 -0.1385 -0.3768  0.6371
  171SAPE   C3119341   0.024   4.702   6.777 -1.1310  0.1246 -0.3570
  171SAPE   O3219342  -0.045   4.627   6.707  0.1431  0.5205 -0.1406
  171SAPE   C3219343   0.033   4.696   6.936 -0.8802 -0.3436  0.1418
  171SAPE   H2X19344   0.123   4.750   6.969  0.7774 -2.6888 -0.4022
  171SAPE   H2Y19345   0.054   4.591   6.967 -1.2155 -0.5733 -0.3999
  171SAPE   C2319346  -0.134   5.130   6.797  0.1705  0.7693  0.5529
  171SAPE   H3R19347  -0.035   5.146   6.844  0.7898 -1.5834  0.1293
  171SAPE   H3S19348  -0.163   5.026   6.823  1.4230 -0.2003 -1.7618
  171SAPE   C2419349  -0.234   5.198   6.888  0.0425 -0.5303 -0.5191
  171SAPE   H4R19350  -0.220   5.308   6.887 -0.9827 -0.3828  0.6417
  171SAPE   H4S19351  -0.216   5.169   6.994  0.6631  0.4590 -0.3485
  171SAPE   C2519352  -0.373   5.159   6.854  0.0602  0.0408  0.0948
  171SAPE   H5R19353  -0.390   5.148   6.745  1.4156 -0.1942 -0.1054
  171SAPE   C2619354  -0.478   5.159   6.936  0.5534 -0.4137 -0.1850
  171SAPE   H6R19355  -0.579   5.147   6.893 -0.7254 -0.6134  2.7513
  171SAPE   C2719356  -0.472   5.205   7.080  0.2524  0.5204  0.2669
  171SAPE   H7R19357  -0.572   5.244   7.107 -1.6535 -3.1103 -1.1236
  171SAPE   H7S19358  -0.408   5.294   7.097  0.3700  0.7602 -1.3816
  171SAPE   C2819359  -0.438   5.095   7.180  0.5420 -0.8211 -0.5247
  171SAPE   H8R19360  -0.379   5.013   7.137  0.3075 -1.1490 -0.2220
  171SAPE   C2919361  -0.476   5.095   7.309  0.4105  0.1080 -0.3066
  171SAPE   H9R19362  -0.462   5.003   7.367 -1.5500 -0.2013 -0.2925
  171SAPE  C21019363  -0.544   5.212   7.385  0.9566  0.3831  0.4594
  171SAPE  H10R19364  -0.648   5.186   7.416 -0.2722 -0.0501 -3.7073
  171SAPE  H10S19365  -0.556   5.293   7.310  2.3907 -1.3987 -1.7372
  171SAPE  C21119366  -0.465   5.261   7.502 -0.1763  0.6309  0.8067
  171SAPE  H11R19367  -0.373   5.318   7.480 -0.5685  0.4723 -1.3272
  171SAPE  C21219368  -0.507   5.246   7.632 -0.0944 -0.0984  0.0154
  171SAPE  H12R19369  -0.444   5.274   7.718 -2.1321 -2.1927  2.2417
  171SAPE  C21319370  -0.624   5.174   7.682  0.4083  0.1118  0.0366
  171SAPE  H13R19371  -0.708   5.216   7.621  0.1788  0.1789  0.3956
  171SAPE  H13S19372  -0.649   5.189   7.789  0.6330 -2.7077  0.5148
  171SAPE  C21419373  -0.626   5.024   7.664 -0.1767  0.1918 -0.8745
  171SAPE  H14R19374  -0.534   4.981   7.623  0.1916  0.1581 -0.0147
  171SAPE  C21519375  -0.718   4.936   7.708  0.3915 -0.1660 -0.4777
  171SAPE  H15R19376  -0.707   4.829   7.685 -2.3433  0.0071 -2.8747
  171SAPE  C21619377  -0.840   4.988   7.782 -0.1949  0.6319 -0.1793
  171SAPE  H16R19378  -0.933   4.935   7.753  0.6670 -0.0844 -1.6624
  171SAPE  H16S19379  -0.859   5.095   7.760 -0.4223  0.9958  1.6796
  171SAPE  C21719380  -0.833   4.990   7.936 -0.3804 -0.3300 -0.8301
  171SAPE  H17R19381  -0.749   5.053   7.972 -1.2956  0.4716 -0.0404
  171SAPE  H17S19382  -0.817   4.883   7.964 -1.1807 -0.9099 -2.5036
  171SAPE  C21819383  -0.953   5.038   8.014 -0.5080  0.5792  0.5945
  171SAPE  H18R19384  -1.042   4.989   7.967  0.4388 -1.3868  0.8103
  171SAPE  H18S19385  -0.960   5.148   8.003  1.1374  0.4119 -2.7339
  171SAPE  C21919386  -0.934   4.991   8.166 -1.0124 -0.4418 -0.4315
  171SAPE  H19R19387  -0.869   5.061   8.222 -0.5368 -0.4090 -1.0222
  171SAPE  H19S19388  -0.869   4.901   8.164  0.7556  0.8093 -0.3295
  171SAPE  C22019389  -1.066   4.973   8.244 -0.1933 -0.7723 -0.4452
  171SAPE  H20R19390  -1.135   4.912   8.181 -0.5586  1.3960 -2.2047
  171SAPE  H20S19391  -1.119   5.070   8.250  0.1854 -0.3701 -2.9549
  171SAPE  H20T19392  -1.052   4.927   8.344  1.6112 -1.4369 -0.9842
  171SAPE   C3319393  -0.095   4.757   7.012  0.9006 -0.4212  0.1743
  171SAPE   H3X19394  -0.177   4.683   7.006 -1.1831  1.9104 -0.8393
  171SAPE   H3Y19395  -0.143   4.842   6.959  0.5512 -0.7544 -0.0475
  171SAPE   C3419396  -0.070   4.778   7.168 -0.5833 -0.5854  0.6809
  171SAPE   H4X19397   0.027   4.831   7.176 -0.8488  0.1594 -0.8172
  171SAPE   H4Y19398  -0.057   4.676   7.211  1.8013 -0.2719  0.7683
  171SAPE   C3519399  -0.178   4.848   7.242 -0.1317  0.4451  0.2026
  171SAPE   H5X19400  -0.272   4.807   7.200  0.6017 -1.1250  0.0752
  171SAPE   H5Y19401  -0.168   4.959   7.233  0.0646  0.5830  1.9126
  171SAPE   C3619402  -0.182   4.811   7.392  0.0953 -0.7695  0.2571
  171SAPE   H6X19403  -0.213   4.908   7.436 -0.1093  0.0475 -1.6016
  171SAPE   H6Y19404  -0.083   4.781   7.433  0.3569 -0.7516 -0.3490
  171SAPE   C3719405  -0.275   4.696   7.409  0.1109  0.2752  0.0983
  171SAPE   H7X19406  -0.220   4.611   7.365 -0.8366 -0.2534 -0.0805
  171SAPE   H7Y19407  -0.375   4.722   7.368 -0.4947 -0.9801  0.7534
  171SAPE   C3819408  -0.291   4.666   7.562 -0.4202  0.1794  0.4159
  171SAPE   H8X19409  -0.273   4.765   7.610 -0.0485  0.6460 -0.6613
  171SAPE   H8Y19410  -0.210   4.599   7.600 -1.7507 -1.5859  0.1925
  171SAPE   C3919411  -0.424   4.589   7.582 -0.2662  0.1619 -0.0341
  171SAPE   H9X19412  -0.414   4.479   7.568  2.3680  0.0564  2.1987
  171SAPE   H9Y19413  -0.494   4.619   7.502 -0.2062 -1.7258 -0.8153
  171SAPE  C31019414  -0.496   4.615   7.713  0.9771  0.3646 -0.3658
  171SAPE  H10X19415  -0.501   4.721   7.743  0.8270  0.1992  0.1992
  171SAPE  H10Y19416  -0.434   4.556   7.784  0.5184  0.2972 -0.0187
  171SAPE  C31119417  -0.634   4.544   7.692 -0.2225 -1.0521 -0.5553
  171SAPE  H11X19418  -0.634   4.434   7.678  0.0875 -1.1586  0.2547
  171SAPE  H11Y19419  -0.685   4.586   7.602  0.3469  0.4532 -0.1901
  171SAPE  C31219420  -0.725   4.569   7.814 -0.2027  0.2210  0.9603
  171SAPE  H12X19421  -0.833   4.557   7.793 -0.1622  0.4298  0.6362
  171SAPE  H12Y19422  -0.724   4.678   7.835  0.6134  0.8724 -2.2110
  171SAPE  C31319423  -0.675   4.491   7.931  1.1812 -0.0419 -0.2176
  171SAPE  H13X19424  -0.568   4.501   7.958  0.2515 -1.2433  4.3230
  171SAPE  H13Y19425  -0.693   4.383   7.913 -0.8534  0.0623  0.9408
  171SAPE  C31419426  -0.752   4.529   8.052 -0.2580  0.0282  0.2044
  171SAPE  H14X19427  -0.861   4.507   8.045 -0.5654  1.6601 -0.2542
  171SAPE  H14Y19428  -0.739   4.636   8.076 -3.2003  0.3113  0.6557
  171SAPE  C31519429  -0.685   4.453   8.168  0.4898  0.3342  0.0032
  171SAPE  H15X19430  -0.576   4.456   8.149  0.0393 -1.6113 -3.3802
  171SAPE  H15Y19431  -0.708   4.345   8.151 -0.4549  0.1638  2.2371
  171SAPE  C31619432  -0.703   4.498   8.316  0.3601  0.4921 -0.0382
  171SAPE  H16X19433  -0.811   4.483   8.334  1.0049 -1.7229  2.2175
  171SAPE  H16Y19434  -0.670   4.604   8.330  0.0879  0.9166 -2.4232
  171SAPE  C31719435  -0.640   4.414   8.426 -0.7976 -0.9523  0.7475
  171SAPE  H17X19436  -0.645   4.462   8.526  0.1306 -0.9828  0.8111
  171SAPE  H17Y19437  -0.533   4.395   8.401 -1.2510 -0.0932 -1.9944
  171SAPE  C31819438  -0.691   4.272   8.439  0.6350 -0.0057 -0.6488
  171SAPE  H18X19439  -0.787   4.273   8.494  1.7081  0.5450  1.2526
  171SAPE  H18Y19440  -0.619   4.200   8.485  2.6644  2.8729  0.8296
  171SAPE  H18Z19441  -0.716   4.221   8.343 -1.3005  1.6266 -1.0357
  172SAPE     N19442   5.645   3.976   5.945  0.7157  0.3165 -0.1421
  172SAPE   HN119443   5.708   3.895   5.957 -0.9135 -0.6789  2.0585
  172SAPE   HN219444   5.592   3.968   6.034  1.5848  1.1598  0.4647
  172SAPE   HN319445   5.585   3.952   5.863 -0.9163 -2.8143  1.8934
  172SAPE   C1219446   5.717   4.101   5.933  0.5618  0.4473  0.4924
  172SAPE  H12A19447   5.641   4.181   5.924 -2.2956 -2.3049 -0.4676
  172SAPE  H12B19448   5.768   4.106   5.834 -0.2336  1.0539  0.1096
  172SAPE   C1119449   5.797   4.129   6.060  0.0638 -0.0738  0.0382
  172SAPE  H11A19450   5.723   4.121   6.143 -1.0080  3.3878 -0.4867
  172SAPE  H11B19451   5.828   4.235   6.073 -1.1768  0.4013 -0.7328
  172SAPE     P19452   5.984   4.047   6.214 -0.0368  0.4873 -0.4243
  172SAPE   O1319453   6.095   3.946   6.209 -0.1743 -0.5355 -0.2376
  172SAPE   O1419454   6.027   4.186   6.218 -0.2211 -0.1194 -0.0667
  172SAPE   O1219455   5.899   4.039   6.088  0.5795  0.0151  0.0003
  172SAPE   O1119456   5.898   4.008   6.344  0.1508  0.5898  0.0334
  172SAPE    C119457   5.842   3.877   6.346  0.1065  0.2031 -0.4203
  172SAPE    HA19458   5.748   3.873   6.287  0.6434  0.8628 -1.3356
  172SAPE    HB19459   5.900   3.790   6.309  0.1837 -0.3437  0.9696
  172SAPE    C219460   5.807   3.840   6.493  0.5122 -0.7861  0.8905
  172SAPE    HS19461   5.747   3.918   6.545  0.0828 -0.0781 -0.6580
  172SAPE   O2119462   5.926   3.825   6.561 -0.3310 -0.3392  0.0745
  172SAPE   C2119463   5.941   3.853   6.685 -1.2217 -0.0046 -0.0669
  172SAPE   O2219464   5.856   3.900   6.763  0.3360  0.2393  0.0872
  172SAPE   C2219465   6.078   3.803   6.732 -0.1046  1.3988 -0.0340
  172SAPE   H2R19466   6.057   3.696   6.752 -0.9640  1.1417 -2.2147
  172SAPE   H2S19467   6.157   3.807   6.654  1.0455 -0.4302  0.9943
  172SAPE    C319468   5.742   3.701   6.505 -0.4103 -0.4788 -0.4443
  172SAPE    HX19469   5.811   3.627   6.460  1.9004  0.8738  0.8121
  172SAPE    HY19470   5.656   3.699   6.434 -1.5514 -0.7015  0.9042
  172SAPE   O3119471   5.694   3.676   6.639  0.2301  0.2981  0.0551
  172SAPE   C3119472   5.577   3.725   6.681  0.1825  0.3910  0.3131
  172SAPE   O3219473   5.501   3.787   6.607 -0.0081  0.0777  0.4315
  172SAPE   C3219474   5.558   3.696   6.830  0.4022  0.4435 -0.6803
  172SAPE   H2X19475   5.507   3.781   6.880  0.6191  0.3986 -0.3825
  172SAPE   H2Y19476   5.659   3.686   6.874  1.1126 -1.7551 -2.6732
  172SAPE   C2319477   6.130   3.872   6.859 -0.1351 -0.1356 -0.6430
  172SAPE   H3R19478   6.056   3.857   6.940  0.0974  0.0623 -0.3946
  172SAPE   H3S19479   6.121   3.981   6.837  0.1326 -0.2552 -1.3588
  172SAPE   C2419480   6.270   3.834   6.896  0.3323 -0.3322  0.4198
  172SAPE   H4R19481   6.330   3.865   6.808 -0.6319 -1.6594 -0.7455
  172SAPE   H4S19482   6.274   3.723   6.902 -3.6032 -0.5614  0.0701
  172SAPE   C2519483   6.317   3.900   7.021 -0.3829 -0.8911 -0.3199
  172SAPE   H5R19484   6.359   4.001   7.015 -0.2076 -0.9322  0.1728
  172SAPE   C2619485   6.306   3.842   7.146  0.7327 -0.8738  0.6268
  172SAPE   H6R19486   6.340   3.901   7.232  3.5604 -0.8388 -0.4363
  172SAPE   C2719487   6.254   3.710   7.182 -0.0065  0.3885  0.1965
  172SAPE   H7R19488   6.174   3.680   7.110  0.0436 -1.2823  0.8236
  172SAPE   H7S19489   6.197   3.714   7.277  0.0249  0.1521  0.2261
  172SAPE   C2819490   6.365   3.613   7.182 -0.5370  0.0352 -0.1392
  172SAPE   H8R19491   6.421   3.611   7.088  0.8635  0.3902  0.6794
  172SAPE   C2919492   6.400   3.531   7.284  0.0935 -0.0091  0.0859
  172SAPE   H9R19493   6.481   3.459   7.266  0.8002  0.8662 -0.2933
  172SAPE  C21019494   6.347   3.529   7.421  0.2838  0.0418 -0.5628
  172SAPE  H10R19495   6.388   3.443   7.479 -2.6293 -1.0893 -0.0696
  172SAPE  H10S19496   6.237   3.510   7.418 -0.2128  2.6474 -0.2063
  172SAPE  C21119497   6.379   3.652   7.508  0.5542 -0.2673  0.2325
  172SAPE  H11R19498   6.430   3.738   7.460  0.2038  0.3375  0.9309
  172SAPE  C21219499   6.351   3.665   7.636 -0.3860 -0.4461 -0.3512
  172SAPE  H12R19500   6.393   3.756   7.681  0.6835  0.3851 -2.9268
  172SAPE  C21319501   6.273   3.566   7.722 -0.3894 -0.9693  0.5001
  172SAPE  H13R19502   6.239   3.487   7.652  0.9281 -2.2211  1.2459
  172SAPE  H13S19503   6.182   3.617   7.760 -0.8998 -2.1113  0.8061
  172SAPE  C21419504   6.344   3.502   7.831  0.3898  0.9629  0.7237
  172SAPE  H14R19505   6.450   3.478   7.814  0.1241  1.0427 -1.1862
  172SAPE  C21519506   6.291   3.460   7.944  0.5057 -0.5296 -0.0031
  172SAPE  H15R19507   6.362   3.425   8.021  1.9801  0.6757 -0.7840
  172SAPE  C21619508   6.147   3.474   7.994 -0.1935  0.0114 -0.4707
  172SAPE  H16R19509   6.115   3.372   8.026  2.0521 -1.2408 -2.0410
  172SAPE  H16S19510   6.083   3.518   7.915 -1.4010 -0.3731  0.2906
  172SAPE  C21719511   6.135   3.565   8.125  0.4898 -1.1773 -0.5875
  172SAPE  H17R19512   6.212   3.537   8.200  0.0505 -1.0316 -0.0797
  172SAPE  H17S19513   6.041   3.531   8.174 -0.1045  1.4672  0.1814
  172SAPE  C21819514   6.146   3.716   8.098  0.3852  0.0731  0.3087
  172SAPE  H18R19515   6.076   3.738   8.014 -0.3902 -1.1954  0.6003
  172SAPE  H18S19516   6.243   3.731   8.046 -0.9668  1.1443 -1.9957
  172SAPE  C21919517   6.140   3.812   8.214 -0.2113  0.5004  0.3807
  172SAPE  H19R19518   6.046   3.789   8.269 -1.0442  0.3805 -1.0763
  172SAPE  H19S19519   6.137   3.915   8.173 -1.1529  0.1533 -0.4670
  172SAPE  C22019520   6.259   3.805   8.311  0.1000  0.1449 -0.4026
  172SAPE  H20R19521   6.261   3.699   8.343  3.4694 -0.0674 -1.1327
  172SAPE  H20S19522   6.259   3.869   8.402 -0.0378 -0.2547 -0.1243
  172SAPE  H20T19523   6.356   3.819   8.258  0.2561 -1.0703 -0.4325
  172SAPE   C3319524   5.479   3.569   6.858  0.2320 -0.1395  0.1697
  172SAPE   H3X19525   5.539   3.491   6.807  2.0783  0.5467  1.2163
  172SAPE   H3Y19526   5.383   3.574   6.803  0.2419  0.8273  0.2389
  172SAPE   C3419527   5.466   3.524   7.007  0.1217 -0.3422 -0.1624
  172SAPE   H4X19528   5.555   3.461   7.030  1.9180  1.6397 -1.4781
  172SAPE   H4Y19529   5.370   3.471   7.023 -1.2015  1.5490 -1.6166
  172SAPE   C3519530   5.465   3.629   7.112  0.1847  0.2342 -0.9220
  172SAPE   H5X19531   5.369   3.685   7.107  0.1850  0.1283 -2.4935
  172SAPE   H5Y19532   5.548   3.703   7.112  0.6414 -0.1295  4.2953
  172SAPE   C3619533   5.471   3.572   7.255 -0.0029 -0.5000 -0.3239
  172SAPE   H6X19534   5.559   3.509   7.278 -1.7877 -3.2585 -0.7313
  172SAPE   H6Y19535   5.374   3.518   7.265 -0.5456  0.8881  2.2019
  172SAPE   C3719536   5.464   3.675   7.373  0.0358  0.4944 -0.7863
  172SAPE   H7X19537   5.408   3.767   7.347  0.2153  1.2450  1.4058
  172SAPE   H7Y19538   5.568   3.704   7.398  0.0901 -0.1090 -0.2814
  172SAPE   C3819539   5.405   3.608   7.494 -0.1782 -0.5671 -1.1666
  172SAPE   H8X19540   5.460   3.514   7.517  1.3132  1.1472  2.6168
  172SAPE   H8Y19541   5.303   3.574   7.467 -0.4607 -0.1162 -0.6880
  172SAPE   C3919542   5.408   3.698   7.625  0.7216 -0.4347 -0.1818
  172SAPE   H9X19543   5.373   3.799   7.592  3.1921 -0.0569 -1.7361
  172SAPE   H9Y19544   5.505   3.721   7.673 -0.2445  1.0497  1.1069
  172SAPE  C31019545   5.317   3.647   7.733  0.6745 -0.0694  0.1393
  172SAPE  H10X19546   5.340   3.539   7.742 -0.8932 -0.3209  1.2457
  172SAPE  H10Y19547   5.211   3.652   7.700  1.6405  3.4470 -2.8518
  172SAPE  C31119548   5.335   3.717   7.867 -0.1375  0.9202  0.3681
  172SAPE  H11X19549   5.245   3.779   7.889 -1.1713 -0.8995  1.4355
  172SAPE  H11Y19550   5.416   3.793   7.872  0.8683 -0.1913  1.3202
  172SAPE  C31219551   5.371   3.621   7.987  0.0605 -1.3009 -0.4974
  172SAPE  H12X19552   5.477   3.591   7.975  0.1403 -1.7521  1.1474
  172SAPE  H12Y19553   5.304   3.533   7.989 -0.0502 -1.2033  0.5200
  172SAPE  C31319554   5.355   3.686   8.126 -0.2566  0.2831  0.0500
  172SAPE  H13X19555   5.415   3.778   8.140  0.1126 -0.3095  2.6468
  172SAPE  H13Y19556   5.375   3.609   8.204 -0.9287 -0.9502 -0.9551
  172SAPE  C31419557   5.210   3.720   8.156 -0.4250 -0.3539 -0.2313
  172SAPE  H14X19558   5.154   3.624   8.155  0.3714 -0.8603  1.4370
  172SAPE  H14Y19559   5.167   3.790   8.081 -3.9702  1.6588  3.4831
  172SAPE  C31519560   5.186   3.796   8.291 -0.0118 -0.0355 -0.7147
  172SAPE  H15X19561   5.230   3.895   8.267 -2.6043  0.8112 -2.1424
  172SAPE  H15Y19562   5.250   3.744   8.366  2.6459  0.9310 -2.2500
  172SAPE  C31619563   5.042   3.822   8.321 -0.2858 -0.1452 -0.3267
  172SAPE  H16X19564   4.996   3.724   8.346  0.0285  0.4943  3.1364
  172SAPE  H16Y19565   4.991   3.878   8.240 -0.7661 -0.2690 -0.1153
  172SAPE  C31719566   5.031   3.907   8.457  0.0580 -0.4868  0.1659
  172SAPE  H17X19567   5.088   3.848   8.532 -0.2917 -0.4195  0.4847
  172SAPE  H17Y19568   4.926   3.903   8.491 -0.5080 -0.0859 -1.5246
  172SAPE  C31819569   5.073   4.058   8.451 -0.3678  0.1203 -0.6195
  172SAPE  H18X19570   5.023   4.113   8.369 -0.1382  1.5097  0.1438
  172SAPE  H18Y19571   5.182   4.058   8.430 -0.4900 -3.4639 -1.4556
  172SAPE  H18Z19572   5.059   4.114   8.546  3.0444  0.3545 -0.1626
  173SOPE     N19573   6.527   1.435  10.981  0.6281 -0.2607  0.1748
  173SOPE   HN119574   6.601   1.508  10.992  0.4110  0.0789 -0.5546
  173SOPE   HN219575   6.446   1.453  11.043  0.7278 -0.7134  0.4397
  173SOPE   HN319576   6.566   1.343  11.009 -2.0774 -2.1470 -2.0631
  173SOPE   C1219577   6.481   1.412  10.839  0.3703  0.5091 -0.1660
  173SOPE  H12A19578   6.445   1.508  10.795  1.4610  1.1287  0.2688
  173SOPE  H12B19579   6.396   1.341  10.847  1.1309 -0.5611 -1.3176
  173SOPE   C1119580   6.582   1.334  10.757  0.3991 -0.0163  0.3167
  173SOPE  H11A19581   6.539   1.334  10.655  0.6167  1.4342  0.2108
  173SOPE  H11B19582   6.577   1.227  10.787  0.2090 -0.8706 -2.6268
  173SOPE     P19583   6.838   1.307  10.801  0.4519  0.0924 -0.3614
  173SOPE   O1319584   6.823   1.243  10.934  0.6081  0.0767  0.0316
  173SOPE   O1419585   6.961   1.383  10.774 -0.7358  0.0473 -0.1000
  173SOPE   O1219586   6.713   1.393  10.757  0.3161  0.6061 -0.0605
  173SOPE   O1119587   6.824   1.188  10.688 -0.5173  0.1310 -0.2358
  173SOPE    C119588   6.915   1.070  10.708  0.0598 -0.1250  0.3569
  173SOPE    HA19589   6.870   0.992  10.643  1.4079 -1.1156  0.5880
  173SOPE    HB19590   6.916   1.023  10.808 -0.9188  0.9874  0.8974
  173SOPE    C219591   7.060   1.100  10.651  0.0564 -0.5345  0.1646
  173SOPE    HS19592   7.113   1.161  10.728 -1.2873  2.5224 -1.2306
  173SOPE   O2119593   7.046   1.180  10.527  0.2025  0.1276 -0.6353
  173SOPE   C2119594   7.122   1.282  10.507  0.3376  0.0019  0.0267
  173SOPE   O2219595   7.199   1.334  10.586  0.4206  0.3185 -0.6747
  173SOPE   C2219596   7.095   1.340  10.361  0.2712  0.6894 -0.1711
  173SOPE   H2R19597   7.192   1.392  10.341  2.5333 -2.2332  2.7607
  173SOPE   H2S19598   7.019   1.419  10.377  1.2549  1.5172  0.4615
  173SOPE    C319599   7.158   0.978  10.628 -0.2857  0.0561 -0.5892
  173SOPE    HX19600   7.093   0.905  10.575 -0.0107  0.6989 -1.8473
  173SOPE    HY19601   7.191   0.936  10.725  2.4901  0.5863 -1.2436
  173SOPE   O3119602   7.273   1.007  10.545 -0.4984 -0.0512  0.1685
  173SOPE   C3119603   7.368   1.080  10.605  0.1350  0.2293  0.1796
  173SOPE   O3219604   7.362   1.130  10.712  0.1942  0.0243  0.2650
  173SOPE   C3219605   7.480   1.099  10.502 -0.2655  0.4165  0.0540
  173SOPE   H2X19606   7.518   0.995  10.499 -1.3249 -0.0368  1.9082
  173SOPE   H2Y19607   7.550   1.176  10.541  0.9277 -1.0926  0.9178
  173SOPE   C2319608   7.064   1.233  10.257  0.4598  0.3431  0.3557
  173SOPE   H3R19609   6.964   1.192  10.279 -0.1337  2.1780  1.2558
  173SOPE   H3S19610   7.111   1.141  10.296 -2.9608 -1.7509 -0.2800
  173SOPE   C2419611   7.095   1.268  10.113 -0.2027 -0.7391 -0.4153
  173SOPE   H4R19612   7.036   1.356  10.080  0.5562 -0.3294 -0.7009
  173SOPE   H4S19613   7.197   1.312  10.113 -1.0100  1.2218  1.6278
  173SOPE   C2519614   7.071   1.156  10.006  0.2914 -0.0424  0.0080
  173SOPE   H5R19615   7.126   1.062  10.027  0.4208 -0.5966 -2.5626
  173SOPE   H5S19616   6.966   1.119  10.011  0.8719 -1.5633  1.4350
  173SOPE   C2619617   7.097   1.209   9.864  0.3184 -0.1591  0.1640
  173SOPE   H6R19618   7.011   1.275   9.839  1.1644 -0.2713 -3.2290
  173SOPE   H6S19619   7.182   1.280   9.870 -0.3661  0.6918 -0.2445
  173SOPE   C2719620   7.104   1.106   9.752  0.2973  0.0847  0.4159
  173SOPE   H7R19621   7.196   1.044   9.751 -0.0487 -0.4631  1.0852
  173SOPE   H7S19622   7.018   1.037   9.766  0.2957 -0.1632 -0.7755
  173SOPE   C2819623   7.090   1.174   9.612 -0.1876  0.5210  0.2553
  173SOPE   H8R19624   7.009   1.249   9.623  1.0895  2.1716 -1.0942
  173SOPE   H8S19625   7.173   1.240   9.578 -1.5611  1.5118 -1.2982
  173SOPE   C2919626   7.054   1.057   9.519  0.0148 -0.1458  0.1743
  173SOPE   H9119627   7.007   0.968   9.562 -0.1795  0.3921  1.0745
  173SOPE  C21019628   7.093   1.036   9.391 -0.1010  0.1994 -0.6086
  173SOPE  H10119629   7.056   0.950   9.333 -0.8192 -0.6628  1.0596
  173SOPE  C21119630   7.175   1.133   9.317  0.1757  0.0393 -0.0176
  173SOPE  H11R19631   7.243   1.078   9.248  0.0684  1.5870 -1.4070
  173SOPE  H11S19632   7.251   1.184   9.380 -1.4168  0.1337  1.8495
  173SOPE  C21219633   7.103   1.244   9.232  0.4430 -0.1938  0.0979
  173SOPE  H12R19634   7.033   1.204   9.156 -1.2443  0.2156  1.4149
  173SOPE  H12S19635   7.176   1.291   9.163 -1.3227 -0.0582 -1.7237
  173SOPE  C21319636   7.034   1.360   9.304 -1.2019  1.5268  0.3882
  173SOPE  H13R19637   7.085   1.412   9.388 -0.9714 -0.3319  1.4208
  173SOPE  H13S19638   6.945   1.310   9.350 -1.8949  1.7137 -0.7217
  173SOPE  C21419639   6.967   1.465   9.215 -0.1539 -0.4813 -0.3095
  173SOPE  H14R19640   6.935   1.410   9.124  3.4444 -0.0682 -1.9034
  173SOPE  H14S19641   7.046   1.537   9.185 -2.0661  1.9627  0.3560
  173SOPE  C21519642   6.855   1.530   9.294  0.0873 -0.6587  0.1818
  173SOPE  H15R19643   6.901   1.561   9.391 -0.6701  0.0643  0.3099
  173SOPE  H15S19644   6.769   1.465   9.321  2.5562 -3.3767  1.8094
  173SOPE  C21619645   6.792   1.657   9.231 -0.2479  0.4107  0.3291
  173SOPE  H16R19646   6.864   1.741   9.221  0.1570  0.0298 -0.0064
  173SOPE  H16S19647   6.726   1.683   9.316 -3.6987 -2.0085 -1.5170
  173SOPE  C21719648   6.717   1.641   9.101 -0.1630 -0.2139  0.1605
  173SOPE  H17R19649   6.638   1.719   9.106 -0.2982 -0.2660 -1.1763
  173SOPE  H17S19650   6.686   1.535   9.113  2.2219 -0.7283  2.1607
  173SOPE  C21819651   6.806   1.654   8.979  0.4952 -0.1466 -0.7574
  173SOPE  H18R19652   6.888   1.578   8.982 -0.0825 -0.7353  0.1680
  173SOPE  H18S19653   6.853   1.754   8.980 -2.2062  1.1773 -1.3576
  173SOPE  H18T19654   6.749   1.643   8.884 -0.8886  1.6590 -0.1450
  173SOPE   C3319655   7.431   1.143  10.361 -0.3404  0.9808 -0.5608
  173SOPE   H3X19656   7.375   1.239  10.370 -0.5386  0.9632 -1.5729
  173SOPE   H3Y19657   7.355   1.065  10.337  0.2141 -0.9865  3.7524
  173SOPE   C3419658   7.533   1.147  10.250  0.0506 -0.0837  0.0960
  173SOPE   H4X19659   7.576   1.045  10.240  1.1997  0.6293 -2.9105
  173SOPE   H4Y19660   7.624   1.209  10.267  0.3214 -0.7960  1.3245
  173SOPE   C3519661   7.476   1.184  10.119 -0.1800 -0.2936 -0.4650
  173SOPE   H5X19662   7.451   1.293  10.119 -0.8055 -0.4337 -0.1545
  173SOPE   H5Y19663   7.383   1.128  10.095 -0.7223 -0.5528  2.1155
  173SOPE   C3619664   7.582   1.182  10.007  0.2445  0.2003 -0.5424
  173SOPE   H6X19665   7.617   1.076  10.004  0.5377  0.0648  4.3184
  173SOPE   H6Y19666   7.672   1.244  10.029 -0.0077  0.0848  0.8000
  173SOPE   C3719667   7.534   1.229   9.867  0.0982  0.1566  0.4768
  173SOPE   H7X19668   7.521   1.338   9.847  1.6127  0.4689  1.1241
  173SOPE   H7Y19669   7.439   1.183   9.832 -0.3729  1.2895  0.2288
  173SOPE   C3819670   7.632   1.191   9.745 -0.2769  0.5126 -0.4517
  173SOPE   H8X19671   7.677   1.093   9.770  0.0790  0.7701 -0.0448
  173SOPE   H8Y19672   7.719   1.261   9.741  0.4383 -0.3142  0.3621
  173SOPE   C3919673   7.563   1.208   9.604  0.5325 -0.3864 -0.4996
  173SOPE   H9X19674   7.532   1.313   9.583  0.4715 -0.5996 -1.5033
  173SOPE   H9Y19675   7.471   1.146   9.596  0.1218  0.3760 -1.9677
  173SOPE  C31019676   7.655   1.166   9.486 -0.0612  0.2934  0.2343
  173SOPE  H10X19677   7.687   1.059   9.484 -0.6229  0.1351 -0.3834
  173SOPE  H10Y19678   7.753   1.219   9.485  2.9110 -4.8170 -2.0712
  173SOPE  C31119679   7.588   1.188   9.347 -1.2802  0.0902 -0.5510
  173SOPE  H11X19680   7.581   1.299   9.344  2.3975  0.4361  1.3287
  173SOPE  H11Y19681   7.496   1.126   9.338 -0.3878 -1.0371 -2.0668
  173SOPE  C31219682   7.690   1.152   9.235 -0.2812 -0.1619 -0.1770
  173SOPE  H12X19683   7.709   1.043   9.245  0.5875 -0.1831 -1.9136
  173SOPE  H12Y19684   7.781   1.214   9.245  0.4778 -1.2153 -0.4623
  173SOPE  C31319685   7.646   1.174   9.088  0.3549  0.5770 -0.9669
  173SOPE  H13X19686   7.732   1.147   9.024  1.2191  1.1297 -0.0652
  173SOPE  H13Y19687   7.612   1.279   9.078 -3.1200 -0.5330 -1.3161
  173SOPE  C31419688   7.525   1.093   9.057 -0.2680 -0.2558 -0.6386
  173SOPE  H14X19689   7.450   1.135   9.127  0.5606  1.7273 -0.9226
  173SOPE  H14Y19690   7.550   0.988   9.082 -1.9795 -0.8669 -1.4341
  173SOPE  C31519691   7.485   1.093   8.909 -0.1583  0.5208 -0.8613
  173SOPE  H15X19692   7.451   1.194   8.878  0.4872  1.4408  1.3226
  173SOPE  H15Y19693   7.398   1.023   8.903 -0.8337  1.3078 -0.3796
  173SOPE  C31619694   7.599   1.055   8.810 -0.1150 -0.0914  0.5647
  173SOPE  H16X19695   7.654   0.968   8.851 -0.0565 -0.3997 -0.1666
  173SOPE  H16Y19696   7.672   1.138   8.805 -0.8641  0.5337 -0.2024
  173SOPE  C31719697   7.547   1.027   8.674  0.0702  0.3030 -0.1228
  173SOPE  H17X19698   7.483   0.937   8.681 -1.5179  1.4658  0.5768
  173SOPE  H17Y19699   7.635   0.992   8.615 -0.1554 -0.9576  0.2835
  173SOPE  C31819700   7.499   1.148   8.591  0.3536  0.2279  0.3700
  173SOPE  H18X19701   7.503   1.108   8.488  0.8656 -0.2811  0.5854
  173SOPE  H18Y19702   7.561   1.241   8.587  1.8373 -0.5958  2.6615
  173SOPE  H18Z19703   7.392   1.161   8.618  0.3260  1.9700 -0.5229
  174SOPE     N19704   6.439   0.335  10.903 -0.0721 -0.2000 -0.4859
  174SOPE   HN119705   6.353   0.368  10.951  0.7149  1.2306 -0.0010
  174SOPE   HN219706   6.458   0.237  10.931 -1.3088 -0.0421  0.9485
  174SOPE   HN319707   6.516   0.392  10.945  0.7034 -2.5178  1.3132
  174SOPE   C1219708   6.454   0.341  10.755  0.4888  0.2010 -0.8167
  174SOPE  H12A19709   6.458   0.450  10.731  1.1832  0.2244 -0.6067
  174SOPE  H12B19710   6.372   0.292  10.699 -0.0402  0.3541 -0.1743
  174SOPE   C1119711   6.591   0.288  10.698 -0.0880 -0.6768  0.2783
  174SOPE  H11A19712   6.601   0.324  10.593  0.5652 -1.0399  0.2150
  174SOPE  H11B19713   6.587   0.177  10.699  2.2262 -0.7985 -0.0336
  174SOPE     P19714   6.845   0.288  10.727 -0.5532  0.0269  0.1060
  174SOPE   O1319715   6.849   0.140  10.699  0.3174 -0.2195  0.4606
  174SOPE   O1419716   6.952   0.336  10.822  0.3581  0.1268 -0.0814
  174SOPE   O1219717   6.700   0.326  10.778  0.2616 -0.2582 -0.4709
  174SOPE   O1119718   6.839   0.373  10.596 -0.1336 -0.0656  0.2653
  174SOPE    C119719   6.877   0.509  10.579  0.4000  0.5278 -0.2426
  174SOPE    HA19720   6.919   0.522  10.477 -1.5400  0.6648 -1.0558
  174SOPE    HB19721   6.941   0.556  10.657 -2.8270  2.8112  1.1520
  174SOPE    C219722   6.748   0.596  10.571  0.3500 -0.0383 -0.7321
  174SOPE    HS19723   6.707   0.590  10.674  3.1698  2.3084  0.5909
  174SOPE   O2119724   6.657   0.531  10.474 -0.1544  0.1545 -0.1830
  174SOPE   C2119725   6.536   0.584  10.483 -0.4803  0.3572 -0.6977
  174SOPE   O2219726   6.504   0.670  10.563  0.3457  0.5412 -0.0939
  174SOPE   C2219727   6.443   0.515  10.384  0.4077  0.2565 -0.4122
  174SOPE   H2R19728   6.398   0.428  10.436 -1.2050  0.3168 -1.6761
  174SOPE   H2S19729   6.503   0.465  10.305  0.6865 -2.2159  1.3018
  174SOPE    C319730   6.782   0.738  10.535 -0.3944  0.5561  0.5222
  174SOPE    HX19731   6.866   0.762  10.603 -1.4052 -0.5681  2.1961
  174SOPE    HY19732   6.699   0.803  10.569 -1.4325 -0.3797 -0.1643
  174SOPE   O3119733   6.839   0.751  10.404  0.4193 -0.5453 -0.6788
  174SOPE   C3119734   6.772   0.839  10.323 -0.2449  0.2172  0.2865
  174SOPE   O3219735   6.681   0.916  10.364  0.4734  0.4594 -0.1898
  174SOPE   C3219736   6.829   0.833  10.181 -0.6501  0.0596  0.4786
  174SOPE   H2X19737   6.923   0.892  10.176 -0.1993 -0.7435 -1.2604
  174SOPE   H2Y19738   6.751   0.895  10.130  1.0936  1.2257 -0.8556
  174SOPE   C2319739   6.334   0.613  10.355  0.4606  0.4857 -0.5927
  174SOPE   H3R19740   6.309   0.655  10.455 -0.8046 -0.3737 -0.5440
  174SOPE   H3S19741   6.242   0.559  10.327 -1.0282  0.7537  3.3921
  174SOPE   C2419742   6.365   0.726  10.255 -0.7256  0.1110  0.4622
  174SOPE   H4R19743   6.264   0.769  10.237 -0.9327  0.5201  2.4651
  174SOPE   H4S19744   6.430   0.806  10.298  0.4958  0.6841 -2.3483
  174SOPE   C2519745   6.415   0.686  10.119 -0.1933 -0.0063 -0.4751
  174SOPE   H5R19746   6.509   0.630  10.138 -0.2987 -0.1960 -0.5107
  174SOPE   H5S19747   6.347   0.615  10.067 -1.0132  0.2186  0.2853
  174SOPE   C2619748   6.433   0.803  10.033  0.3926 -0.2839 -0.3423
  174SOPE   H6R19749   6.328   0.838  10.022 -0.0974 -1.8277 -0.7568
  174SOPE   H6S19750   6.489   0.876  10.096  1.2057 -0.9111 -0.3325
  174SOPE   C2719751   6.506   0.777   9.899  0.0490 -0.1494  0.2117
  174SOPE   H7R19752   6.502   0.875   9.847 -2.1773  0.4521  1.4768
  174SOPE   H7S19753   6.616   0.768   9.916  0.2819  3.8789  1.3138
  174SOPE   C2819754   6.440   0.673   9.806 -0.1242 -0.7055 -0.4826
  174SOPE   H8R19755   6.413   0.580   9.862  1.2736 -1.7346 -1.4944
  174SOPE   H8S19756   6.338   0.709   9.777  0.3921  1.4823  0.2995
  174SOPE   C2919757   6.521   0.624   9.696  0.6625 -0.4238  0.1570
  174SOPE   H9119758   6.601   0.557   9.730  0.9318 -0.3650 -0.3517
  174SOPE  C21019759   6.517   0.672   9.567 -0.1539  0.1966 -0.0063
  174SOPE  H10119760   6.574   0.620   9.488  0.0078  0.1154  0.1642
  174SOPE  C21119761   6.428   0.774   9.513  0.6643  0.1105  0.1080
  174SOPE  H11R19762   6.481   0.836   9.438 -3.2396  0.3690 -2.5627
  174SOPE  H11S19763   6.410   0.838   9.602  0.6926  0.3737 -0.0756
  174SOPE  C21219764   6.299   0.724   9.453 -0.2942 -0.5002 -0.2395
  174SOPE  H12R19765   6.235   0.814   9.440 -1.3341 -1.6589 -3.4398
  174SOPE  H12S19766   6.245   0.657   9.522 -2.1704  1.9138  0.7375
  174SOPE  C21319767   6.312   0.666   9.308 -0.0879  0.4644  0.4856
  174SOPE  H13R19768   6.376   0.575   9.306 -0.7668 -0.1145  3.3292
  174SOPE  H13S19769   6.372   0.746   9.258  0.5003 -1.1757 -1.5130
  174SOPE  C21419770   6.178   0.649   9.237 -0.6867  0.7472 -0.7397
  174SOPE  H14R19771   6.106   0.720   9.282 -2.0722 -0.8062 -0.4150
  174SOPE  H14S19772   6.124   0.556   9.265  2.6567 -1.7902 -2.3390
  174SOPE  C21519773   6.197   0.657   9.079 -0.0539  0.0966 -0.2012
  174SOPE  H15R19774   6.258   0.570   9.049 -1.2160  0.1201 -2.7028
  174SOPE  H15S19775   6.239   0.758   9.059 -0.3214 -0.3163 -2.9537
  174SOPE  C21619776   6.062   0.633   9.005 -0.3600  0.4602  0.4066
  174SOPE  H16R19777   5.995   0.707   9.053 -1.4925  0.9368 -1.8432
  174SOPE  H16S19778   6.037   0.528   9.033 -2.3708  0.9074  0.3396
  174SOPE  C21719779   6.068   0.656   8.857  0.1429 -0.4491 -0.3842
  174SOPE  H17R19780   6.155   0.597   8.821  2.5901  2.0055  1.2750
  174SOPE  H17S19781   6.093   0.763   8.836  0.2895 -0.4315 -0.1273
  174SOPE  C21819782   5.948   0.614   8.768 -0.7109  0.1237  0.0652
  174SOPE  H18R19783   5.925   0.509   8.797  0.5691 -0.9407 -2.5301
  174SOPE  H18S19784   5.967   0.612   8.658 -0.2576 -0.3356  0.1463
  174SOPE  H18T19785   5.856   0.676   8.778 -0.5286  0.4280 -0.1442
  174SOPE   C3319786   6.846   0.688  10.125 -0.1693 -0.2558  0.0593
  174SOPE   H3X19787   6.745   0.640  10.121  0.1182 -0.9090  0.5957
  174SOPE   H3Y19788   6.907   0.637  10.202 -1.0835 -1.2903  0.1069
  174SOPE   C3419789   6.911   0.694   9.979 -0.2325  1.4288 -0.6110
  174SOPE   H4X19790   7.017   0.722   9.995  0.3478 -0.7449 -0.5293
  174SOPE   H4Y19791   6.862   0.772   9.917 -0.5977  0.0198 -2.1261
  174SOPE   C3519792   6.924   0.560   9.904  0.1941  0.3595 -0.8977
  174SOPE   H5X19793   6.820   0.525   9.888  0.2676  0.8195 -2.5489
  174SOPE   H5Y19794   6.976   0.493   9.976 -2.9481  1.9234  2.9960
  174SOPE   C3619795   6.993   0.560   9.770  0.7038 -0.1295 -1.0951
  174SOPE   H6X19796   6.981   0.454   9.736 -1.7567  0.0026 -0.7432
  174SOPE   H6Y19797   7.099   0.593   9.775 -0.0543  2.1166  1.2540
  174SOPE   C3719798   6.921   0.651   9.666  0.1487  0.0033 -0.2328
  174SOPE   H7X19799   6.949   0.755   9.695  1.1208  0.3994 -2.4673
  174SOPE   H7Y19800   6.811   0.640   9.679  0.1727 -0.3760 -0.3563
  174SOPE   C3819801   6.966   0.624   9.525  0.4241 -0.1933 -0.2655
  174SOPE   H8X19802   6.974   0.515   9.506  0.0931 -0.2136 -0.2892
  174SOPE   H8Y19803   7.069   0.664   9.527 -0.7142  2.9210  1.3660
  174SOPE   C3919804   6.876   0.694   9.421 -0.0537 -0.0067 -0.2628
  174SOPE   H9X19805   6.893   0.802   9.437  1.5595 -0.3306  0.2598
  174SOPE   H9Y19806   6.770   0.660   9.418  0.5214 -1.8128 -1.1992
  174SOPE  C31019807   6.926   0.680   9.277  0.2719 -0.3284  0.4992
  174SOPE  H10X19808   6.945   0.574   9.250 -0.7148  0.5913 -4.2774
  174SOPE  H10Y19809   7.024   0.727   9.255  0.4984 -0.3103  1.5254
  174SOPE  C31119810   6.837   0.745   9.172 -0.2165  0.3174 -0.9023
  174SOPE  H11X19811   6.784   0.829   9.222  0.4493  0.5696 -0.6109
  174SOPE  H11Y19812   6.756   0.674   9.145  0.9012 -0.5128 -2.1761
  174SOPE  C31219813   6.909   0.776   9.041 -0.1560  0.2638  0.4232
  174SOPE  H12X19814   7.000   0.837   9.060 -0.1330 -0.2522  2.0420
  174SOPE  H12Y19815   6.834   0.839   8.988 -1.2357 -1.0163  0.4082
  174SOPE  C31319816   6.951   0.660   8.954 -0.0908  0.6760 -0.2483
  174SOPE  H13X19817   7.027   0.595   9.003 -1.0518  0.3900  0.9019
  174SOPE  H13Y19818   7.003   0.706   8.868  0.1594  0.4620 -0.2155
  174SOPE  C31419819   6.848   0.563   8.889  0.3408  0.5501  0.7464
  174SOPE  H14X19820   6.783   0.636   8.836  0.2967  0.4781  0.7001
  174SOPE  H14Y19821   6.779   0.518   8.962  1.7375  2.2039  3.1625
  174SOPE  C31519822   6.922   0.464   8.795  0.0309 -0.1810 -0.3954
  174SOPE  H15X19823   7.006   0.408   8.841  0.3845 -0.5915 -1.5191
  174SOPE  H15Y19824   6.970   0.518   8.711 -1.4642  1.7739 -0.0260
  174SOPE  C31619825   6.812   0.364   8.752  0.6512 -0.0578 -0.2103
  174SOPE  H16X19826   6.742   0.432   8.700  0.3430 -0.8742 -0.8706
  174SOPE  H16Y19827   6.773   0.308   8.840  0.7261 -0.2208 -0.2803
  174SOPE  C31719828   6.854   0.251   8.657  0.5171  0.0983 -0.0241
  174SOPE  H17X19829   6.904   0.170   8.713  2.8526  0.6722 -1.2322
  174SOPE  H17Y19830   6.932   0.285   8.586  2.1920  0.6602  2.0471
  174SOPE  C31819831   6.740   0.199   8.576 -0.2017  0.5586  0.7127
  174SOPE  H18X19832   6.758   0.117   8.503  1.8728  2.4400 -0.9646
  174SOPE  H18Y19833   6.707   0.289   8.520  1.0743  0.5910 -0.0009
  174SOPE  H18Z19834   6.661   0.156   8.640  0.1477 -0.1732  0.6602
  175SOPE     N19835   2.214   2.472  10.520 -0.3243  0.0334 -0.3909
  175SOPE   HN119836   2.263   2.497  10.432  2.9811  0.9128  1.5962
  175SOPE   HN219837   2.252   2.388  10.568 -2.0100 -0.5268 -0.0016
  175SOPE   HN319838   2.112   2.454  10.509 -0.6621  1.7499 -0.2607
  175SOPE   C1219839   2.209   2.575  10.627  0.1485  0.2500 -0.7574
  175SOPE  H12A19840   2.315   2.581  10.659  0.0641 -2.2283  0.0640
  175SOPE  H12B19841   2.138   2.532  10.700  1.9701 -3.7014 -1.2078
  175SOPE   C1119842   2.146   2.704  10.584 -0.5513 -0.2147 -0.0307
  175SOPE  H11A19843   2.200   2.750  10.498 -3.9462  2.8492 -0.6199
  175SOPE  H11B19844   2.163   2.782  10.662 -2.4806  0.3054 -0.1093
  175SOPE     P19845   1.931   2.820  10.476 -0.0329  0.4294  0.0237
  175SOPE   O1319846   2.005   2.944  10.504  0.5685 -0.1517 -0.1446
  175SOPE   O1419847   1.791   2.821  10.518 -0.1511  0.2064 -0.7446
  175SOPE   O1219848   2.010   2.693  10.548  1.1108 -0.0525 -0.0270
  175SOPE   O1119849   1.936   2.786  10.321 -0.1389 -0.1585 -0.8457
  175SOPE    C119850   1.936   2.658  10.266  0.2008 -0.0028  0.3502
  175SOPE    HA19851   1.893   2.585  10.339  0.9318 -2.4520 -1.5993
  175SOPE    HB19852   2.037   2.615  10.251  0.7881  1.4549  0.1097
  175SOPE    C219853   1.856   2.658  10.134  0.6906 -0.7586 -0.0771
  175SOPE    HS19854   1.886   2.574  10.068  0.0809 -1.2228  0.2331
  175SOPE   O2119855   1.854   2.784  10.067 -0.0404  0.0487 -0.0077
  175SOPE   C2119856   1.975   2.805  10.005 -0.7079  0.3664  0.3943
  175SOPE   O2219857   2.067   2.726   9.996  0.0269 -0.2009 -0.0100
  175SOPE   C2219858   1.987   2.942   9.928 -0.3563 -0.1985 -0.5277
  175SOPE   H2R19859   2.086   2.944   9.877 -0.3627  3.5930 -0.5338
  175SOPE   H2S19860   1.986   3.021  10.006 -0.9573 -0.8075  0.0913
  175SOPE    C319861   1.708   2.638  10.165  0.0279  0.0744 -0.2670
  175SOPE    HX19862   1.674   2.725  10.225 -1.9114 -0.6587 -0.2495
  175SOPE    HY19863   1.712   2.552  10.235 -0.3831  1.0344  0.9610
  175SOPE   O3119864   1.623   2.610  10.056  0.5167  0.4001  0.1367
  175SOPE   C3119865   1.567   2.712   9.995  0.2822 -0.1111 -0.2547
  175SOPE   O3219866   1.569   2.831  10.019  0.4346  0.0498 -0.9810
  175SOPE   C3219867   1.468   2.652   9.888 -0.1124 -0.3708 -0.3011
  175SOPE   H2X19868   1.419   2.566   9.938 -1.1676  0.9814  1.0438
  175SOPE   H2Y19869   1.536   2.610   9.811 -1.1895  1.0254 -2.0643
  175SOPE   C2319870   1.869   2.963   9.839 -0.1108  0.1882  0.2624
  175SOPE   H3R19871   1.860   3.071   9.817  0.4309 -0.2531 -2.2259
  175SOPE   H3S19872   1.771   2.938   9.886  0.4556 -0.5455  1.0905
  175SOPE   C2419873   1.886   2.888   9.703  0.4588 -0.7752  0.6941
  175SOPE   H4R19874   1.986   2.914   9.662 -0.0044  0.4112  0.2954
  175SOPE   H4S19875   1.890   2.780   9.726  0.5569 -0.9610 -0.1731
  175SOPE   C2519876   1.771   2.890   9.602  0.3993  0.3485 -0.1697
  175SOPE   H5R19877   1.689   2.830   9.646  1.6004 -0.8567  0.4614
  175SOPE   H5S19878   1.745   2.996   9.582 -1.0862  0.3012  1.4081
  175SOPE   C2619879   1.809   2.827   9.468 -0.0848  0.5971  0.2276
  175SOPE   H6R19880   1.911   2.865   9.446  0.7110 -0.5785  1.7774
  175SOPE   H6S19881   1.797   2.717   9.460 -0.4470  0.6968 -0.7403
  175SOPE   C2719882   1.725   2.898   9.360  0.9558  0.3955  0.1661
  175SOPE   H7R19883   1.619   2.871   9.384  0.8844 -2.3432 -2.8765
  175SOPE   H7S19884   1.751   3.006   9.361  0.8285  0.4407 -0.7682
  175SOPE   C2819885   1.744   2.849   9.217 -0.8190  0.0406 -0.2773
  175SOPE   H8R19886   1.751   2.738   9.210  1.0643 -0.1031  2.8379
  175SOPE   H8S19887   1.664   2.891   9.152 -1.9363  0.3367  1.2592
  175SOPE   C2919888   1.881   2.904   9.161 -0.1823 -0.3188  0.1321
  175SOPE   H9119889   1.971   2.892   9.224 -0.1684 -1.3694 -0.0783
  175SOPE  C21019890   1.894   2.956   9.040 -0.3676 -0.1077 -0.2547
  175SOPE  H10119891   1.995   2.985   9.007 -0.1680  0.1351  0.5606
  175SOPE  C21119892   1.787   2.971   8.933 -0.5669 -0.9995  0.5990
  175SOPE  H11R19893   1.773   3.080   8.915 -2.5889 -0.8516  2.8838
  175SOPE  H11S19894   1.686   2.937   8.964 -1.7651  0.2343 -1.8264
  175SOPE  C21219895   1.806   2.895   8.794 -0.9390 -0.3358 -0.0868
  175SOPE  H12R19896   1.824   2.786   8.804  0.5530 -0.3460 -2.3648
  175SOPE  H12S19897   1.889   2.941   8.737 -0.7968  0.5025  0.7901
  175SOPE  C21319898   1.681   2.913   8.702 -0.2335  0.0864  0.4224
  175SOPE  H13R19899   1.664   3.014   8.661  0.4226 -0.0148 -0.0977
  175SOPE  H13S19900   1.589   2.880   8.756  0.3650  0.9191  1.9878
  175SOPE  C21419901   1.684   2.813   8.585 -0.3965 -0.0188 -0.6203
  175SOPE  H14R19902   1.679   2.710   8.625  2.7143  0.5390  1.3423
  175SOPE  H14S19903   1.784   2.823   8.537 -0.1767  2.1776  0.2137
  175SOPE  C21519904   1.575   2.834   8.474 -0.5172 -0.1932 -0.2991
  175SOPE  H15R19905   1.591   2.938   8.437 -2.2637  0.7135  1.4477
  175SOPE  H15S19906   1.473   2.826   8.516 -0.4616  0.0104 -0.1274
  175SOPE  C21619907   1.583   2.743   8.353  0.2316 -0.3826 -0.2516
  175SOPE  H16R19908   1.687   2.753   8.315  0.0614  3.0461  0.0408
  175SOPE  H16S19909   1.530   2.784   8.264  1.3441 -0.2442 -0.8642
  175SOPE  C21719910   1.557   2.594   8.390 -0.2112 -0.0639 -0.5043
  175SOPE  H17R19911   1.461   2.590   8.446 -0.0945 -1.8549 -0.4224
  175SOPE  H17S19912   1.636   2.543   8.450 -0.8322 -1.2519 -0.6948
  175SOPE  C21819913   1.532   2.511   8.260 -0.1357 -0.5611  1.0214
  175SOPE  H18R19914   1.431   2.529   8.217  0.8300 -1.0710 -1.5481
  175SOPE  H18S19915   1.555   2.405   8.283  0.2405 -0.7623 -0.2463
  175SOPE  H18T19916   1.602   2.534   8.177 -2.2825  1.8638 -0.2037
  175SOPE   C3319917   1.355   2.748   9.826 -0.3174 -0.1093  0.2087
  175SOPE   H3X19918   1.409   2.828   9.771 -1.0665 -0.3490 -0.8939
  175SOPE   H3Y19919   1.308   2.788   9.918 -0.4209  0.0886  0.0695
  175SOPE   C3419920   1.245   2.688   9.740  0.0944 -0.1421  0.1747
  175SOPE   H4X19921   1.176   2.771   9.714 -1.0510 -0.9725  0.5119
  175SOPE   H4Y19922   1.181   2.623   9.804  1.7988 -0.7103  1.3406
  175SOPE   C3519923   1.306   2.613   9.616  0.3170  0.5729 -0.0080
  175SOPE   H5X19924   1.224   2.567   9.557 -1.3419 -0.9473  3.3499
  175SOPE   H5Y19925   1.370   2.535   9.662 -0.9758 -0.1150  0.6357
  175SOPE   C3619926   1.398   2.690   9.529  0.2576 -0.9441  0.2699
  175SOPE   H6X19927   1.483   2.741   9.581  0.1489  1.6332 -1.9568
  175SOPE   H6Y19928   1.355   2.780   9.480  1.3488 -0.0622  0.8708
  175SOPE   C3719929   1.463   2.605   9.422 -0.0151  0.5435  0.9262
  175SOPE   H7X19930   1.484   2.504   9.464  1.5888  0.7795  0.7220
  175SOPE   H7Y19931   1.556   2.642   9.374 -1.7059  1.1280 -2.0082
  175SOPE   C3819932   1.375   2.586   9.300  0.1531  0.1443  0.0381
  175SOPE   H8X19933   1.291   2.523   9.336  0.1408  0.1569  0.0307
  175SOPE   H8Y19934   1.424   2.529   9.219 -1.0604 -1.6977  0.5759
  175SOPE   C3919935   1.333   2.723   9.235  0.6657 -0.1588  0.5308
  175SOPE   H9X19936   1.418   2.793   9.227  1.1142 -0.8377 -0.9185
  175SOPE   H9Y19937   1.262   2.779   9.299 -1.0917 -1.7428  0.0432
  175SOPE  C31019938   1.283   2.706   9.089 -0.3256  0.8346  0.4213
  175SOPE  H10X19939   1.229   2.797   9.056 -0.6914  0.3235 -0.4056
  175SOPE  H10Y19940   1.204   2.627   9.099 -2.7137  3.3078  1.9201
  175SOPE  C31119941   1.393   2.661   9.000  0.0973 -0.4574 -0.1491
  175SOPE  H11X19942   1.441   2.566   9.032 -2.6610 -1.5272  1.0284
  175SOPE  H11Y19943   1.480   2.725   9.022 -0.2496 -1.0196  3.1320
  175SOPE  C31219944   1.357   2.643   8.854 -0.8616  0.3688 -0.3530
  175SOPE  H12X19945   1.453   2.626   8.800 -0.9357 -1.3713  0.0493
  175SOPE  H12Y19946   1.333   2.741   8.806  2.5983  0.8006 -1.4005
  175SOPE  C31319947   1.267   2.523   8.825 -0.3288  0.3154 -0.0901
  175SOPE  H13X19948   1.170   2.519   8.878 -1.3699  1.7730 -1.8604
  175SOPE  H13Y19949   1.326   2.439   8.869  0.8814 -0.2895 -2.7921
  175SOPE  C31419950   1.247   2.510   8.668  0.5185  0.4888  0.3119
  175SOPE  H14X19951   1.348   2.529   8.627  0.4893  1.0609  0.4979
  175SOPE  H14Y19952   1.182   2.596   8.641 -0.6252 -0.6719 -0.7125
  175SOPE  C31519953   1.194   2.379   8.615 -0.2538  0.3006  0.0250
  175SOPE  H15X19954   1.092   2.370   8.659  0.1919  0.2747  1.0763
  175SOPE  H15Y19955   1.268   2.309   8.661 -1.2575 -1.4356 -0.9470
  175SOPE  C31619956   1.167   2.366   8.461 -0.3773  0.7074  0.0928
  175SOPE  H16X19957   1.252   2.411   8.405 -1.0298  0.5252 -1.0616
  175SOPE  H16Y19958   1.077   2.430   8.449  0.6304  2.1336 -0.0683
  175SOPE  C31719959   1.131   2.224   8.405 -0.0238  0.0538 -0.5147
  175SOPE  H17X19960   1.042   2.241   8.341  1.2182  0.4034 -2.1714
  175SOPE  H17Y19961   1.089   2.161   8.486  0.9774 -0.6636 -0.5538
  175SOPE  C31819962   1.248   2.164   8.331 -0.4150 -0.5135  0.9639
  175SOPE  H18X19963   1.339   2.151   8.394  0.7803 -0.4042 -0.7005
  175SOPE  H18Y19964   1.288   2.225   8.248 -0.3899 -0.7026  0.8372
  175SOPE  H18Z19965   1.216   2.063   8.296  2.3976 -0.7545 -1.0351
  176SOPE     N19966   1.297   2.589  11.109  0.7601  0.5009 -0.2192
  176SOPE   HN119967   1.268   2.588  11.209  1.4607  0.7025 -0.0158
  176SOPE   HN219968   1.388   2.637  11.093  0.2775  2.0385  1.4860
  176SOPE   HN319969   1.224   2.645  11.061 -1.4019 -2.6509 -0.7845
  176SOPE   C1219970   1.296   2.439  11.068 -0.8226  0.2781  0.1034
  176SOPE  H12A19971   1.202   2.393  11.106 -0.1212 -2.6384 -1.4782
  176SOPE  H12B19972   1.374   2.381  11.121 -1.3513  0.3393  0.9504
  176SOPE   C1119973   1.313   2.425  10.918 -0.5252  1.5265  0.5279
  176SOPE  H11A19974   1.229   2.471  10.862 -0.5739  3.1014  1.8941
  176SOPE  H11B19975   1.314   2.315  10.899 -1.4755  1.6206 -0.0949
  176SOPE     P19976   1.567   2.430  10.810 -0.0235  0.1894  0.5617
  176SOPE   O1319977   1.648   2.363  10.912 -0.2954  0.2272 -0.6466
  176SOPE   O1419978   1.620   2.533  10.719  0.1624  0.4996 -0.3294
  176SOPE   O1219979   1.440   2.486  10.885 -0.5700 -0.2356 -0.1926
  176SOPE   O1119980   1.509   2.317  10.710 -0.5742  1.0720 -0.3342
  176SOPE    C119981   1.593   2.203  10.692 -0.0387  0.7363  0.6336
  176SOPE    HA19982   1.606   2.154  10.791 -1.9001 -1.3006 -0.0793
  176SOPE    HB19983   1.693   2.238  10.659  0.5420 -1.4390 -0.0013
  176SOPE    C219984   1.531   2.104  10.590 -0.0648  0.3966  0.5625
  176SOPE    HS19985   1.607   2.025  10.574  1.3053  1.7998  0.0194
  176SOPE   O2119986   1.501   2.182  10.468 -0.3368 -0.3001  0.3412
  176SOPE   C2119987   1.612   2.221  10.401  0.5258  0.0931  0.1192
  176SOPE   O2219988   1.725   2.209  10.439 -0.3407  0.4593 -0.8326
  176SOPE   C2219989   1.596   2.263  10.255 -0.0108 -0.3505 -0.3497
  176SOPE   H2R19990   1.667   2.207  10.190  2.0697 -0.7514  2.2043
  176SOPE   H2S19991   1.619   2.371  10.253  0.4449 -0.3494  2.6043
  176SOPE    C319992   1.398   2.035  10.635  0.8131  0.0625 -0.1635
  176SOPE    HX19993   1.320   2.112  10.651  0.7852 -0.3367  1.7624
  176SOPE    HY19994   1.429   1.985  10.729  0.7329  0.7618  0.2324
  176SOPE   O3119995   1.350   1.943  10.528  0.4097 -0.1907 -0.0905
  176SOPE   C3119996   1.244   1.872  10.566  0.3109 -0.5569  0.5815
  176SOPE   O3219997   1.185   1.879  10.665 -0.1368 -0.1970 -0.3268
  176SOPE   C3219998   1.176   1.799  10.443 -0.2508  0.2220  0.7342
  176SOPE   H2X19999   1.247   1.723  10.403  1.0615  1.2988  0.9982
  176SOPE   H2Y20000   1.170   1.873  10.360  3.4150 -2.4094 -2.1040
  176SOPE   C2320001   1.452   2.240  10.208  0.2978 -0.4527 -0.2805
  176SOPE   H3R20002   1.385   2.304  10.270  1.4829  1.7932 -1.2620
  176SOPE   H3S20003   1.416   2.135  10.210 -0.1591 -0.2766  2.4297
  176SOPE   C2420004   1.444   2.281  10.058  0.3096 -0.7851  0.1209
  176SOPE   H4R20005   1.427   2.391  10.055 -0.3539 -0.8972 -0.1020
  176SOPE   H4S20006   1.541   2.253  10.012  0.3339 -0.8195  0.1917
  176SOPE   C2520007   1.323   2.226   9.983 -0.9360 -0.0679 -0.8719
  176SOPE   H5R20008   1.325   2.115   9.992  1.3490 -0.0277 -0.6612
  176SOPE   H5S20009   1.243   2.255  10.056 -0.7994 -0.3112 -0.6251
  176SOPE   C2620010   1.295   2.277   9.845  0.2499  0.1393  0.2660
  176SOPE   H6R20011   1.202   2.237   9.798  0.8023 -0.7924 -0.0552
  176SOPE   H6S20012   1.284   2.387   9.845  2.0130  0.3231  2.0626
  176SOPE   C2720013   1.409   2.227   9.738 -0.1919 -0.0275 -0.3916
  176SOPE   H7R20014   1.504   2.279   9.765  0.0919 -1.0684  0.6764
  176SOPE   H7S20015   1.422   2.120   9.763 -0.3100 -0.4036 -1.9043
  176SOPE   C2820016   1.385   2.254   9.581 -0.6486  0.0718  0.5445
  176SOPE   H8R20017   1.378   2.364   9.569 -2.5958 -0.0807  0.0818
  176SOPE   H8S20018   1.475   2.223   9.524 -1.0201  0.4705 -0.2566
  176SOPE   C2920019   1.261   2.188   9.528  0.1760 -0.5107 -0.6433
  176SOPE   H9120020   1.175   2.194   9.596  1.4631 -0.1969  0.9898
  176SOPE  C21020021   1.251   2.112   9.418  0.4552  0.0126 -0.0955
  176SOPE  H10120022   1.150   2.083   9.386  0.3421  1.8964 -1.5202
  176SOPE  C21120023   1.354   2.077   9.316 -0.2909  0.7198 -0.1476
  176SOPE  H11R20024   1.357   1.966   9.311  0.9651  0.7388  0.0312
  176SOPE  H11S20025   1.460   2.094   9.348  0.2182  0.6272 -1.7654
  176SOPE  C21220026   1.332   2.130   9.174  0.7337  0.4084 -0.0088
  176SOPE  H12R20027   1.348   2.240   9.172  0.2021  0.4755 -0.6795
  176SOPE  H12S20028   1.224   2.128   9.148  1.2455  0.6760 -2.2505
  176SOPE  C21320029   1.409   2.055   9.067  0.1062  0.1579  0.4583
  176SOPE  H13R20030   1.406   1.945   9.087 -0.7862  0.0300 -0.3568
  176SOPE  H13S20031   1.512   2.095   9.077 -0.4629  1.6418  0.4593
  176SOPE  C21420032   1.377   2.087   8.924  0.4317  0.9065 -1.0053
  176SOPE  H14R20033   1.463   2.088   8.854  1.8973 -0.0360  0.7129
  176SOPE  H14S20034   1.345   2.191   8.946 -2.0259  0.1317 -0.7669
  176SOPE  C21520035   1.264   1.994   8.865  0.0959 -0.2098 -0.2170
  176SOPE  H15R20036   1.224   2.037   8.770  0.3401 -0.6055 -0.5029
  176SOPE  H15S20037   1.183   1.983   8.939  2.4861 -0.8617  2.3899
  176SOPE  C21620038   1.314   1.847   8.827  0.6109  0.0161 -0.3926
  176SOPE  H16R20039   1.221   1.804   8.784  0.2471 -2.2370  2.5056
  176SOPE  H16S20040   1.328   1.787   8.919  2.2844  1.4878  0.3355
  176SOPE  C21720041   1.437   1.836   8.739  0.7340 -0.8067 -0.0974
  176SOPE  H17R20042   1.517   1.889   8.795  0.9478  1.0204 -2.0346
  176SOPE  H17S20043   1.419   1.891   8.644 -1.1207  0.0479  0.7331
  176SOPE  C21820044   1.481   1.695   8.704  0.0518 -0.1527 -0.1158
  176SOPE  H18R20045   1.565   1.697   8.632  0.3692  1.3777  0.2740
  176SOPE  H18S20046   1.398   1.644   8.651  1.6580 -3.6869  0.6570
  176SOPE  H18T20047   1.514   1.642   8.796 -2.8367 -2.7155 -0.4651
  176SOPE   C3320048   1.032   1.756  10.466 -0.5138  0.1481 -0.6265
  176SOPE   H3X20049   0.959   1.836  10.492  1.5851  1.5762  1.1176
  176SOPE   H3Y20050   1.033   1.687  10.552  0.7677  1.6649  0.6197
  176SOPE   C3420051   0.974   1.707  10.330 -0.2842 -0.1692 -0.4320
  176SOPE   H4X20052   1.000   1.773  10.245 -0.8669 -0.2316 -0.6590
  176SOPE   H4Y20053   0.863   1.713  10.331 -0.2875 -0.2657 -0.0984
  176SOPE   C3520054   1.022   1.565  10.292 -0.0480  0.2033 -0.6428
  176SOPE   H5X20055   0.982   1.507  10.378 -0.3618 -0.5755 -1.3207
  176SOPE   H5Y20056   1.131   1.542  10.297 -0.1013  0.3739  2.4753
  176SOPE   C3620057   0.974   1.509  10.158 -0.0637 -0.2823 -0.5297
  176SOPE   H6X20058   0.864   1.516  10.160  0.0179  1.0913 -0.4372
  176SOPE   H6Y20059   0.992   1.399  10.155 -1.9699 -0.7001  2.1259
  176SOPE   C3720060   1.039   1.582  10.041  0.2780 -0.1356  0.9048
  176SOPE   H7X20061   1.149   1.582  10.056  0.4165 -0.1474 -0.0870
  176SOPE   H7Y20062   1.011   1.690  10.047  1.1254  0.3092 -2.1216
  176SOPE   C3820063   1.006   1.521   9.902 -0.9225  0.1945  0.3629
  176SOPE   H8X20064   0.895   1.519   9.901 -0.9870  2.6589  0.2927
  176SOPE   H8Y20065   1.045   1.417   9.907 -0.0153  0.5292  0.2860
  176SOPE   C3920066   1.058   1.596   9.777  0.3133 -0.4219 -0.0209
  176SOPE   H9X20067   1.168   1.587   9.792  0.4940  0.1372 -1.0129
  176SOPE   H9Y20068   1.030   1.703   9.767 -1.0915 -0.6141  1.6816
  176SOPE  C31020069   1.020   1.533   9.645 -0.5633 -0.6383 -0.3839
  176SOPE  H10X20070   0.914   1.548   9.616 -1.6605 -0.8096  3.2420
  176SOPE  H10Y20071   1.033   1.422   9.641 -1.2929 -0.6890 -1.6568
  176SOPE  C31120072   1.101   1.588   9.523 -0.7438  0.2465  0.1501
  176SOPE  H11X20073   1.210   1.576   9.535 -1.1272 -3.5622  0.5661
  176SOPE  H11Y20074   1.094   1.699   9.521  1.4037  0.3965  0.5436
  176SOPE  C31220075   1.049   1.528   9.393  0.1134  0.3101 -0.0680
  176SOPE  H12X20076   0.941   1.554   9.382 -0.9663 -2.9752  2.0622
  176SOPE  H12Y20077   1.054   1.418   9.410  1.0499  0.4579  0.5942
  176SOPE  C31320078   1.125   1.548   9.263 -0.2626 -0.6581  0.4775
  176SOPE  H13X20079   1.231   1.518   9.276  0.1360  0.4658 -0.0724
  176SOPE  H13Y20080   1.136   1.657   9.244 -0.2934 -0.3827  1.9678
  176SOPE  C31420081   1.066   1.482   9.138  0.3377  0.3316 -0.5294
  176SOPE  H14X20082   0.958   1.508   9.136  0.1887 -0.2316 -0.0304
  176SOPE  H14Y20083   1.076   1.372   9.144 -0.4242  0.3069  0.7438
  176SOPE  C31520084   1.119   1.513   8.996  0.2022  0.3646  0.1913
  176SOPE  H15X20085   1.225   1.482   9.000  0.7891  1.8218 -2.3283
  176SOPE  H15Y20086   1.124   1.622   8.973  4.6183  0.2611  0.3795
  176SOPE  C31620087   1.045   1.444   8.875  0.4743 -0.0409 -0.2820
  176SOPE  H16X20088   1.047   1.523   8.797 -2.8735 -0.6114 -1.0174
  176SOPE  H16Y20089   0.937   1.426   8.894  0.3935  1.6108  0.9737
  176SOPE  C31720090   1.112   1.323   8.815  1.2315 -0.2807 -0.3841
  176SOPE  H17X20091   1.053   1.298   8.724 -1.6281  2.1683  0.7186
  176SOPE  H17Y20092   1.102   1.232   8.879 -1.3750 -1.6151 -2.5842
  176SOPE  C31820093   1.259   1.333   8.783 -0.1312 -0.1069  0.3243
  176SOPE  H18X20094   1.291   1.261   8.704 -1.9038 -0.7475  0.1767
  176SOPE  H18Y20095   1.310   1.301   8.877 -1.3328  0.6972  1.2677
  176SOPE  H18Z20096   1.281   1.436   8.748  0.8608 -0.5088 -0.2836
  177SOPE     N20097   1.431   6.039  11.268  0.4391  0.7955 -0.1658
  177SOPE   HN120098   1.495   6.121  11.271  3.2367 -1.2674 -1.1247
  177SOPE   HN220099   1.330   6.062  11.257  0.8676  2.7839 -0.0381
  177SOPE   HN320100   1.435   5.977  11.351 -0.9999  1.3544  0.3454
  177SOPE   C1220101   1.481   5.946  11.162 -0.6677  0.2257 -0.5201
  177SOPE  H12A20102   1.562   5.885  11.209 -2.2660 -1.8545 -0.4020
  177SOPE  H12B20103   1.517   6.007  11.076  0.5506 -0.4946 -0.5432
  177SOPE   C1120104   1.370   5.862  11.108  0.5839  0.1461 -0.4636
  177SOPE  H11A20105   1.313   5.811  11.188 -2.4795 -1.3035 -3.4115
  177SOPE  H11B20106   1.398   5.774  11.046  2.4457 -0.1382  0.7395
  177SOPE     P20107   1.145   5.995  11.095  0.0140 -0.1578 -0.4774
  177SOPE   O1320108   1.184   6.101  11.192  0.3532  0.5774  0.7138
  177SOPE   O1420109   1.049   5.897  11.133  0.2501  0.3445  0.3627
  177SOPE   O1220110   1.274   5.931  11.028 -0.3591 -0.6159  0.0773
  177SOPE   O1120111   1.086   6.080  10.977 -0.0792 -0.4207  0.2578
  177SOPE    C120112   1.147   6.048  10.845  0.5091  0.3505  0.3629
  177SOPE    HA20113   1.148   5.940  10.821 -0.8492  0.5961 -0.9075
  177SOPE    HB20114   1.252   6.083  10.836  0.1528  1.3180 -0.1611
  177SOPE    C220115   1.063   6.101  10.717  0.4998  0.0411 -0.0627
  177SOPE    HS20116   1.120   6.089  10.623  0.5611 -0.2409  0.0107
  177SOPE   O2120117   1.039   6.236  10.737 -0.2429  0.1418 -0.5288
  177SOPE   C2120118   1.145   6.317  10.713  0.1009  0.5117 -1.0100
  177SOPE   O2220119   1.254   6.280  10.683 -0.1036 -0.2094  0.4562
  177SOPE   C2220120   1.104   6.460  10.737  0.0480  0.5117 -0.4648
  177SOPE   H2R20121   1.123   6.473  10.845 -0.8316  0.5996 -0.3149
  177SOPE   H2S20122   0.995   6.472  10.719 -0.0748 -2.4175 -2.0094
  177SOPE    C320123   0.925   6.030  10.713 -0.2845  0.8630 -0.8102
  177SOPE    HX20124   0.869   6.041  10.808  1.5521  0.9701  0.2803
  177SOPE    HY20125   0.933   5.919  10.701 -0.9102  0.7116  0.1432
  177SOPE   O3120126   0.840   6.088  10.618  0.3576 -0.3711 -0.8251
  177SOPE   C3120127   0.855   6.057  10.489 -0.2229 -0.2568 -0.7961
  177SOPE   O3220128   0.938   5.977  10.450 -0.2529  0.4144  0.4714
  177SOPE   C3220129   0.779   6.159  10.410  0.9611  0.0353 -0.2102
  177SOPE   H2X20130   0.849   6.244  10.399 -0.8071  1.6860  0.9274
  177SOPE   H2Y20131   0.696   6.193  10.475  1.0900  1.0147 -0.5541
  177SOPE   C2320132   1.181   6.562  10.662 -0.7207  0.0691  0.6013
  177SOPE   H3R20133   1.289   6.537  10.670 -0.4876  0.6144 -0.6859
  177SOPE   H3S20134   1.168   6.664  10.705 -1.9842 -0.0611  0.5411
  177SOPE   C2420135   1.145   6.579  10.513 -0.0243  0.3901 -0.4364
  177SOPE   H4R20136   1.166   6.684  10.484  2.9856  0.5710  2.1293
  177SOPE   H4S20137   1.210   6.501  10.467  1.1507 -0.0970  1.9773
  177SOPE   C2520138   0.994   6.558  10.471  0.0639 -0.3888  0.1398
  177SOPE   H5R20139   0.967   6.452  10.488  0.5995 -0.1247  2.8826
  177SOPE   H5S20140   0.930   6.627  10.530  0.2347  1.3681 -1.6865
  177SOPE   C2620141   0.956   6.599  10.330  0.2376 -0.3900  0.4360
  177SOPE   H6R20142   0.850   6.576  10.310 -0.1998  1.2987  0.7460
  177SOPE   H6S20143   0.982   6.707  10.333 -0.2836 -0.2325 -0.5752
  177SOPE   C2720144   1.049   6.537  10.228 -0.2088  0.2951  0.5725
  177SOPE   H7R20145   1.149   6.559  10.273  0.0501 -0.0724  0.1776
  177SOPE   H7S20146   1.025   6.429  10.227  1.1297 -0.0035 -1.1059
  177SOPE   C2820147   1.025   6.593  10.088 -0.5482 -0.3865  0.2449
  177SOPE   H8R20148   1.049   6.701  10.093 -1.0035 -0.2952  0.5099
  177SOPE   H8S20149   1.105   6.545  10.027 -0.6747  0.2924 -0.4633
  177SOPE   C2920150   0.893   6.547  10.027 -0.0230  0.2174 -0.0427
  177SOPE   H9120151   0.857   6.452  10.070  0.9487  0.0113  0.3221
  177SOPE  C21020152   0.824   6.612   9.932 -0.8722  0.4624  0.0066
  177SOPE  H10120153   0.727   6.568   9.906 -1.0681  0.5786  0.5320
  177SOPE  C21120154   0.870   6.742   9.869 -0.0825 -0.0684 -0.2603
  177SOPE  H11R20155   0.974   6.733   9.829 -0.0714  2.8596 -1.0402
  177SOPE  H11S20156   0.872   6.834   9.932  1.3087 -0.2117 -0.0633
  177SOPE  C21220157   0.786   6.779   9.743 -0.9587  0.5981 -0.0675
  177SOPE  H12R20158   0.805   6.879   9.701  0.6764  0.4398  0.2588
  177SOPE  H12S20159   0.678   6.758   9.763 -0.8595 -0.8724 -0.9838
  177SOPE  C21320160   0.823   6.686   9.624  0.4113  0.1136  0.4345
  177SOPE  H13R20161   0.803   6.579   9.649 -0.5035  0.1422 -0.1608
  177SOPE  H13S20162   0.931   6.705   9.605 -0.0312  3.0999  0.6851
  177SOPE  C21420163   0.738   6.711   9.500  0.6985 -0.1152  0.4224
  177SOPE  H14R20164   0.632   6.737   9.522  0.4770 -0.9606  0.3847
  177SOPE  H14S20165   0.733   6.615   9.444 -1.4189 -0.0097  0.3936
  177SOPE  C21520166   0.792   6.811   9.400 -0.0939 -0.1153 -0.3436
  177SOPE  H15R20167   0.783   6.909   9.451 -2.1972 -1.0031  1.0862
  177SOPE  H15S20168   0.731   6.804   9.308  1.2166  1.6535 -1.3773
  177SOPE  C21620169   0.947   6.803   9.358 -0.0828  0.2541 -0.9387
  177SOPE  H16R20170   1.009   6.833   9.445 -0.9526 -0.4764 -0.0499
  177SOPE  H16S20171   0.965   6.870   9.271  0.0138 -0.2416 -1.3037
  177SOPE  C21720172   0.999   6.660   9.328 -0.8487  0.0808  0.2708
  177SOPE  H17R20173   0.914   6.602   9.285 -1.6535  0.8861  0.7658
  177SOPE  H17S20174   1.039   6.616   9.422 -1.2540 -2.7389 -0.8191
  177SOPE  C21820175   1.112   6.664   9.223  1.2344  0.4067  0.2187
  177SOPE  H18R20176   1.073   6.714   9.132  1.1128  2.8484  1.5638
  177SOPE  H18S20177   1.144   6.564   9.187  0.3165  0.4021 -0.5984
  177SOPE  H18T20178   1.201   6.721   9.258 -0.0645  2.0698  0.8665
  177SOPE   C3320179   0.750   6.108  10.270 -0.1700  0.2363 -0.4038
  177SOPE   H3X20180   0.668   6.035  10.284 -0.0239 -0.1817 -1.6457
  177SOPE   H3Y20181   0.839   6.053  10.232 -1.5068 -1.4605 -1.1474
  177SOPE   C3420182   0.712   6.218  10.167 -0.1339  0.4157 -0.0184
  177SOPE   H4X20183   0.762   6.191  10.071 -0.4853 -0.4712  0.0362
  177SOPE   H4Y20184   0.751   6.315  10.205  1.9093 -1.1777  2.1384
  177SOPE   C3520185   0.565   6.223  10.125  0.3731  0.0724  0.2656
  177SOPE   H5X20186   0.500   6.243  10.214 -0.0992  0.8571 -0.2463
  177SOPE   H5Y20187   0.536   6.120  10.097 -0.3485 -0.0119  1.2664
  177SOPE   C3620188   0.544   6.322  10.013 -0.0019 -0.2389  0.5366
  177SOPE   H6X20189   0.609   6.407  10.043 -0.0622 -0.2249  0.6238
  177SOPE   H6Y20190   0.440   6.361  10.007 -0.5116 -1.9312 -4.3422
  177SOPE   C3720191   0.589   6.258   9.873 -0.1756 -0.1755 -0.2882
  177SOPE   H7X20192   0.552   6.153   9.865  1.6317 -0.6873 -2.5335
  177SOPE   H7Y20193   0.699   6.254   9.883 -0.1855  1.6862  0.7733
  177SOPE   C3820194   0.553   6.340   9.757  0.2100 -0.4631  0.3549
  177SOPE   H8X20195   0.616   6.431   9.749  0.8110 -0.8334  0.8411
  177SOPE   H8Y20196   0.447   6.375   9.758  0.1291 -0.6752 -0.4654
  177SOPE   C3920197   0.566   6.263   9.624 -0.6060  0.2290  0.0008
  177SOPE   H9X20198   0.486   6.186   9.612 -1.4390  0.6899  2.4465
  177SOPE   H9Y20199   0.671   6.228   9.626 -0.9092 -0.6482  1.0366
  177SOPE  C31020200   0.540   6.356   9.504 -0.0766 -0.2679 -0.2044
  177SOPE  H10X20201   0.574   6.462   9.509 -1.1680  0.0453  1.0147
  177SOPE  H10Y20202   0.429   6.353   9.495 -0.0293 -3.5942 -0.1371
  177SOPE  C31120203   0.593   6.283   9.381 -0.1403  0.6381 -0.2446
  177SOPE  H11X20204   0.568   6.176   9.398  0.0775  0.7622  0.8933
  177SOPE  H11Y20205   0.704   6.286   9.385 -0.1628 -0.6912  2.7306
  177SOPE  C31220206   0.547   6.326   9.244 -0.3015  0.3521 -0.2796
  177SOPE  H12X20207   0.583   6.431   9.232  1.7876  0.0304  2.6817
  177SOPE  H12Y20208   0.437   6.335   9.236 -0.5075 -0.2102  1.8559
  177SOPE  C31320209   0.612   6.241   9.130 -0.6673 -0.1658  0.2209
  177SOPE  H13X20210   0.599   6.132   9.146 -1.6322 -0.6648 -3.4252
  177SOPE  H13Y20211   0.721   6.260   9.137 -0.7043  0.7504 -1.3798
  177SOPE  C31420212   0.568   6.288   8.991 -0.0035 -0.3821  0.1541
  177SOPE  H14X20213   0.556   6.399   8.994 -1.0919 -0.4908 -0.3589
  177SOPE  H14Y20214   0.466   6.248   8.978 -0.1830  0.4906 -1.2481
  177SOPE  C31520215   0.658   6.249   8.876  0.4650 -0.0063 -0.1791
  177SOPE  H15X20216   0.608   6.241   8.777 -0.0860  1.2026 -0.0170
  177SOPE  H15Y20217   0.705   6.151   8.898 -3.0238 -2.7027 -3.9141
  177SOPE  C31620218   0.769   6.354   8.851 -0.6277 -0.1214 -0.0579
  177SOPE  H16X20219   0.862   6.300   8.824 -2.4576 -2.7050 -1.3240
  177SOPE  H16Y20220   0.794   6.409   8.944  2.0254 -1.7845  0.2812
  177SOPE  C31720221   0.750   6.449   8.723 -1.0156 -0.0791 -0.2458
  177SOPE  H17X20222   0.762   6.383   8.635 -1.6750 -0.2898 -0.1788
  177SOPE  H17Y20223   0.833   6.523   8.717 -2.0422  1.3098  2.0179
  177SOPE  C31820224   0.618   6.514   8.705 -0.5404  0.3029 -0.5897
  177SOPE  H18X20225   0.536   6.439   8.711 -0.7209  0.5989  1.1007
  177SOPE  H18Y20226   0.620   6.565   8.607  1.7516  0.2702 -0.5790
  177SOPE  H18Z20227   0.596   6.592   8.782 -3.3150 -0.1353 -0.8720
  178SOPE     N20228   4.899   5.079  11.008 -0.1123  0.2668 -0.5070
  178SOPE   HN120229   4.975   5.044  11.071 -0.6242  2.0346  1.1205
  178SOPE   HN220230   4.840   5.139  11.069  0.6192 -2.0541  2.6454
  178SOPE   HN320231   4.843   4.999  10.972  1.4502 -0.2492 -1.8855
  178SOPE   C1220232   4.939   5.150  10.886 -0.3114 -0.6528 -0.1577
  178SOPE  H12A20233   5.009   5.096  10.819  0.7685 -0.5086  0.8447
  178SOPE  H12B20234   4.970   5.248  10.928 -2.4052 -0.4711  1.0624
  178SOPE   C1120235   4.820   5.188  10.791 -0.4602  1.0087 -0.8153
  178SOPE  H11A20236   4.854   5.256  10.710  0.0621  3.1066  1.1048
  178SOPE  H11B20237   4.753   5.259  10.844 -2.0992 -0.9156 -0.2829
  178SOPE     P20238   4.621   5.084  10.658  0.3951  0.2330 -0.3804
  178SOPE   O1320239   4.521   5.156  10.742  0.8588 -0.3364  0.6949
  178SOPE   O1420240   4.595   4.948  10.618  0.0634  0.7269 -0.2703
  178SOPE   O1220241   4.762   5.074  10.742  0.0977 -0.5681  0.2253
  178SOPE   O1120242   4.665   5.176  10.537 -0.3129  0.1585  0.2410
  178SOPE    C120243   4.592   5.185  10.416 -0.3964 -0.0264 -0.4195
  178SOPE    HA20244   4.591   5.290  10.381 -0.3739  0.2216  0.3088
  178SOPE    HB20245   4.484   5.157  10.423 -0.3378 -0.1256  0.0830
  178SOPE    C220246   4.675   5.102  10.302 -0.4343  0.5309 -0.3668
  178SOPE    HS20247   4.783   5.121  10.320 -0.9241  2.3584  0.7768
  178SOPE   O2120248   4.633   5.150  10.169  0.3045 -0.4717  0.2071
  178SOPE   C2120249   4.681   5.270  10.140  1.0076 -0.3823  0.3435
  178SOPE   O2220250   4.762   5.328  10.210  0.0350 -0.3925  0.3246
  178SOPE   C2220251   4.615   5.329  10.013  0.0128 -0.8822  0.2370
  178SOPE   H2R20252   4.586   5.436  10.026  1.0874 -0.8085  2.2637
  178SOPE   H2S20253   4.523   5.270   9.992 -0.9664  0.2617  1.2255
  178SOPE    C320254   4.663   4.947  10.305  0.4837 -0.2794  0.1443
  178SOPE    HX20255   4.557   4.917  10.291  0.9996 -1.1486 -2.2023
  178SOPE    HY20256   4.679   4.913  10.409  0.5787 -0.4175  0.0851
  178SOPE   O3120257   4.740   4.879  10.211 -0.2724  0.0140  0.0579
  178SOPE   C3120258   4.867   4.870  10.256  0.2680  0.4658  0.2368
  178SOPE   O3220259   4.914   4.917  10.361  0.5939  0.4902 -0.5687
  178SOPE   C3220260   4.955   4.790  10.155  0.3093  0.1882 -0.0547
  178SOPE   H2X20261   4.893   4.710  10.109 -0.6461  0.5612  0.5594
  178SOPE   H2Y20262   5.042   4.741  10.204 -1.3405 -1.1203  1.6392
  178SOPE   C2320263   4.712   5.327   9.893  0.0581  0.4493  0.7307
  178SOPE   H3R20264   4.717   5.223   9.855  0.2758  0.9082 -0.5172
  178SOPE   H3S20265   4.808   5.377   9.919 -0.0312  0.5433  0.8814
  178SOPE   C2420266   4.663   5.406   9.767  0.5950  0.3259  0.1336
  178SOPE   H4R20267   4.552   5.405   9.778  0.6146 -0.0516  0.3177
  178SOPE   H4S20268   4.709   5.507   9.763 -0.5025  0.7337 -2.5701
  178SOPE   C2520269   4.719   5.344   9.636 -0.1269  0.0008  0.4071
  178SOPE   H5R20270   4.827   5.327   9.655  0.3752  1.7769 -0.7518
  178SOPE   H5S20271   4.675   5.244   9.614 -1.5203  0.5820  0.4860
  178SOPE   C2620272   4.697   5.429   9.504  0.2318  0.1984 -0.8718
  178SOPE   H6R20273   4.591   5.438   9.473 -0.4387  2.3615  1.8496
  178SOPE   H6S20274   4.731   5.535   9.514 -0.0808  0.0745  1.6440
  178SOPE   C2720275   4.777   5.368   9.380 -0.1864  0.1137  0.2493
  178SOPE   H7R20276   4.802   5.451   9.310  1.5998 -1.1848 -0.6757
  178SOPE   H7S20277   4.872   5.327   9.418  0.7876  0.6178 -1.5822
  178SOPE   C2820278   4.699   5.243   9.315 -0.6304  0.1485 -0.6950
  178SOPE   H8R20279   4.684   5.181   9.405  0.5780 -0.2963 -0.7852
  178SOPE   H8S20280   4.601   5.279   9.277 -1.7181 -0.7980  1.1967
  178SOPE   C2920281   4.769   5.180   9.202 -0.2744 -0.1327  0.1732
  178SOPE   H9120282   4.849   5.112   9.237  0.0847 -0.3317 -1.0232
  178SOPE  C21020283   4.758   5.189   9.072 -0.6441  0.9829 -0.1639
  178SOPE  H10120284   4.828   5.149   8.997  0.1490  1.5357  0.2781
  178SOPE  C21120285   4.647   5.261   9.008 -0.6565 -0.3334 -0.3830
  178SOPE  H11R20286   4.669   5.299   8.906  1.5340 -0.7665 -0.0962
  178SOPE  H11S20287   4.629   5.359   9.059 -0.9895  0.2985 -1.6921
  178SOPE  C21220288   4.516   5.175   9.004 -0.4411  0.1270 -0.1907
  178SOPE  H12R20289   4.427   5.239   8.989 -1.5065  0.0173  4.6273
  178SOPE  H12S20290   4.507   5.130   9.106  0.1847 -0.7505 -0.5178
  178SOPE  C21320291   4.516   5.075   8.891 -0.3959  0.6609  0.4614
  178SOPE  H13R20292   4.429   5.006   8.892  1.2254 -1.4618 -0.2324
  178SOPE  H13S20293   4.614   5.021   8.889 -1.0001 -0.4871  1.0491
  178SOPE  C21420294   4.500   5.128   8.746 -0.3270  0.4656  0.1000
  178SOPE  H14R20295   4.573   5.210   8.727  0.3265 -0.5670 -2.0131
  178SOPE  H14S20296   4.398   5.164   8.723  0.6828  3.4799  0.0096
  178SOPE  C21520297   4.523   5.022   8.640  0.0573 -0.0065  0.3354
  178SOPE  H15R20298   4.473   5.046   8.544 -0.6407 -0.5173  0.5661
  178SOPE  H15S20299   4.476   4.926   8.671 -2.2282  0.2078 -2.2927
  178SOPE  C21620300   4.676   5.003   8.606  0.1923 -0.0625  0.2171
  178SOPE  H16R20301   4.728   4.954   8.691 -2.9649 -1.2168  1.5467
  178SOPE  H16S20302   4.727   5.100   8.585 -0.8454  0.0187 -2.0851
  178SOPE  C21720303   4.695   4.917   8.481  0.3594  0.5647  0.0173
  178SOPE  H17R20304   4.799   4.931   8.444  0.6350  2.0172  1.3117
  178SOPE  H17S20305   4.621   4.957   8.408 -0.7608 -1.7178 -0.1514
  178SOPE  C21820306   4.661   4.771   8.502 -0.2758  0.5302  0.4033
  178SOPE  H18R20307   4.676   4.713   8.408 -3.7302  0.3919 -0.1429
  178SOPE  H18S20308   4.553   4.753   8.524 -0.1530  0.2147  0.7598
  178SOPE  H18T20309   4.725   4.735   8.585  2.7179  0.2670 -1.8985
  178SOPE   C3320310   5.000   4.892  10.037 -0.9286  0.1467 -0.1861
  178SOPE   H3X20311   5.068   4.974  10.069 -1.1191 -0.5846  2.1865
  178SOPE   H3Y20312   4.914   4.940   9.987  0.9803  0.9953 -2.7588
  178SOPE   C3420313   5.070   4.815   9.916  1.0228 -0.1190 -0.1859
  178SOPE   H4X20314   5.012   4.726   9.885 -1.1561  0.8213  1.0390
  178SOPE   H4Y20315   5.168   4.778   9.954  0.5350 -1.3984 -0.1416
  178SOPE   C3520316   5.089   4.888   9.781 -0.5254 -0.5066  0.6160
  178SOPE   H5X20317   5.173   4.960   9.792 -1.5581  0.6611  1.0153
  178SOPE   H5Y20318   4.999   4.944   9.746 -1.2286 -1.8396  0.2270
  178SOPE   C3620319   5.134   4.800   9.668  0.0600  0.1434  0.1402
  178SOPE   H6X20320   5.103   4.846   9.572  1.7571 -1.1175 -1.0544
  178SOPE   H6Y20321   5.072   4.708   9.667 -0.3424  0.4120  0.4703
  178SOPE   C3720322   5.284   4.762   9.658  0.3425  0.3270  0.2071
  178SOPE   H7X20323   5.314   4.696   9.742  0.9212  0.5427  0.1721
  178SOPE   H7Y20324   5.331   4.861   9.677 -2.4914  1.0974  3.9134
  178SOPE   C3820325   5.340   4.715   9.523 -0.7109  0.3346 -0.1130
  178SOPE   H8X20326   5.324   4.606   9.509  2.2295 -0.1939  0.1423
  178SOPE   H8Y20327   5.451   4.716   9.528 -0.7091 -0.5674  0.2748
  178SOPE   C3920328   5.301   4.795   9.401 -0.8141  0.8263 -0.9036
  178SOPE   H9X20329   5.323   4.904   9.407  0.5475  0.5832 -1.4163
  178SOPE   H9Y20330   5.191   4.788   9.387 -1.0461 -1.6170  1.6122
  178SOPE  C31020331   5.369   4.727   9.277  0.2749 -0.5624 -0.5783
  178SOPE  H10X20332   5.339   4.620   9.275  0.0069 -0.4623 -1.6970
  178SOPE  H10Y20333   5.480   4.724   9.281  0.3076  0.6405 -0.2704
  178SOPE  C31120334   5.333   4.799   9.145  0.3986 -0.0628 -0.2895
  178SOPE  H11X20335   5.355   4.908   9.147  0.4666 -0.0753 -0.3700
  178SOPE  H11Y20336   5.224   4.778   9.136  0.5394 -1.4894  1.1729
  178SOPE  C31220337   5.404   4.731   9.023  0.5561 -0.1359 -0.3221
  178SOPE  H12X20338   5.397   4.621   9.030  0.6930 -0.1358 -0.1870
  178SOPE  H12Y20339   5.512   4.752   9.041  1.1074 -1.6886 -1.7497
  178SOPE  C31320340   5.359   4.791   8.888 -0.4237 -0.0670 -0.6441
  178SOPE  H13X20341   5.351   4.902   8.886 -3.2572 -0.2028  0.7039
  178SOPE  H13Y20342   5.259   4.745   8.880  0.2815 -1.8423  0.4294
  178SOPE  C31420343   5.445   4.736   8.763  0.3535 -0.2872  0.2398
  178SOPE  H14X20344   5.445   4.626   8.773 -0.9569 -0.3781 -0.6692
  178SOPE  H14Y20345   5.549   4.775   8.766  1.1296 -2.3675  4.3670
  178SOPE  C31520346   5.385   4.787   8.632 -0.0947  0.0585  0.6245
  178SOPE  H15X20347   5.355   4.893   8.643 -1.2860 -0.0849 -0.9523
  178SOPE  H15Y20348   5.286   4.736   8.625 -0.1238  0.4347 -2.6067
  178SOPE  C31620349   5.477   4.757   8.513 -0.3610  0.1691 -0.2001
  178SOPE  H16X20350   5.497   4.648   8.502 -0.0951 -0.0448  2.1604
  178SOPE  H16Y20351   5.574   4.810   8.517  0.4274 -1.2861  0.4299
  178SOPE  C31720352   5.395   4.798   8.386 -0.0908  0.5913 -0.4429
  178SOPE  H17X20353   5.312   4.727   8.367  1.9029 -2.0214  0.2387
  178SOPE  H17Y20354   5.473   4.780   8.308 -0.6874 -2.3802 -0.4325
  178SOPE  C31820355   5.353   4.942   8.389  0.4538  0.1829 -0.8847
  178SOPE  H18X20356   5.269   4.962   8.459 -0.7322 -1.2278 -1.8816
  178SOPE  H18Y20357   5.312   4.969   8.290  0.4776 -0.6197 -1.1204
  178SOPE  H18Z20358   5.435   5.011   8.418  0.4925 -0.9117  1.7709
  179SOPE     N20359   2.799   6.091   6.305  0.0440  0.0708  0.0074
  179SOPE   HN120360   2.738   6.007   6.297  2.9128 -2.0649 -0.3916
  179SOPE   HN220361   2.752   6.153   6.373 -0.9063  0.2986 -0.8485
  179SOPE   HN320362   2.812   6.129   6.209  1.1565  0.6794  0.3911
  179SOPE   C1220363   2.915   6.048   6.390 -0.2937 -0.0326 -0.2293
  179SOPE  H12A20364   2.979   6.135   6.415  0.0761 -0.1482 -0.7594
  179SOPE  H12B20365   2.970   5.969   6.334 -0.8831 -1.6861  1.5111
  179SOPE   C1120366   2.863   6.002   6.520  0.2534  0.4941 -0.2465
  179SOPE  H11A20367   2.955   5.976   6.577 -0.7520  2.6694  2.4723
  179SOPE  H11B20368   2.800   5.912   6.505  0.0142  0.9793 -2.2302
  179SOPE     P20369   2.697   6.094   6.703  0.0342  0.4398 -0.2435
  179SOPE   O1320370   2.685   5.952   6.726 -0.0931  0.2252  0.0496
  179SOPE   O1420371   2.574   6.166   6.675  0.0796  0.4613  0.0054
  179SOPE   O1220372   2.798   6.108   6.584 -0.3960 -0.8835  0.0558
  179SOPE   O1120373   2.778   6.162   6.820  0.1145 -0.4383  0.3468
  179SOPE    C120374   2.884   6.258   6.809  0.2050 -0.2391  0.0351
  179SOPE    HA20375   2.894   6.292   6.704  1.6022  1.1279  0.5982
  179SOPE    HB20376   2.979   6.209   6.838 -0.1496 -1.4492 -0.8201
  179SOPE    C220377   2.846   6.389   6.892 -0.0534 -0.0845  0.5162
  179SOPE    HS20378   2.939   6.450   6.880  0.6660 -1.7710 -3.1640
  179SOPE   O2120379   2.814   6.354   7.028 -0.0237  0.2923  0.0253
  179SOPE   C2120380   2.920   6.336   7.098 -0.5311  0.2141 -1.1590
  179SOPE   O2220381   3.037   6.347   7.063  0.5277  0.3532  0.1118
  179SOPE   C2220382   2.883   6.281   7.233  0.0695 -0.6559  0.0522
  179SOPE   H2R20383   2.859   6.172   7.225 -2.3145 -0.0832 -1.0367
  179SOPE   H2S20384   2.792   6.338   7.261  0.4650  1.1430 -2.1848
  179SOPE    C320385   2.726   6.456   6.824 -0.0176  0.2013 -0.1733
  179SOPE    HX20386   2.646   6.380   6.839  1.0987 -0.9820 -0.1010
  179SOPE    HY20387   2.752   6.479   6.719  1.4130 -0.6618 -0.0253
  179SOPE   O3120388   2.682   6.577   6.886 -0.0842 -0.2983  0.3751
  179SOPE   C3120389   2.761   6.687   6.851  0.2767 -0.1554 -0.2693
  179SOPE   O3220390   2.856   6.689   6.776 -0.2501  0.3199 -0.0588
  179SOPE   C3220391   2.705   6.814   6.912 -0.2090 -0.2393 -0.2231
  179SOPE   H2X20392   2.596   6.809   6.893 -0.3685  1.6082  0.1010
  179SOPE   H2Y20393   2.742   6.907   6.864 -0.0513 -0.4994 -0.6111
  179SOPE   C2320394   2.982   6.294   7.341 -0.5288  0.4281  0.5006
  179SOPE   H3R20395   2.996   6.402   7.358 -1.3083  0.6833 -0.4279
  179SOPE   H3S20396   3.077   6.248   7.304 -1.4868  0.3578 -1.9690
  179SOPE   C2420397   2.937   6.233   7.471 -0.3381  0.0777  0.3398
  179SOPE   H4R20398   2.834   6.268   7.494 -0.2112  1.8571 -1.5906
  179SOPE   H4S20399   2.934   6.122   7.468 -4.2534  0.0585  1.6237
  179SOPE   C2520400   3.041   6.268   7.586 -0.2133  0.1210 -0.5249
  179SOPE   H5R20401   3.141   6.223   7.564 -0.9527 -1.1049 -1.4531
  179SOPE   H5S20402   3.042   6.378   7.598 -0.1100 -0.1482  2.0225
  179SOPE   C2620403   3.001   6.213   7.731 -0.6428  0.1487  0.8477
  179SOPE   H6R20404   2.902   6.244   7.771 -1.2339 -1.9203  1.0523
  179SOPE   H6S20405   3.006   6.102   7.731 -1.3289  0.0937 -1.6625
  179SOPE   C2720406   3.097   6.258   7.839  0.5797 -0.0635  0.2420
  179SOPE   H7R20407   3.203   6.260   7.804 -0.8193  1.5382 -4.2843
  179SOPE   H7S20408   3.082   6.363   7.870  0.7692  0.2653 -0.7415
  179SOPE   C2820409   3.084   6.158   7.960 -0.3395  0.4574 -0.0098
  179SOPE   H8R20410   3.097   6.057   7.916 -1.4774  0.4223 -0.2786
  179SOPE   H8S20411   3.169   6.175   8.029 -0.8535 -2.5789  1.4805
  179SOPE   C2920412   2.951   6.182   8.037  0.7066 -0.1469 -0.0173
  179SOPE   H9120413   2.856   6.169   7.985  0.5153 -0.9312  0.5126
  179SOPE  C21020414   2.940   6.201   8.171 -0.7042  0.0946  0.1978
  179SOPE  H10120415   2.838   6.219   8.206 -0.5129 -3.7445  2.9792
  179SOPE  C21120416   3.061   6.209   8.270  0.4770 -0.5420  0.9854
  179SOPE  H11R20417   3.161   6.239   8.232  0.1332  0.1102  0.5940
  179SOPE  H11S20418   3.073   6.104   8.304 -3.5691 -1.7446 -0.9569
  179SOPE  C21220419   3.025   6.273   8.408 -0.1140  0.0131  0.0364
  179SOPE  H12R20420   2.943   6.216   8.457 -0.7301  1.5460  0.8188
  179SOPE  H12S20421   3.005   6.381   8.390  1.5301  0.3748  0.3290
  179SOPE  C21320422   3.143   6.257   8.495 -0.4636 -0.2238 -0.6507
  179SOPE  H13R20423   3.232   6.311   8.455 -1.3847  1.0101 -1.0825
  179SOPE  H13S20424   3.171   6.153   8.519  1.0996  0.8220  2.3038
  179SOPE  C21420425   3.105   6.315   8.628 -0.3232 -0.1258  0.5584
  179SOPE  H14R20426   3.011   6.263   8.658  0.9901 -2.1909  1.2252
  179SOPE  H14S20427   3.079   6.423   8.624  1.8875  0.4592  1.0644
  179SOPE  C21520428   3.220   6.303   8.726  0.4135  0.3326 -0.6096
  179SOPE  H15R20429   3.295   6.383   8.707  1.7261 -1.2815 -2.4555
  179SOPE  H15S20430   3.268   6.210   8.688  0.6417 -0.0185  0.5239
  179SOPE  C21620431   3.186   6.290   8.874  0.1760 -0.8028  0.4757
  179SOPE  H16R20432   3.100   6.220   8.881 -0.8504  0.7356  6.0249
  179SOPE  H16S20433   3.166   6.378   8.939  1.2483  0.4267 -0.8021
  179SOPE  C21720434   3.300   6.211   8.940 -0.3447 -0.5882 -0.2041
  179SOPE  H17R20435   3.266   6.229   9.044  0.4764 -1.3192  0.2025
  179SOPE  H17S20436   3.400   6.255   8.923 -0.2737 -0.7650 -0.2501
  179SOPE  C21820437   3.321   6.060   8.923 -0.4851 -0.1449 -0.4788
  179SOPE  H18R20438   3.353   6.035   8.819  1.7489  1.6087 -0.2610
  179SOPE  H18S20439   3.227   6.005   8.945 -1.1747  1.1621 -0.0521
  179SOPE  H18T20440   3.394   6.021   8.997 -0.0071  1.3218 -0.1642
  179SOPE   C3320441   2.764   6.819   7.055 -0.0133  0.2591 -0.2447
  179SOPE   H3X20442   2.775   6.925   7.084 -0.6215  0.3154 -0.2055
  179SOPE   H3Y20443   2.868   6.783   7.049 -0.2964 -0.4769 -0.9062
  179SOPE   C3420444   2.685   6.744   7.158 -0.3891  0.0104 -0.2708
  179SOPE   H4X20445   2.686   6.637   7.126 -0.4761  0.5971 -2.3387
  179SOPE   H4Y20446   2.582   6.783   7.161 -0.0768  0.8323 -0.1675
  179SOPE   C3520447   2.735   6.756   7.297  0.0784 -0.4133  0.4481
  179SOPE   H5X20448   2.739   6.861   7.334  1.3382 -0.7868  1.4153
  179SOPE   H5Y20449   2.837   6.713   7.304  0.4160  0.5142  1.3060
  179SOPE   C3620450   2.656   6.667   7.395  0.3792  0.0341 -0.8282
  179SOPE   H6X20451   2.649   6.565   7.351  2.5661 -1.8395  2.9432
  179SOPE   H6Y20452   2.551   6.703   7.406 -0.6128 -2.7212 -0.8199
  179SOPE   C3720453   2.735   6.662   7.529 -0.2103  0.1337 -0.3096
  179SOPE   H7X20454   2.726   6.749   7.598  0.0059  1.0973 -1.4897
  179SOPE   H7Y20455   2.842   6.639   7.512 -0.9126 -3.0243 -0.7728
  179SOPE   C3820456   2.680   6.548   7.610  0.4141  0.0421 -0.0939
  179SOPE   H8X20457   2.685   6.442   7.575 -0.9971 -0.3769  0.9313
  179SOPE   H8Y20458   2.573   6.572   7.621  0.0859 -0.1087 -2.6629
  179SOPE   C3920459   2.747   6.545   7.745  0.4467 -0.7501  0.4963
  179SOPE   H9X20460   2.739   6.645   7.792 -1.4510 -0.5598 -0.1771
  179SOPE   H9Y20461   2.854   6.517   7.739  0.3622 -1.5523  2.3991
  179SOPE  C31020462   2.672   6.453   7.839  0.3820  0.2151 -0.2398
  179SOPE  H10X20463   2.664   6.350   7.798 -1.3389  0.5450 -0.7669
  179SOPE  H10Y20464   2.567   6.486   7.856  1.1306  1.5687  1.9370
  179SOPE  C31120465   2.745   6.452   7.970  0.4117  0.5118  0.2183
  179SOPE  H11X20466   2.854   6.436   7.963  0.3995 -0.5921  2.2456
  179SOPE  H11Y20467   2.697   6.375   8.035 -0.8064  1.2750  0.2306
  179SOPE  C31220468   2.750   6.593   8.044  0.3295  0.4283  0.0702
  179SOPE  H12X20469   2.652   6.643   8.033 -0.8781 -2.2136 -1.6868
  179SOPE  H12Y20470   2.836   6.651   8.004 -0.0440  1.6575  1.0082
  179SOPE  C31320471   2.779   6.585   8.192 -0.1294 -0.5379  0.7256
  179SOPE  H13X20472   2.774   6.684   8.243  3.5253 -0.4478  1.0777
  179SOPE  H13Y20473   2.884   6.552   8.204  0.2194  0.1816 -0.3010
  179SOPE  C31420474   2.691   6.493   8.268  0.8021 -0.5731 -0.3081
  179SOPE  H14X20475   2.720   6.388   8.247  1.7865 -0.8176  2.1806
  179SOPE  H14Y20476   2.583   6.502   8.243  0.8266  1.2316  0.1169
  179SOPE  C31520477   2.701   6.508   8.426 -0.0909 -0.3222 -0.0032
  179SOPE  H15X20478   2.645   6.599   8.455  0.0931  0.9311 -3.3476
  179SOPE  H15Y20479   2.808   6.523   8.450  0.0418  0.0638 -0.8119
  179SOPE  C31620480   2.643   6.382   8.500 -0.6327  0.4240  0.3558
  179SOPE  H16X20481   2.701   6.302   8.448  1.2353  1.5455  0.6535
  179SOPE  H16Y20482   2.536   6.367   8.476 -0.2931  0.7931 -1.4755
  179SOPE  C31720483   2.661   6.386   8.653  0.0560  0.0226 -0.1069
  179SOPE  H17X20484   2.616   6.481   8.687 -2.0155 -0.8843 -0.2556
  179SOPE  H17Y20485   2.770   6.385   8.675  0.0873  0.8272 -0.2199
  179SOPE  C31820486   2.583   6.264   8.715  0.1886 -0.4536  1.2383
  179SOPE  H18X20487   2.595   6.268   8.826  1.6721 -0.8254  1.1112
  179SOPE  H18Y20488   2.620   6.167   8.678 -1.2448 -0.4523 -0.2393
  179SOPE  H18Z20489   2.474   6.266   8.693 -0.0088 -2.5621  1.9335
  180SOPE     N20490   2.191   6.239   6.316  0.2548  0.6632 -0.3933
  180SOPE   HN120491   2.126   6.317   6.295 -0.3502  0.4402  0.6181
  180SOPE   HN220492   2.127   6.157   6.324 -1.5862  2.1526  0.7124
  180SOPE   HN320493   2.242   6.255   6.405  2.0017  1.2433 -1.4876
  180SOPE   C1220494   2.281   6.242   6.193  0.3551 -1.0653 -0.5295
  180SOPE  H12A20495   2.224   6.276   6.104  0.5671  0.1428 -0.2137
  180SOPE  H12B20496   2.317   6.137   6.185 -2.9635 -2.4154  1.1200
  180SOPE   C1120497   2.397   6.334   6.216  0.2224  1.0504 -0.0910
  180SOPE  H11A20498   2.462   6.340   6.125  0.3359  2.4135  0.0641
  180SOPE  H11B20499   2.465   6.298   6.296  0.0148  0.4791 -0.1711
  180SOPE     P20500   2.437   6.584   6.278 -0.2393  0.4462 -0.5481
  180SOPE   O1320501   2.420   6.697   6.188  0.4306  0.8093  0.6198
  180SOPE   O1420502   2.579   6.546   6.295  0.3309  0.4817 -0.0839
  180SOPE   O1220503   2.350   6.464   6.239 -0.6219  0.3794 -0.0100
  180SOPE   O1120504   2.379   6.626   6.414 -0.5178 -0.2010 -0.1521
  180SOPE    C120505   2.239   6.635   6.431 -0.5109 -0.1737  0.0897
  180SOPE    HA20506   2.202   6.531   6.429  3.7243 -1.7930 -1.5902
  180SOPE    HB20507   2.186   6.686   6.348 -1.8713 -2.9350 -0.7789
  180SOPE    C220508   2.205   6.705   6.562 -0.0927  0.4237  0.6837
  180SOPE    HS20509   2.254   6.804   6.550 -1.7410  1.2655  0.7590
  180SOPE   O2120510   2.244   6.629   6.674 -0.0033  0.4740 -0.4086
  180SOPE   C2120511   2.260   6.698   6.787 -0.2154 -0.0057 -0.1991
  180SOPE   O2220512   2.252   6.820   6.799  0.5849 -0.3806  0.1075
  180SOPE   C2220513   2.292   6.593   6.894  0.9861 -0.7416  0.1331
  180SOPE   H2R20514   2.400   6.613   6.910  1.2508 -1.5840 -0.5041
  180SOPE   H2S20515   2.277   6.492   6.850  2.0565  0.2110 -2.5934
  180SOPE    C320516   2.052   6.739   6.565  0.2439  0.3556  0.4596
  180SOPE    HX20517   2.002   6.641   6.580 -0.6536  0.8872  0.9553
  180SOPE    HY20518   2.018   6.774   6.465  1.3254 -0.4608 -0.2123
  180SOPE   O3120519   2.030   6.833   6.667  0.5094  0.3528 -0.3308
  180SOPE   C3120520   1.935   6.813   6.756  0.7228 -0.0107 -0.0156
  180SOPE   O3220521   1.848   6.727   6.741 -0.0504 -0.4277 -0.3527
  180SOPE   C3220522   1.943   6.911   6.871  0.2894 -0.1356 -1.0469
  180SOPE   H2X20523   1.888   7.005   6.849 -1.3249  0.1954  3.9064
  180SOPE   H2Y20524   2.048   6.933   6.898 -0.5709  2.3138  0.3879
  180SOPE   C2320525   2.205   6.608   7.026 -0.5704  0.1090 -0.3279
  180SOPE   H3R20526   2.096   6.590   7.014 -0.3192 -2.1003  0.5805
  180SOPE   H3S20527   2.217   6.714   7.058  2.0422  0.2209 -1.5084
  180SOPE   C2420528   2.249   6.517   7.140 -0.1557 -0.5732  0.5842
  180SOPE   H4R20529   2.221   6.411   7.120 -0.4210 -1.1881  3.9507
  180SOPE   H4S20530   2.356   6.532   7.165 -0.6055  2.5302  0.7575
  180SOPE   C2520531   2.191   6.559   7.274 -0.1851 -0.3822  0.1023
  180SOPE   H5R20532   2.219   6.666   7.277 -1.3034  0.0540 -2.6622
  180SOPE   H5S20533   2.083   6.540   7.294 -0.0736 -0.5401  0.5466
  180SOPE   C2620534   2.267   6.493   7.395 -0.3891 -0.6843 -0.4643
  180SOPE   H6R20535   2.267   6.382   7.396  2.4962 -0.7380  0.6764
  180SOPE   H6S20536   2.371   6.525   7.370 -0.5138 -1.0275 -1.4547
  180SOPE   C2720537   2.226   6.568   7.522  0.6825 -0.1908  0.2422
  180SOPE   H7R20538   2.265   6.673   7.519 -2.4906  1.0338 -0.6719
  180SOPE   H7S20539   2.115   6.579   7.530  0.4822  0.7571 -2.8114
  180SOPE   C2820540   2.270   6.507   7.660  0.3330  0.6871  0.9716
  180SOPE   H8R20541   2.378   6.483   7.665  0.5782  1.2648 -1.3196
  180SOPE   H8S20542   2.257   6.583   7.740 -0.8608 -2.3189  3.7696
  180SOPE   C2920543   2.184   6.382   7.687 -0.3975 -0.2744 -0.3446
  180SOPE   H9120544   2.172   6.316   7.601 -3.0768  1.5733 -1.4554
  180SOPE  C21020545   2.142   6.337   7.807 -0.6253  0.2209 -0.1040
  180SOPE  H10120546   2.072   6.252   7.806  0.7343 -0.9292  0.4714
  180SOPE  C21120547   2.149   6.418   7.937 -0.1428  0.2994 -0.1430
  180SOPE  H11R20548   2.063   6.387   8.001  0.4659 -1.7183 -0.2816
  180SOPE  H11S20549   2.139   6.529   7.932  0.5817  0.2870 -2.1681
  180SOPE  C21220550   2.269   6.379   8.026 -0.1589 -0.3754 -0.6321
  180SOPE  H12R20551   2.272   6.439   8.119  2.8509 -0.8242 -0.3947
  180SOPE  H12S20552   2.362   6.412   7.975  2.1589  0.4822  3.8679
  180SOPE  C21320553   2.286   6.236   8.072  0.2324  0.5577  0.3171
  180SOPE  H13R20554   2.310   6.177   7.981  1.1302  0.3462  0.6857
  180SOPE  H13S20555   2.194   6.188   8.112  0.9152 -0.8412  0.2426
  180SOPE  C21420556   2.401   6.231   8.172 -0.7256 -0.2176  0.0296
  180SOPE  H14R20557   2.391   6.314   8.246  1.2146 -1.0748  1.2937
  180SOPE  H14S20558   2.491   6.258   8.113 -0.7447 -0.0035  0.0950
  180SOPE  C21520559   2.426   6.098   8.241  0.1430  0.3499 -0.1048
  180SOPE  H15R20560   2.425   6.031   8.152 -0.7626 -0.0603  0.2002
  180SOPE  H15S20561   2.346   6.065   8.311  0.4424 -0.9600 -0.3570
  180SOPE  C21620562   2.556   6.096   8.324 -0.2418  0.1914 -0.3504
  180SOPE  H16R20563   2.526   6.162   8.409  1.0627  0.7052 -0.2727
  180SOPE  H16S20564   2.628   6.156   8.263  1.1460  1.8696  2.8057
  180SOPE  C21720565   2.610   5.959   8.352 -0.4438 -0.4030 -0.2730
  180SOPE  H17R20566   2.579   5.893   8.268  0.3671  0.3788 -1.1939
  180SOPE  H17S20567   2.557   5.931   8.445  1.2529  1.7266  1.4177
  180SOPE  C21820568   2.756   5.949   8.375  0.2013 -0.2950  0.2558
  180SOPE  H18R20569   2.779   5.842   8.390 -0.1801 -0.4176 -0.0278
  180SOPE  H18S20570   2.788   6.010   8.462  2.5289 -3.6422  1.8280
  180SOPE  H18T20571   2.819   5.971   8.286  1.1312  1.9716  1.4177
  180SOPE   C3320572   1.863   6.860   7.003 -0.7308  0.1845  0.9416
  180SOPE   H3X20573   1.915   6.767   7.033  0.8715 -0.1463 -2.5665
  180SOPE   H3Y20574   1.759   6.840   6.972 -0.5151  0.5942 -0.0655
  180SOPE   C3420575   1.868   6.959   7.124 -1.0447  0.0069  1.0377
  180SOPE   H4X20576   1.796   7.042   7.105 -1.7618 -1.2326 -1.9351
  180SOPE   H4Y20577   1.966   7.009   7.108 -0.4264 -1.9625 -1.5725
  180SOPE   C3520578   1.849   6.893   7.257  0.5189 -0.3296 -0.2362
  180SOPE   H5X20579   1.902   6.796   7.258 -0.0963 -0.6739 -0.6448
  180SOPE   H5Y20580   1.739   6.875   7.261 -0.1654  3.4182 -0.0168
  180SOPE   C3620581   1.873   6.976   7.389 -0.0794 -0.4987  0.6231
  180SOPE   H6X20582   1.817   7.073   7.390  0.2042 -0.3280  3.5367
  180SOPE   H6Y20583   1.982   6.991   7.403  0.0903 -1.2785  0.0897
  180SOPE   C3720584   1.850   6.899   7.520  0.0038 -0.1403  0.4817
  180SOPE   H7X20585   1.907   6.804   7.513 -0.9206 -0.7227  0.7629
  180SOPE   H7Y20586   1.742   6.888   7.542 -0.6198  1.7567 -1.4471
  180SOPE   C3820587   1.889   6.992   7.635  0.3053 -0.6720 -0.0688
  180SOPE   H8X20588   1.859   7.091   7.595  1.8692 -0.6376 -1.1984
  180SOPE   H8Y20589   2.000   6.992   7.628  0.1326  0.7260 -3.5270
  180SOPE   C3920590   1.836   6.961   7.767 -0.0841  0.4221  0.8592
  180SOPE   H9X20591   1.726   6.952   7.764 -0.2283  2.1969  0.0055
  180SOPE   H9Y20592   1.858   7.043   7.839  1.2953  1.2266 -0.4284
  180SOPE  C31020593   1.886   6.830   7.822  0.6933 -0.5840 -0.4571
  180SOPE  H10X20594   1.991   6.850   7.854  0.0269  1.3829  0.6100
  180SOPE  H10Y20595   1.898   6.743   7.755 -1.6127 -0.6115 -0.8538
  180SOPE  C31120596   1.818   6.799   7.959 -0.5162  0.1166  0.4437
  180SOPE  H11X20597   1.851   6.707   8.013  1.6196 -0.0224 -1.0381
  180SOPE  H11Y20598   1.712   6.808   7.928 -0.0919 -1.0182 -1.3819
  180SOPE  C31220599   1.843   6.902   8.074 -0.9330 -0.4264 -0.3001
  180SOPE  H12X20600   1.790   6.998   8.053 -1.1979 -0.3429  0.7199
  180SOPE  H12Y20601   1.953   6.917   8.071 -0.9156 -0.4640  0.0820
  180SOPE  C31320602   1.788   6.843   8.205  0.4614  1.1915  0.6300
  180SOPE  H13X20603   1.855   6.760   8.234  1.7589  1.8951 -0.2874
  180SOPE  H13Y20604   1.688   6.799   8.185  1.4493 -0.0808 -1.6981
  180SOPE  C31420605   1.781   6.940   8.323  0.6029 -0.2597  0.1590
  180SOPE  H14X20606   1.713   6.894   8.398  0.0145 -0.0909 -0.2658
  180SOPE  H14Y20607   1.723   7.025   8.282  1.6233 -1.1750 -3.3196
  180SOPE  C31520608   1.912   6.967   8.392  0.2749  0.1207 -0.5482
  180SOPE  H15X20609   2.001   6.984   8.328  0.3553  2.2534  0.0740
  180SOPE  H15Y20610   1.928   6.869   8.440  2.0526  0.1565 -1.0374
  180SOPE  C31620611   1.914   7.086   8.488 -0.6631 -0.1997 -0.4488
  180SOPE  H16X20612   1.882   7.177   8.434 -0.3154  0.3603  0.2780
  180SOPE  H16Y20613   2.023   7.090   8.512  0.0272 -3.0937 -2.7470
  180SOPE  C31720614   1.829   7.068   8.617  0.3687  0.3177  0.7204
  180SOPE  H17X20615   1.727   7.044   8.582  0.0756 -0.0054  1.7776
  180SOPE  H17Y20616   1.827   7.162   8.678 -1.4780  1.1383 -0.5713
  180SOPE  C31820617   1.889   6.953   8.702 -0.1416 -0.4506 -0.6734
  180SOPE  H18X20618   1.842   6.943   8.802  1.1517 -1.0464 -0.1056
  180SOPE  H18Y20619   1.996   6.980   8.713  0.0895 -2.6242  3.4055
  180SOPE  H18Z20620   1.876   6.859   8.643 -0.0310 -1.3236  0.6596
  181SOPE     N20621   1.772   3.762   5.778  0.1430 -0.2533 -0.3874
  181SOPE   HN120622   1.736   3.831   5.847  0.6997  2.1859 -2.4619
  181SOPE   HN220623   1.789   3.809   5.687  2.2416 -1.4576 -0.6384
  181SOPE   HN320624   1.688   3.705   5.752  0.1130 -0.6648  0.5941
  181SOPE   C1220625   1.895   3.679   5.795  0.2543  0.5028  0.1750
  181SOPE  H12A20626   1.979   3.737   5.752 -1.0057  2.8198  0.7425
  181SOPE  H12B20627   1.890   3.582   5.740 -3.1527  1.2629 -0.9591
  181SOPE   C1120628   1.917   3.647   5.949  0.3812  0.0917 -0.5204
  181SOPE  H11A20629   1.992   3.567   5.966 -0.9449 -0.6214  2.3288
  181SOPE  H11B20630   1.820   3.616   5.993  0.4737 -2.8673 -2.3434
  181SOPE     P20631   2.093   3.796   6.073 -0.2845  0.5002 -0.0698
  181SOPE   O1320632   2.093   3.937   6.123 -0.0271  0.1047  0.0642
  181SOPE   O1420633   2.190   3.765   5.969 -0.2584 -0.3319  0.4237
  181SOPE   O1220634   1.947   3.764   6.027 -0.1757 -0.6241 -0.0852
  181SOPE   O1120635   2.123   3.693   6.192 -0.9907  0.0135  0.6888
  181SOPE    C120636   2.040   3.596   6.251 -0.0098 -0.4088  0.2275
  181SOPE    HA20637   2.092   3.498   6.241  1.3823  0.4951 -1.5958
  181SOPE    HB20638   1.935   3.596   6.214  0.0231  1.1808  0.1330
  181SOPE    C220639   2.052   3.611   6.402  0.3239 -0.9041  0.3789
  181SOPE    HS20640   1.989   3.534   6.452 -0.7295 -0.6040 -0.4647
  181SOPE   O2120641   2.021   3.745   6.446 -0.4351  0.1790 -0.4021
  181SOPE   C2120642   1.894   3.762   6.466  0.0212 -0.5643 -0.3721
  181SOPE   O2220643   1.810   3.674   6.444 -0.2096  0.0673 -0.0367
  181SOPE   C2220644   1.858   3.906   6.493 -0.0917  0.5637 -0.1621
  181SOPE   H2R20645   1.748   3.919   6.502 -0.1090 -1.7593  3.9049
  181SOPE   H2S20646   1.899   3.962   6.406 -0.9610 -2.0709 -2.3762
  181SOPE    C320647   2.192   3.572   6.455 -0.1039  0.5002 -0.1010
  181SOPE    HX20648   2.264   3.649   6.419  0.5643  0.4925  1.1742
  181SOPE    HY20649   2.222   3.468   6.430  1.9969  1.0768 -0.1126
  181SOPE   O3120650   2.171   3.576   6.606 -0.4148 -0.1965 -0.5152
  181SOPE   C3120651   2.280   3.550   6.682  0.4318  0.0193  0.2382
  181SOPE   O3220652   2.385   3.503   6.642 -0.3293  0.9785  0.0666
  181SOPE   C3220653   2.247   3.575   6.832 -0.1640  0.4107 -0.7056
  181SOPE   H2X20654   2.257   3.470   6.867 -0.3069  0.1127 -1.5642
  181SOPE   H2Y20655   2.148   3.619   6.853  0.5067  0.7612  1.8760
  181SOPE   C2320656   1.921   3.970   6.623  0.4225 -0.2178 -0.2579
  181SOPE   H3R20657   1.900   4.079   6.625 -1.2025 -0.5355  1.3711
  181SOPE   H3S20658   2.030   3.949   6.619  0.2811 -1.0598  0.1930
  181SOPE   C2420659   1.859   3.902   6.749 -0.6234  0.3618  0.3280
  181SOPE   H4R20660   1.749   3.903   6.738 -0.6648  0.3436  0.7214
  181SOPE   H4S20661   1.897   3.798   6.757  1.7315  1.1763  0.0745
  181SOPE   C2520662   1.890   3.980   6.874 -0.3105 -0.6388  0.5006
  181SOPE   H5R20663   2.000   3.995   6.876 -0.3167 -0.3052 -1.1476
  181SOPE   H5S20664   1.856   4.086   6.876 -0.2735 -0.5233 -2.4143
  181SOPE   C2620665   1.847   3.898   6.995  0.0277  0.3900 -0.2140
  181SOPE   H6R20666   1.735   3.902   6.995 -0.0794 -1.9522 -0.6292
  181SOPE   H6S20667   1.876   3.792   6.983 -1.5423 -0.1236  0.2906
  181SOPE   C2720668   1.899   3.952   7.131 -0.4616 -0.0275 -0.2170
  181SOPE   H7R20669   2.010   3.952   7.127 -0.4115  1.4973  0.6943
  181SOPE   H7S20670   1.859   4.056   7.135  0.4228  0.3240 -0.3600
  181SOPE   C2820671   1.878   3.855   7.248 -0.2837 -0.0807 -0.2704
  181SOPE   H8R20672   1.923   3.760   7.211  1.2490  0.3365  0.4749
  181SOPE   H8S20673   1.936   3.877   7.340  1.5552 -0.7389 -1.2434
  181SOPE   C2920674   1.728   3.843   7.275  0.6484  0.2768 -0.2043
  181SOPE   H9120675   1.671   3.772   7.212 -0.2301  2.7419 -2.2735
  181SOPE  C21020676   1.663   3.902   7.379  0.3028  0.6298 -0.2864
  181SOPE  H10120677   1.556   3.879   7.390 -0.1029  0.5909 -3.8072
  181SOPE  C21120678   1.712   3.995   7.481 -0.1443 -0.5681 -0.0207
  181SOPE  H11R20679   1.635   4.074   7.494  1.3476  1.2417 -1.8872
  181SOPE  H11S20680   1.798   4.058   7.451 -0.9949  0.8224  0.4235
  181SOPE  C21220681   1.736   3.935   7.624  0.5548  0.3535  0.6367
  181SOPE  H12R20682   1.830   3.877   7.624  0.1308 -0.3502 -1.0134
  181SOPE  H12S20683   1.654   3.871   7.664  0.4391  1.8569  2.9372
  181SOPE  C21320684   1.744   4.051   7.726 -0.5769  0.1947 -0.6475
  181SOPE  H13R20685   1.649   4.108   7.718 -2.5732 -3.0691 -0.7192
  181SOPE  H13S20686   1.830   4.120   7.708 -0.3947  0.1887  0.1400
  181SOPE  C21420687   1.764   3.990   7.862  0.5171 -0.4465  0.4702
  181SOPE  H14R20688   1.859   3.932   7.863  0.4091 -0.6425 -0.1641
  181SOPE  H14S20689   1.673   3.930   7.882 -1.1741  1.4024 -1.3461
  181SOPE  C21520690   1.786   4.089   7.977  0.0760  0.1001  0.1764
  181SOPE  H15R20691   1.701   4.156   7.998  0.7915  1.0831 -0.0482
  181SOPE  H15S20692   1.872   4.155   7.957 -1.8915  2.8319  0.5441
  181SOPE  C21620693   1.821   4.020   8.113  0.3632  0.5600  0.1840
  181SOPE  H16R20694   1.833   4.102   8.187 -0.5750  0.4807  0.4335
  181SOPE  H16S20695   1.908   3.952   8.109  0.9430  1.3730 -1.0191
  181SOPE  C21720696   1.696   3.931   8.167 -0.3461  0.2761  0.4497
  181SOPE  H17R20697   1.682   3.838   8.106 -1.2707  2.0173 -2.0883
  181SOPE  H17S20698   1.599   3.982   8.149 -0.0496  0.7987  0.3187
  181SOPE  C21820699   1.694   3.900   8.316 -0.0013  0.0379 -0.2345
  181SOPE  H18R20700   1.714   3.996   8.368  0.9498  0.1418 -0.7840
  181SOPE  H18S20701   1.773   3.824   8.333  1.2064  1.4566  0.6685
  181SOPE  H18T20702   1.596   3.863   8.353  0.9327 -1.1719  1.0384
  181SOPE   C3320703   2.351   3.669   6.903  0.2996  0.5901  0.3168
  181SOPE   H3X20704   2.450   3.650   6.857  0.6920  3.5336 -0.1605
  181SOPE   H3Y20705   2.356   3.642   7.011 -2.5147  1.4630  0.6975
  181SOPE   C3420706   2.297   3.813   6.897  0.2634  0.4651 -0.4935
  181SOPE   H4X20707   2.208   3.825   6.962  1.1249  2.2831  0.3849
  181SOPE   H4Y20708   2.283   3.842   6.790 -0.3528  1.2176 -0.2135
  181SOPE   C3520709   2.397   3.913   6.967 -0.6310  0.1759  0.0367
  181SOPE   H5X20710   2.370   4.018   6.944 -0.5040  0.2362  0.1655
  181SOPE   H5Y20711   2.497   3.892   6.925 -1.1218  1.2837 -1.7645
  181SOPE   C3620712   2.418   3.904   7.116  0.0871 -0.1438 -0.1950
  181SOPE   H6X20713   2.448   3.798   7.132 -0.7727 -0.7146 -2.3307
  181SOPE   H6Y20714   2.320   3.923   7.163  0.2253 -0.4399  0.2154
  181SOPE   C3720715   2.528   4.005   7.160 -0.8688 -0.7436  0.0456
  181SOPE   H7X20716   2.495   4.110   7.141  2.5151  0.0101 -2.2778
  181SOPE   H7Y20717   2.622   3.988   7.102 -1.9053  0.6078 -2.1090
  181SOPE   C3820718   2.563   3.991   7.310 -0.2452  0.1857  0.5839
  181SOPE   H8X20719   2.647   3.920   7.327 -0.7294 -0.0644  1.9536
  181SOPE   H8Y20720   2.470   3.957   7.360  0.5534 -3.5728 -0.3079
  181SOPE   C3920721   2.606   4.130   7.358 -0.0243 -1.0321  0.5565
  181SOPE   H9X20722   2.549   4.220   7.327  3.2936  0.4419 -1.6452
  181SOPE   H9Y20723   2.707   4.158   7.320 -0.2781  0.4845  0.9844
  181SOPE  C31020724   2.600   4.137   7.514  0.2062  0.2207 -0.2954
  181SOPE  H10X20725   2.675   4.076   7.568  0.5469  0.6904 -0.2372
  181SOPE  H10Y20726   2.508   4.088   7.554  1.3335 -2.3284 -0.6800
  181SOPE  C31120727   2.613   4.279   7.574 -0.0983 -0.5518  0.9185
  181SOPE  H11X20728   2.537   4.344   7.527  1.2469  1.5504  1.5813
  181SOPE  H11Y20729   2.716   4.313   7.547  0.1346 -0.6832  1.6371
  181SOPE  C31220730   2.605   4.282   7.724  0.2366  0.6189 -0.4804
  181SOPE  H12X20731   2.680   4.221   7.778 -0.4364 -2.0643 -2.4919
  181SOPE  H12Y20732   2.502   4.251   7.752  1.3769 -2.0501  0.8547
  181SOPE  C31320733   2.618   4.423   7.783  0.2965  0.0271 -0.1493
  181SOPE  H13X20734   2.551   4.490   7.725  1.7236  3.2766  1.8172
  181SOPE  H13Y20735   2.720   4.464   7.772  0.2979  1.0407  3.2837
  181SOPE  C31420736   2.571   4.425   7.935 -0.2718 -0.2673 -1.0676
  181SOPE  H14X20737   2.477   4.366   7.946 -0.6664  0.7858  1.6202
  181SOPE  H14Y20738   2.541   4.529   7.963 -1.1805 -0.4966 -1.1548
  181SOPE  C31520739   2.666   4.359   8.031 -0.3877  0.5380  0.6903
  181SOPE  H15X20740   2.762   4.406   8.002 -0.1082  0.0833  0.8717
  181SOPE  H15Y20741   2.670   4.249   8.016  1.8685  0.8536 -1.2252
  181SOPE  C31620742   2.644   4.414   8.176  0.0182  0.8869 -0.0779
  181SOPE  H16X20743   2.551   4.372   8.219  0.4485  0.5694  0.5583
  181SOPE  H16Y20744   2.639   4.524   8.166  0.7682  0.9354 -0.0061
  181SOPE  C31720745   2.758   4.374   8.270  0.5701  0.3816  0.0264
  181SOPE  H17X20746   2.762   4.265   8.286  2.1765  0.5905  1.2086
  181SOPE  H17Y20747   2.743   4.425   8.368 -1.8381 -0.6306  0.2105
  181SOPE  C31820748   2.896   4.423   8.217  0.3332 -0.2105  0.7823
  181SOPE  H18X20749   2.955   4.342   8.168 -0.3663 -0.5689  0.5200
  181SOPE  H18Y20750   2.963   4.448   8.302 -0.9927  0.4986  1.6269
  181SOPE  H18Z20751   2.890   4.511   8.149  1.5976 -2.7183 -2.7727
  182SOPE     N20752   1.636   5.673   6.297  0.0830 -0.0799  0.5308
  182SOPE   HN120753   1.722   5.615   6.300 -0.1635 -0.5544 -1.0136
  182SOPE   HN220754   1.563   5.605   6.325 -0.7456  0.2509 -0.7479
  182SOPE   HN320755   1.624   5.702   6.198  0.4856 -4.2383 -0.8182
  182SOPE   C1220756   1.655   5.790   6.386 -0.2208 -1.3552 -0.1340
  182SOPE  H12A20757   1.694   5.760   6.485 -1.1930 -3.8073 -0.4744
  182SOPE  H12B20758   1.557   5.843   6.396  0.8688  0.8836 -0.9792
  182SOPE   C1120759   1.764   5.881   6.326  0.3235 -0.3545 -0.1189
  182SOPE  H11A20760   1.779   5.964   6.397  0.6382  0.0805 -0.6879
  182SOPE  H11B20761   1.724   5.922   6.231 -0.2521  1.5050  0.9093
  182SOPE     P20762   2.017   5.882   6.253  0.1961  0.4749  0.0476
  182SOPE   O1320763   2.046   6.000   6.337 -0.1439 -1.0565 -0.3163
  182SOPE   O1420764   2.014   5.911   6.106 -0.4145 -0.0622  0.5766
  182SOPE   O1220765   1.883   5.812   6.295 -0.4202 -0.3939  0.9631
  182SOPE   O1120766   2.123   5.771   6.270  0.1235  0.2087 -0.8801
  182SOPE    C120767   2.100   5.645   6.333 -0.6200 -0.3345  0.1399
  182SOPE    HA20768   2.142   5.567   6.266 -0.6213  0.1385 -0.4153
  182SOPE    HB20769   1.993   5.624   6.350 -0.5838  0.2920  1.1868
  182SOPE    C220770   2.159   5.640   6.480 -0.2010 -0.0245 -0.2051
  182SOPE    HS20771   2.133   5.545   6.532  1.5406 -0.4936 -0.1482
  182SOPE   O2120772   2.112   5.752   6.558  0.4922 -0.4337  0.1905
  182SOPE   C2120773   1.985   5.739   6.607 -0.9904 -0.6912 -0.1096
  182SOPE   O2220774   1.916   5.638   6.599 -0.3419 -0.0487 -0.2184
  182SOPE   C2220775   1.926   5.862   6.682 -0.2311  0.5100 -0.4266
  182SOPE   H2R20776   1.881   5.925   6.602 -1.6112 -1.7956 -1.5170
  182SOPE   H2S20777   2.015   5.910   6.728 -0.3511  1.0165 -0.7267
  182SOPE    C320778   2.309   5.652   6.463 -0.1875  0.1568  0.2584
  182SOPE    HX20779   2.335   5.749   6.416 -0.6149 -0.3309 -1.0007
  182SOPE    HY20780   2.342   5.569   6.397 -1.1277 -0.6109  0.7466
  182SOPE   O3120781   2.373   5.635   6.591 -0.3209  0.3278  0.0764
  182SOPE   C3120782   2.387   5.738   6.680  0.0670  0.4502  0.5163
  182SOPE   O3220783   2.351   5.853   6.663  0.2713  0.5058  0.7689
  182SOPE   C3220784   2.444   5.673   6.805 -0.1384 -0.1941 -1.0708
  182SOPE   H2X20785   2.498   5.758   6.852 -2.9432  1.9456 -1.5623
  182SOPE   H2Y20786   2.506   5.583   6.786  2.3126  0.7788  1.9974
  182SOPE   C2320787   1.810   5.841   6.783 -0.1989  0.4765 -0.1809
  182SOPE   H3R20788   1.731   5.776   6.738  1.4182  0.6574 -3.4554
  182SOPE   H3S20789   1.758   5.937   6.800 -1.4706 -0.4621  1.2840
  182SOPE   C2420790   1.849   5.759   6.910 -0.3230  0.0674  0.4384
  182SOPE   H4R20791   1.759   5.758   6.975  1.1790  0.3767  2.5794
  182SOPE   H4S20792   1.879   5.660   6.870 -0.3681  0.6361 -1.0482
  182SOPE   C2520793   1.960   5.820   6.994  0.6953  0.7121 -0.6477
  182SOPE   H5R20794   2.056   5.838   6.940  1.4381  1.8706  0.9716
  182SOPE   H5S20795   1.939   5.921   7.036 -1.2079  0.4524 -0.9377
  182SOPE   C2620796   1.981   5.736   7.122 -0.1509  0.5507  0.1324
  182SOPE   H6R20797   1.986   5.629   7.092  1.3157  0.4337  0.7568
  182SOPE   H6S20798   2.082   5.758   7.162 -0.0089 -0.2716  0.2334
  182SOPE   C2720799   1.875   5.735   7.230  0.4579  0.2452  0.2011
  182SOPE   H7R20800   1.877   5.831   7.286  1.1806 -0.8955  2.1403
  182SOPE   H7S20801   1.778   5.707   7.184  2.2111 -3.1492 -1.6539
  182SOPE   C2820802   1.894   5.618   7.333 -0.0814 -0.5337  0.2320
  182SOPE   H8R20803   1.897   5.518   7.285 -1.9616 -1.3046  1.6830
  182SOPE   H8S20804   2.001   5.620   7.364 -0.5334 -1.3811  1.8748
  182SOPE   C2920805   1.797   5.598   7.452 -0.1009  0.2275 -0.0646
  182SOPE   H9120806   1.713   5.669   7.451 -0.2461  0.1776  2.8723
  182SOPE  C21020807   1.816   5.526   7.561 -0.0315  0.9825  0.3113
  182SOPE  H10120808   1.740   5.532   7.640 -1.4614 -1.6616 -0.8146
  182SOPE  C21120809   1.945   5.453   7.596 -0.3794 -0.4340  0.7440
  182SOPE  H11R20810   2.029   5.501   7.540  0.0599  0.6242  2.2701
  182SOPE  H11S20811   1.926   5.349   7.562  0.2210 -0.4214  0.3678
  182SOPE  C21220812   1.993   5.459   7.743 -0.1440 -0.0252 -0.0507
  182SOPE  H12R20813   1.923   5.400   7.805 -2.2003  3.8033  1.4464
  182SOPE  H12S20814   2.007   5.561   7.785  2.2439 -0.1231 -0.5367
  182SOPE  C21320815   2.121   5.377   7.766 -0.0799  0.4152  1.3485
  182SOPE  H13R20816   2.203   5.405   7.697  2.6557 -1.3447  3.7404
  182SOPE  H13S20817   2.106   5.272   7.732 -1.9031  1.1394 -0.1117
  182SOPE  C21420818   2.177   5.377   7.908  0.3881  0.1754  0.3198
  182SOPE  H14R20819   2.094   5.337   7.970  1.4870  0.1075  1.7720
  182SOPE  H14S20820   2.207   5.482   7.924 -0.6077  0.5371 -0.1423
  182SOPE  C21520821   2.293   5.278   7.913 -0.4921 -0.3560 -0.6629
  182SOPE  H15R20822   2.364   5.314   7.836  0.0782 -0.4172 -0.1685
  182SOPE  H15S20823   2.259   5.180   7.874 -0.4252 -0.1304 -1.2862
  182SOPE  C21620824   2.359   5.260   8.050 -0.0409  0.2206 -0.5662
  182SOPE  H16R20825   2.383   5.361   8.092 -0.6605 -0.7659  2.2892
  182SOPE  H16S20826   2.452   5.200   8.040  1.6159  2.4073  0.9553
  182SOPE  C21720827   2.267   5.192   8.151 -0.1774  0.4669 -0.1092
  182SOPE  H17R20828   2.235   5.092   8.115  1.6824 -0.5286  0.9285
  182SOPE  H17S20829   2.178   5.256   8.166  0.2812  1.1508 -0.2948
  182SOPE  C21820830   2.337   5.187   8.286  0.1636 -0.2654  0.0971
  182SOPE  H18R20831   2.270   5.164   8.371 -0.3304  0.6407 -0.0370
  182SOPE  H18S20832   2.384   5.287   8.300  1.6063 -1.2320  2.5701
  182SOPE  H18T20833   2.412   5.107   8.269 -2.1197 -2.4996  0.2719
  182SOPE   C3320834   2.341   5.622   6.906 -0.9733  0.0941 -0.1522
  182SOPE   H3X20835   2.251   5.577   6.858  1.0677 -0.3015 -3.7992
  182SOPE   H3Y20836   2.303   5.709   6.964  0.0845  0.7879 -0.4949
  182SOPE   C3420837   2.402   5.524   7.005  0.2463 -0.8529 -0.3448
  182SOPE   H4X20838   2.493   5.575   7.043  0.2743 -1.7896  0.9001
  182SOPE   H4Y20839   2.431   5.434   6.946  0.4186  0.4170 -2.2391
  182SOPE   C3520840   2.326   5.490   7.132  0.1647 -0.0895  0.8165
  182SOPE   H5X20841   2.230   5.444   7.100  0.8697  0.3823 -2.1180
  182SOPE   H5Y20842   2.299   5.583   7.187 -0.1117 -0.5488  1.4617
  182SOPE   C3620843   2.407   5.408   7.240  0.5558 -0.1045  0.6092
  182SOPE   H6X20844   2.475   5.476   7.295  1.6803 -1.1909  0.5842
  182SOPE   H6Y20845   2.469   5.330   7.190 -0.6727 -1.0615  0.5378
  182SOPE   C3720846   2.316   5.340   7.341  0.5615 -0.3944  0.3564
  182SOPE   H7X20847   2.249   5.261   7.302 -0.9931  1.5002 -0.8625
  182SOPE   H7Y20848   2.258   5.415   7.398  1.5733  1.9779 -1.6957
  182SOPE   C3820849   2.402   5.271   7.451  0.7821 -0.3514 -0.7139
  182SOPE   H8X20850   2.336   5.266   7.540  0.4380  0.6872 -0.8963
  182SOPE   H8Y20851   2.476   5.351   7.473 -0.0731  0.1089  0.5609
  182SOPE   C3920852   2.453   5.135   7.413  0.2148  0.0147  0.2717
  182SOPE   H9X20853   2.478   5.138   7.305  0.3716  1.8162  0.3445
  182SOPE   H9Y20854   2.366   5.069   7.434  0.1228 -0.7370 -2.2229
  182SOPE  C31020855   2.568   5.079   7.495  0.2697  0.6705 -0.1202
  182SOPE  H10X20856   2.655   5.147   7.482  0.0936  0.5209 -2.2326
  182SOPE  H10Y20857   2.602   4.982   7.451 -0.6356 -0.7491  2.2146
  182SOPE  C31120858   2.534   5.058   7.649  0.1120 -0.4122 -0.6746
  182SOPE  H11X20859   2.445   4.991   7.651 -0.1243 -0.0504  1.1472
  182SOPE  H11Y20860   2.524   5.156   7.701 -0.0449 -1.8854  2.1219
  182SOPE  C31220861   2.653   4.996   7.720  0.8560 -1.5539  0.1883
  182SOPE  H12X20862   2.738   5.063   7.692 -0.0520 -0.0726  0.9540
  182SOPE  H12Y20863   2.674   4.900   7.668 -0.1450 -2.3768  1.2940
  182SOPE  C31320864   2.630   4.984   7.873  0.4163 -0.4205  0.1615
  182SOPE  H13X20865   2.555   4.903   7.885 -0.7291  0.4338 -1.0453
  182SOPE  H13Y20866   2.588   5.077   7.917 -0.9499 -1.0624  0.2628
  182SOPE  C31420867   2.761   4.962   7.952  0.4312 -0.3632  0.5723
  182SOPE  H14X20868   2.821   5.055   7.943 -0.1970 -0.1559 -1.6163
  182SOPE  H14Y20869   2.821   4.884   7.901  0.3740 -0.7656  1.1098
  182SOPE  C31520870   2.748   4.918   8.099  0.3662  0.6194  0.9550
  182SOPE  H15X20871   2.833   4.853   8.126  2.3315  1.6830 -2.2894
  182SOPE  H15Y20872   2.659   4.852   8.103  0.4238  0.7054  4.6186
  182SOPE  C31620873   2.727   5.034   8.190 -0.4391  0.2203  0.6354
  182SOPE  H16X20874   2.627   5.079   8.177  0.0268  0.6674 -1.7054
  182SOPE  H16Y20875   2.813   5.104   8.178 -0.4513  0.1469  0.1024
  182SOPE  C31720876   2.729   4.983   8.341 -0.2287  0.3038  0.2172
  182SOPE  H17X20877   2.819   4.918   8.345 -0.4355 -0.1354 -1.8127
  182SOPE  H17Y20878   2.639   4.919   8.354  0.9926 -1.3663  0.5738
  182SOPE  C31820879   2.727   5.091   8.457  0.2288  0.6171  0.4581
  182SOPE  H18X20880   2.750   5.048   8.557  1.1381  0.8729  0.3677
  182SOPE  H18Y20881   2.626   5.136   8.450  0.2429  0.1775 -3.9596
  182SOPE  H18Z20882   2.804   5.167   8.432 -0.8523  1.4091 -0.5163
  183SOPE     N20883   4.965   2.544   6.318 -0.4767  0.0718  0.1075
  183SOPE   HN120884   4.963   2.532   6.215  1.6078 -0.6795  0.1260
  183SOPE   HN220885   4.983   2.646   6.327 -0.7854  0.4814 -3.3316
  183SOPE   HN320886   5.044   2.500   6.370 -0.9053  0.3577  1.0193
  183SOPE   C1220887   4.835   2.527   6.390  0.6080 -0.2726  0.6133
  183SOPE  H12A20888   4.867   2.468   6.478  1.2180 -0.4021  0.3014
  183SOPE  H12B20889   4.762   2.474   6.326  2.5191  0.5041 -2.2867
  183SOPE   C1120890   4.784   2.665   6.433 -0.3017 -0.7691 -0.0610
  183SOPE  H11A20891   4.851   2.727   6.496  0.7100 -2.0582  0.1638
  183SOPE  H11B20892   4.695   2.645   6.497 -0.6085 -2.9138 -1.1190
  183SOPE     P20893   4.812   2.874   6.253 -0.0083  0.1829  0.3552
  183SOPE   O1320894   4.725   2.950   6.159 -0.3606  0.0080  0.6793
  183SOPE   O1420895   4.942   2.826   6.200 -0.0341  0.0595  0.4834
  183SOPE   O1220896   4.743   2.741   6.318  0.0418 -0.3695  0.6865
  183SOPE   O1120897   4.842   2.966   6.380  0.0655  0.4524 -0.1981
  183SOPE    C120898   4.720   3.012   6.445  0.1124  0.3646 -0.1314
  183SOPE    HA20899   4.652   2.927   6.470  0.9047  0.1174  1.2761
  183SOPE    HB20900   4.657   3.076   6.380 -0.5435 -0.1626 -0.0327
  183SOPE    C220901   4.767   3.089   6.567  0.2748 -0.5410 -0.4118
  183SOPE    HS20902   4.817   3.182   6.532 -0.0821 -0.2493 -0.1593
  183SOPE   O2120903   4.854   3.002   6.641 -0.4462  0.5033 -0.6014
  183SOPE   C2120904   4.944   3.066   6.719  0.2599 -0.0264 -0.2404
  183SOPE   O2220905   4.979   3.181   6.719  0.0907 -0.0749  0.0939
  183SOPE   C2220906   5.007   2.957   6.808  0.7053  0.7464 -0.1138
  183SOPE   H2R20907   5.067   2.890   6.742  0.8123  0.0740  0.6692
  183SOPE   H2S20908   4.924   2.913   6.866  1.2880  1.5053  1.3342
  183SOPE    C320909   4.648   3.121   6.658 -0.2136  0.2365  0.6229
  183SOPE    HX20910   4.604   3.028   6.701 -1.0087  0.4238  0.2205
  183SOPE    HY20911   4.560   3.159   6.602  1.1734  0.3654 -1.5122
  183SOPE   O3120912   4.686   3.199   6.776 -0.3352  0.1060  0.3376
  183SOPE   C3120913   4.687   3.328   6.750 -0.6791  0.3016  0.5900
  183SOPE   O3220914   4.671   3.383   6.641 -0.0746  0.0615  0.3676
  183SOPE   C3220915   4.720   3.398   6.876 -0.6902  0.1412 -0.0330
  183SOPE   H2X20916   4.677   3.500   6.870 -2.6719 -0.7755 -2.4195
  183SOPE   H2Y20917   4.831   3.401   6.874 -0.6995  0.1750 -1.4606
  183SOPE   C2320918   5.109   3.013   6.911  0.0041 -0.4932 -0.4357
  183SOPE   H3R20919   5.197   3.062   6.864  0.5928 -2.5518 -1.5217
  183SOPE   H3S20920   5.156   2.929   6.966 -1.1936 -0.5210  0.5679
  183SOPE   C2420921   5.045   3.098   7.022  0.0552 -0.3940  0.3069
  183SOPE   H4R20922   5.002   3.188   6.974 -1.8350 -1.1626  0.5028
  183SOPE   H4S20923   4.970   3.036   7.076  1.2516  0.1875  2.6979
  183SOPE   C2520924   5.127   3.155   7.138 -0.4611  0.0408  0.0472
  183SOPE   H5R20925   5.154   3.069   7.203  1.0325  0.2594 -0.2561
  183SOPE   H5S20926   5.225   3.190   7.098 -0.5955  0.2814 -0.0697
  183SOPE   C2620927   5.056   3.262   7.222 -0.1368 -0.2007 -0.4196
  183SOPE   H6R20928   5.052   3.360   7.169 -0.0217 -0.3924 -0.7843
  183SOPE   H6S20929   4.948   3.238   7.238 -0.2148 -0.3523 -1.1488
  183SOPE   C2720930   5.133   3.273   7.349  0.2995 -0.0981 -0.0118
  183SOPE   H7R20931   5.147   3.171   7.391 -3.2944 -1.1841 -1.2212
  183SOPE   H7S20932   5.231   3.317   7.322  0.2302  0.3529  0.4444
  183SOPE   C2820933   5.069   3.352   7.461  0.2356 -0.0381  0.2140
  183SOPE   H8R20934   5.156   3.386   7.521  0.2408 -1.1619  0.8603
  183SOPE   H8S20935   5.020   3.440   7.413  1.9019  2.2914  2.6099
  183SOPE   C2920936   4.958   3.277   7.534 -0.2219 -0.2274  0.0614
  183SOPE   H9120937   4.899   3.209   7.471  0.7293 -1.0884  0.0900
  183SOPE  C21020938   4.923   3.298   7.665  0.5037  0.0158  0.0876
  183SOPE  H10120939   4.830   3.260   7.710 -0.2537  0.6124 -0.9615
  183SOPE  C21120940   4.995   3.393   7.760  0.4614  0.1183 -0.2459
  183SOPE  H11R20941   4.924   3.476   7.780 -1.2883 -1.6039  0.8567
  183SOPE  H11S20942   5.084   3.440   7.713  0.5094 -0.1681 -0.4434
  183SOPE  C21220943   5.041   3.334   7.892  0.3576 -0.4551  0.0300
  183SOPE  H12R20944   5.112   3.401   7.944 -1.1272 -0.2913  1.8678
  183SOPE  H12S20945   5.114   3.252   7.877  0.7303  0.0669 -1.0679
  183SOPE  C21320946   4.923   3.278   7.981 -1.0174  0.5439  0.9658
  183SOPE  H13R20947   4.897   3.171   7.966 -0.6704  0.6670 -0.5349
  183SOPE  H13S20948   4.833   3.337   7.952 -1.3588 -0.5199 -0.1332
  183SOPE  C21420949   4.965   3.300   8.130 -0.7968 -0.2190  0.3315
  183SOPE  H14R20950   5.015   3.400   8.128 -0.3716 -0.4248  0.8090
  183SOPE  H14S20951   5.036   3.219   8.159  0.8019  0.7495 -0.7546
  183SOPE  C21520952   4.858   3.292   8.233 -0.3413  0.4481  0.5505
  183SOPE  H15R20953   4.789   3.212   8.201  0.8506 -0.5287  0.3869
  183SOPE  H15S20954   4.788   3.379   8.233 -1.0865 -0.1443  0.3287
  183SOPE  C21620955   4.910   3.278   8.380  0.2285 -0.5455 -0.1130
  183SOPE  H16R20956   4.969   3.368   8.407 -0.5712  0.5025 -1.7397
  183SOPE  H16S20957   4.976   3.189   8.375 -0.6213 -1.0592 -2.7199
  183SOPE  C21720958   4.790   3.267   8.469  0.7233  0.5723  0.0964
  183SOPE  H17R20959   4.743   3.168   8.448 -1.6101  1.2345  1.9346
  183SOPE  H17S20960   4.711   3.344   8.459  0.8485  0.5396 -1.2534
  183SOPE  C21820961   4.836   3.265   8.613 -0.2839  0.2275  0.2005
  183SOPE  H18R20962   4.873   3.368   8.633 -1.9269  1.0898 -1.1067
  183SOPE  H18S20963   4.926   3.201   8.622  1.2840  2.0383 -2.0229
  183SOPE  H18T20964   4.751   3.237   8.679  0.0387 -1.1312  0.0598
  183SOPE   C3320965   4.681   3.329   7.004 -0.5452 -0.6645  0.3099
  183SOPE   H3X20966   4.766   3.264   7.034  0.8659 -0.3659 -2.7961
  183SOPE   H3Y20967   4.593   3.266   6.981 -0.0949 -1.0502 -0.4158
  183SOPE   C3420968   4.652   3.446   7.107  0.0865 -0.2392  0.4303
  183SOPE   H4X20969   4.578   3.513   7.058  1.4821 -0.5598 -2.1884
  183SOPE   H4Y20970   4.745   3.504   7.122  0.9690 -1.3901 -0.4981
  183SOPE   C3520971   4.615   3.374   7.235 -0.3053  0.2287  0.0493
  183SOPE   H5X20972   4.696   3.308   7.271 -0.9994 -0.9927 -0.6014
  183SOPE   H5Y20973   4.523   3.312   7.223 -0.7733  0.4319  2.3574
  183SOPE   C3620974   4.593   3.460   7.359 -0.5721 -0.0091 -0.0106
  183SOPE   H6X20975   4.537   3.555   7.338 -5.5841 -2.4925  1.2857
  183SOPE   H6Y20976   4.689   3.500   7.396 -0.2919 -0.2184 -0.5100
  183SOPE   C3720977   4.517   3.402   7.480 -0.4684  0.5093  0.4843
  183SOPE   H7X20978   4.531   3.292   7.486  3.7423  1.0188  0.9278
  183SOPE   H7Y20979   4.410   3.422   7.457 -0.6015 -0.5200  0.1408
  183SOPE   C3820980   4.558   3.471   7.614 -0.2537 -0.5932  0.7663
  183SOPE   H8X20981   4.515   3.573   7.611  0.5471 -0.2620  0.4960
  183SOPE   H8Y20982   4.669   3.467   7.617 -0.0512  1.4205 -2.1636
  183SOPE   C3920983   4.502   3.418   7.747  0.4013  0.3867 -0.1735
  183SOPE   H9X20984   4.541   3.314   7.757  0.5151  0.0088 -3.8700
  183SOPE   H9Y20985   4.391   3.421   7.746  0.2951 -0.8136  2.9010
  183SOPE  C31020986   4.556   3.506   7.867  0.3132  1.0119  0.5032
  183SOPE  H10X20987   4.486   3.591   7.881 -0.9858 -0.0673  0.7493
  183SOPE  H10Y20988   4.655   3.539   7.830 -0.2252 -0.2664 -2.2147
  183SOPE  C31120989   4.567   3.428   7.995 -0.6505 -0.2425 -0.4414
  183SOPE  H11X20990   4.622   3.486   8.072  0.7219 -0.9863 -0.8388
  183SOPE  H11Y20991   4.630   3.338   7.979 -1.5508 -1.0004  0.1296
  183SOPE  C31220992   4.437   3.388   8.074 -0.1977  0.6212 -0.8700
  183SOPE  H12X20993   4.375   3.325   8.007  0.4175  1.7593 -2.5303
  183SOPE  H12Y20994   4.386   3.484   8.094  1.7221  0.9258  3.0708
  183SOPE  C31320995   4.460   3.316   8.209 -0.5983 -0.8010 -0.6678
  183SOPE  H13X20996   4.510   3.377   8.287 -1.3813 -0.5506 -0.3484
  183SOPE  H13Y20997   4.533   3.234   8.193  0.9200  0.4795 -0.4076
  183SOPE  C31420998   4.337   3.261   8.286  0.5996 -0.3313  0.0867
  183SOPE  H14X20999   4.293   3.170   8.240 -2.1422 -0.3829  2.6517
  183SOPE  H14Y21000   4.259   3.339   8.275  1.2816  0.0107 -2.6807
  183SOPE  C31521001   4.359   3.240   8.435 -0.2780  0.6445  0.0733
  183SOPE  H15X21002   4.368   3.343   8.474 -3.0276  0.4709  1.2378
  183SOPE  H15Y21003   4.457   3.196   8.464 -1.0601  0.5357  2.5850
  183SOPE  C31621004   4.242   3.164   8.502 -0.0035  0.9073  0.2497
  183SOPE  H16X21005   4.248   3.057   8.475  1.0299  0.2035  3.0607
  183SOPE  H16Y21006   4.143   3.196   8.463 -0.2511 -1.9923 -1.6641
  183SOPE  C31721007   4.228   3.179   8.653 -0.0711  0.0687 -0.2071
  183SOPE  H17X21008   4.215   3.288   8.674 -0.2220 -0.0874  0.5063
  183SOPE  H17Y21009   4.322   3.139   8.696 -0.0780 -0.5112 -0.7339
  183SOPE  C31821010   4.104   3.105   8.706  0.1597 -0.2389 -0.0603
  183SOPE  H18X21011   4.011   3.152   8.669  0.5887  0.1558 -0.6433
  183SOPE  H18Y21012   4.111   3.127   8.815  0.7696  0.6313 -0.2673
  183SOPE  H18Z21013   4.120   2.997   8.688  0.9725 -0.4304  1.6458
  184SOPE     N21014   4.669   3.400   6.367  0.4385 -0.0238  0.5239
  184SOPE   HN121015   4.689   3.329   6.294  1.9202  0.9320 -0.0155
  184SOPE   HN221016   4.665   3.371   6.467 -1.6909 -2.2193 -0.1309
  184SOPE   HN321017   4.573   3.431   6.344  0.9105  0.2999 -1.0424
  184SOPE   C1221018   4.746   3.528   6.345  0.1792 -0.3050 -0.0736
  184SOPE  H12A21019   4.850   3.494   6.325 -0.0534 -1.8049  1.1377
  184SOPE  H12B21020   4.728   3.591   6.434  0.1470  2.0915 -1.7238
  184SOPE   C1121021   4.694   3.604   6.234  0.4905 -0.3304 -0.1437
  184SOPE  H11A21022   4.690   3.549   6.137 -0.7864  2.0910 -1.5401
  184SOPE  H11B21023   4.755   3.695   6.216  0.5148 -0.3309 -0.0626
  184SOPE     P21024   4.480   3.732   6.147  0.1181  0.1406 -0.0245
  184SOPE   O1321025   4.369   3.643   6.112  0.0356 -0.5432 -0.0632
  184SOPE   O1421026   4.565   3.774   6.033 -0.3461 -0.3919 -0.0969
  184SOPE   O1221027   4.562   3.652   6.263 -0.5708 -0.2462 -0.7780
  184SOPE   O1121028   4.424   3.861   6.222 -0.0679 -0.7337 -0.5416
  184SOPE    C121029   4.503   3.932   6.315 -0.0828 -0.1840 -0.0158
  184SOPE    HA21030   4.532   4.033   6.276 -0.6701  1.6917  4.1605
  184SOPE    HB21031   4.593   3.874   6.344  0.5043 -0.2290 -1.8780
  184SOPE    C221032   4.425   3.962   6.445 -0.2387 -0.5736  0.8768
  184SOPE    HS21033   4.493   4.002   6.523  0.3808  2.5273 -1.1610
  184SOPE   O2121034   4.365   3.851   6.498 -0.1246 -0.1200  0.8435
  184SOPE   C2121035   4.447   3.760   6.554 -0.3517  0.2243  0.6016
  184SOPE   O2221036   4.561   3.786   6.585  0.2032  0.1826  0.5382
  184SOPE   C2221037   4.376   3.629   6.570 -0.8562 -0.3039 -0.2112
  184SOPE   H2R21038   4.426   3.560   6.499 -0.1076  1.6859 -1.6777
  184SOPE   H2S21039   4.271   3.643   6.539 -1.8606 -2.3000  2.2021
  184SOPE    C321040   4.320   4.073   6.409  0.0105 -0.9604  0.0517
  184SOPE    HX21041   4.240   4.030   6.345 -0.2854 -0.9798  0.4301
  184SOPE    HY21042   4.368   4.161   6.362  0.6790 -1.3004  0.0979
  184SOPE   O3121043   4.269   4.128   6.532  0.7582 -0.5832 -1.4275
  184SOPE   C3121044   4.136   4.132   6.544 -0.3015 -0.9671 -0.2132
  184SOPE   O3221045   4.061   4.106   6.455 -0.0167 -0.3665 -0.5677
  184SOPE   C3221046   4.103   4.163   6.686 -0.0077  0.9160  0.9943
  184SOPE   H2X21047   4.113   4.273   6.694  0.6830  0.8983  0.4301
  184SOPE   H2Y21048   4.184   4.111   6.741 -3.5503 -3.3386  2.4864
  184SOPE   C2321049   4.369   3.590   6.722 -0.5168  0.0655  0.7171
  184SOPE   H3R21050   4.469   3.593   6.771 -0.1389 -0.9338  0.0182
  184SOPE   H3S21051   4.325   3.489   6.737  1.5184 -1.0219 -0.3646
  184SOPE   C2421052   4.284   3.687   6.805 -0.2965  0.4262 -0.2563
  184SOPE   H4R21053   4.329   3.787   6.785  0.3836  0.3058  0.6759
  184SOPE   H4S21054   4.180   3.685   6.765 -0.0227 -0.9296 -0.9240
  184SOPE   C2521055   4.272   3.652   6.956 -0.4310 -0.0900  0.5117
  184SOPE   H5R21056   4.243   3.545   6.953  2.0543 -0.7522 -0.7927
  184SOPE   H5S21057   4.377   3.651   6.990 -0.4002  3.2385  0.7029
  184SOPE   C2621058   4.181   3.752   7.029 -0.5858  0.3443 -0.4622
  184SOPE   H6R21059   4.235   3.843   7.062 -1.6345  0.6381  0.4753
  184SOPE   H6S21060   4.100   3.777   6.959 -0.5950  0.1397 -0.5236
  184SOPE   C2721061   4.115   3.694   7.152 -0.2616 -0.0949 -0.4138
  184SOPE   H7R21062   4.028   3.759   7.172  0.0967 -0.2637  1.8015
  184SOPE   H7S21063   4.077   3.596   7.115  0.6629 -0.7225  0.2666
  184SOPE   C2821064   4.222   3.673   7.262  0.1699 -0.1816 -0.3955
  184SOPE   H8R21065   4.309   3.618   7.220  1.4321  0.8342  0.8172
  184SOPE   H8S21066   4.255   3.771   7.302 -1.5691  0.7966 -1.3178
  184SOPE   C2921067   4.144   3.600   7.378 -0.9395 -0.3360  0.6712
  184SOPE   H9121068   4.096   3.506   7.346  2.0918 -1.4930 -0.6427
  184SOPE  C21021069   4.121   3.639   7.507 -0.8324 -0.0204  0.4196
  184SOPE  H10121070   4.065   3.570   7.572 -0.7764  1.0410  1.6250
  184SOPE  C21121071   4.165   3.762   7.573 -0.7372  0.4983 -0.0715
  184SOPE  H11R21072   4.083   3.837   7.579  0.2369  1.7325 -1.9171
  184SOPE  H11S21073   4.246   3.814   7.519  1.2709 -2.0176  0.4066
  184SOPE  C21221074   4.223   3.749   7.716  0.2818 -0.1216 -0.0193
  184SOPE  H12R21075   4.237   3.851   7.757  0.6226 -0.5222  0.8699
  184SOPE  H12S21076   4.324   3.705   7.707  0.2728  0.2350 -2.1805
  184SOPE  C21321077   4.145   3.655   7.810  0.0797  0.0480  0.5954
  184SOPE  H13R21078   4.187   3.555   7.788  0.9142  0.2281  1.3525
  184SOPE  H13S21079   4.035   3.668   7.794 -0.0408 -1.5738  0.0683
  184SOPE  C21421080   4.182   3.662   7.966 -0.9373 -0.0877  0.6457
  184SOPE  H14R21081   4.291   3.683   7.976 -0.3714 -2.7383  0.4452
  184SOPE  H14S21082   4.164   3.563   8.012 -2.1358 -1.2439 -2.2301
  184SOPE  C21521083   4.089   3.769   8.037 -0.0617  0.1298 -0.2264
  184SOPE  H15R21084   3.986   3.737   8.010 -0.2875  0.4998  0.1957
  184SOPE  H15S21085   4.109   3.876   8.016  0.2381  0.4150  1.4513
  184SOPE  C21621086   4.090   3.756   8.192  0.1043 -0.1494 -0.2871
  184SOPE  H16R21087   4.149   3.841   8.232 -4.8273  1.7614  3.4222
  184SOPE  H16S21088   4.126   3.657   8.228  0.0662 -0.1954 -0.3727
  184SOPE  C21721089   3.955   3.787   8.261 -0.3055  0.0456  0.1447
  184SOPE  H17R21090   3.882   3.711   8.226 -1.2660 -0.2272  2.6066
  184SOPE  H17S21091   3.916   3.886   8.227 -2.3487 -0.9267 -0.3929
  184SOPE  C21821092   3.961   3.794   8.413 -0.0273 -0.0447  0.1628
  184SOPE  H18R21093   3.961   3.696   8.466 -0.8336  0.4223  1.0319
  184SOPE  H18S21094   3.881   3.860   8.451 -2.9756 -3.2957 -0.0602
  184SOPE  H18T21095   4.051   3.843   8.455 -1.8719  3.4190  0.2379
  184SOPE   C3321096   3.961   4.117   6.722 -0.2949 -0.0672  0.1949
  184SOPE   H3X21097   3.906   4.057   6.646 -0.9694  0.7748  0.0084
  184SOPE   H3Y21098   3.903   4.211   6.736  0.8127  0.7272 -0.4629
  184SOPE   C3421099   3.952   4.046   6.859  0.4091  0.4443  0.1483
  184SOPE   H4X21100   4.006   4.118   6.924 -0.4851  1.9927 -0.7519
  184SOPE   H4Y21101   3.992   3.944   6.850 -1.1519 -0.3219  1.5547
  184SOPE   C3521102   3.803   4.053   6.914 -0.8403 -0.0046 -0.3491
  184SOPE   H5X21103   3.729   4.018   6.839  0.6639 -0.9255 -1.4432
  184SOPE   H5Y21104   3.790   4.159   6.945  0.8204 -0.2465  1.3008
  184SOPE   C3621105   3.783   3.960   7.035  0.3198  0.5248 -0.2009
  184SOPE   H6X21106   3.808   3.855   7.008  0.8120  0.8485 -1.0466
  184SOPE   H6Y21107   3.679   3.950   7.073  1.2566 -2.3433  1.7125
  184SOPE   C3721108   3.866   4.000   7.152 -0.1784  0.2786 -0.0349
  184SOPE   H7X21109   3.858   4.111   7.149  1.3820  0.3475 -3.3893
  184SOPE   H7Y21110   3.968   3.960   7.138 -0.4711 -0.4122 -0.1953
  184SOPE   C3821111   3.805   3.942   7.284  0.2480 -0.1825 -0.5117
  184SOPE   H8X21112   3.825   3.833   7.287 -0.5286 -0.3206 -0.2926
  184SOPE   H8Y21113   3.695   3.931   7.277  0.1561  0.8414 -0.7016
  184SOPE   C3921114   3.846   4.004   7.417 -0.2358 -0.1303 -0.7816
  184SOPE   H9X21115   3.799   4.105   7.418 -0.1283 -0.0889  0.3340
  184SOPE   H9Y21116   3.958   4.006   7.417 -0.1686 -2.5026 -0.8183
  184SOPE  C31021117   3.786   3.920   7.529  0.0089 -0.1446  0.8641
  184SOPE  H10X21118   3.832   3.818   7.521  0.6455  0.1946  0.1086
  184SOPE  H10Y21119   3.676   3.918   7.513  0.0775 -4.0894  0.2736
  184SOPE  C31121120   3.820   3.969   7.672 -0.7846  0.1413  0.3961
  184SOPE  H11X21121   3.927   3.951   7.694 -0.2781  1.9699 -0.4501
  184SOPE  H11Y21122   3.766   3.899   7.739 -0.9454 -0.4075 -0.2983
  184SOPE  C31221123   3.790   4.111   7.690  0.7718 -0.9502  0.2399
  184SOPE  H12X21124   3.685   4.139   7.664  0.6111 -0.5794  1.2792
  184SOPE  H12Y21125   3.855   4.175   7.627  1.7526 -2.5368 -0.3891
  184SOPE  C31321126   3.807   4.139   7.843 -0.2768  0.4183 -0.4308
  184SOPE  H13X21127   3.803   4.248   7.860 -1.2457  0.2459  0.5172
  184SOPE  H13Y21128   3.899   4.099   7.892 -0.5660 -1.6473 -1.5171
  184SOPE  C31421129   3.689   4.092   7.922  0.2813 -0.0798 -0.5488
  184SOPE  H14X21130   3.656   3.987   7.906  0.5941 -0.2387 -0.1556
  184SOPE  H14Y21131   3.600   4.141   7.876  0.0512  0.0119 -0.0129
  184SOPE  C31521132   3.704   4.123   8.072  0.3693 -0.0778  0.3294
  184SOPE  H15X21133   3.732   4.229   8.083 -1.0685  0.2906  0.5984
  184SOPE  H15Y21134   3.787   4.066   8.119  2.2510  2.1872 -0.1690
  184SOPE  C31621135   3.580   4.101   8.155  0.2417 -0.3028  0.0157
  184SOPE  H16X21136   3.546   3.996   8.148 -3.2391  0.7638  0.2130
  184SOPE  H16Y21137   3.502   4.166   8.110  0.8360  1.0227  0.8758
  184SOPE  C31721138   3.585   4.144   8.303  0.6976  0.0036  0.0085
  184SOPE  H17X21139   3.628   4.246   8.315 -0.3777  0.9525 -3.3925
  184SOPE  H17Y21140   3.650   4.074   8.359  1.5331  1.2144  0.5599
  184SOPE  C31821141   3.440   4.151   8.357  0.7325  0.0180 -1.1141
  184SOPE  H18X21142   3.440   4.173   8.466  1.2107 -0.5157 -1.0056
  184SOPE  H18Y21143   3.396   4.050   8.369  0.8771  0.1599  0.8155
  184SOPE  H18Z21144   3.367   4.217   8.306 -0.2355  1.8651  2.4357
  185SAPI   C1221145   1.186   0.741  11.009 -0.4904  0.1041 -0.2790
  185SAPI    H221146   1.131   0.780  11.098  0.4514 -0.1573  0.4178
  185SAPI    O221147   1.202   0.851  10.920  0.3225  0.3015  0.3415
  185SAPI   HO221148   1.118   0.855  10.873  0.1522 -0.4762  0.5791
  185SAPI   C1321149   1.320   0.681  11.055 -0.2336  0.2418  0.1867
  185SAPI    H321150   1.293   0.606  11.132 -1.1746 -0.2034 -0.5679
  185SAPI    O321151   1.402   0.781  11.120  0.9357  0.2140 -0.0467
  185SAPI   HO321152   1.359   0.798  11.205  2.5337 -0.7143  0.9625
  185SAPI   C1421153   1.395   0.620  10.946  0.1418  0.5014 -0.0166
  185SAPI    H421154   1.410   0.698  10.868 -2.3304  1.6378  0.6046
  185SAPI    O421155   1.525   0.572  10.987  0.7001 -0.0539  0.2478
  185SAPI   HO421156   1.578   0.566  10.908 -2.0625  0.1036 -1.7005
  185SAPI   C1521157   1.310   0.506  10.885 -0.5909 -0.3242  0.3248
  185SAPI    H521158   1.276   0.443  10.970  0.1925 -2.4469 -0.9106
  185SAPI    O521159   1.390   0.434  10.787  0.6275 -0.6694  0.1335
  185SAPI   HO521160   1.321   0.403  10.728 -1.5224  2.6837  0.6786
  185SAPI   C1621161   1.182   0.570  10.829  1.1101 -0.8695  0.7016
  185SAPI    H621162   1.207   0.646  10.753  1.1165 -0.1686  1.3997
  185SAPI    O621163   1.106   0.476  10.762  0.2918 -0.0599  0.3250
  185SAPI   HO621164   1.012   0.493  10.771 -0.2658 -1.1742 -2.5962
  185SAPI   C1121165   1.103   0.626  10.946  0.5644 -0.3750 -0.5384
  185SAPI    H121166   1.091   0.548  11.024 -0.4716 -0.0581 -0.3797
  185SAPI     P21167   0.834   0.611  10.935 -0.0149 -0.4443  0.3818
  185SAPI   O1321168   0.722   0.705  10.924  0.3457 -0.3295 -0.0914
  185SAPI   O1421169   0.839   0.525  11.049 -0.1985 -0.2379 -0.1739
  185SAPI   O1221170   0.979   0.677  10.893  0.8590  0.1872 -0.3551
  185SAPI   O1121171   0.839   0.522  10.807  0.3882 -0.1622  0.0544
  185SAPI    C121172   0.768   0.405  10.772 -0.0106  0.3518 -0.8058
  185SAPI    HA21173   0.826   0.311  10.775 -0.5293  0.0762  0.9209
  185SAPI    HB21174   0.679   0.395  10.838  0.8911  1.4677  0.5816
  185SAPI    C221175   0.691   0.415  10.639 -0.0450  0.6239 -0.0131
  185SAPI    HS21176   0.648   0.318  10.606 -1.1234  1.2723 -0.5542
  185SAPI   O2121177   0.786   0.461  10.536  0.4565  0.0429 -0.4525
  185SAPI   C2121178   0.864   0.364  10.494 -0.7344 -0.0464  0.5761
  185SAPI   O2221179   0.855   0.246  10.523 -0.6860 -0.1868  0.4800
  185SAPI   C2221180   0.969   0.421  10.396 -0.1547  0.4197  0.1325
  185SAPI   H2R21181   0.944   0.525  10.365  0.5587  0.8879  1.1122
  185SAPI   H2S21182   1.057   0.435  10.462 -0.1009  0.4053  0.0633
  185SAPI    C321183   0.567   0.517  10.651 -0.3756  1.0697  0.4972
  185SAPI    HX21184   0.598   0.614  10.697  1.2902  0.5250  0.5814
  185SAPI    HY21185   0.509   0.478  10.737 -0.6835  1.9155  0.6837
  185SAPI   O3121186   0.495   0.533  10.530  0.2311  0.2512  0.7253
  185SAPI   C3121187   0.531   0.629  10.444 -0.5915  0.6695 -0.4081
  185SAPI   O3221188   0.628   0.697  10.451 -0.1917 -0.4071 -0.1927
  185SAPI   C3221189   0.423   0.657  10.336 -0.3711  0.0809 -0.6882
  185SAPI   H2X21190   0.391   0.762  10.358 -0.8290 -0.2597  0.2962
  185SAPI   H2Y21191   0.338   0.588  10.351 -1.5188  1.5160 -0.3840
  185SAPI   C2321192   0.996   0.337  10.272  0.2482 -0.3122  0.3292
  185SAPI   H3R21193   1.017   0.235  10.310  1.4595 -0.4853 -0.7701
  185SAPI   H3S21194   1.085   0.366  10.211 -0.6545  1.0262 -0.3699
  185SAPI   C2421195   0.864   0.323  10.190  0.6275  0.4444  0.5134
  185SAPI   H4R21196   0.772   0.300  10.248  0.1223  0.8060 -0.1322
  185SAPI   H4S21197   0.881   0.240  10.118  1.1229 -0.3732  1.5593
  185SAPI   C2521198   0.835   0.449  10.115 -0.0341  0.6099  0.4143
  185SAPI   H5R21199   0.810   0.529  10.187  0.5290  1.6865 -0.5569
  185SAPI   C2621200   0.858   0.476   9.987 -0.2222  1.0480  0.0216
  185SAPI   H6R21201   0.833   0.576   9.947  0.6649  1.5111  0.5988
  185SAPI   C2721202   0.905   0.376   9.884  0.5070  0.4545  0.3912
  185SAPI   H7R21203   0.822   0.346   9.816  1.0934 -3.7639  1.3500
  185SAPI   H7S21204   0.934   0.278   9.928 -1.2973 -0.8382 -1.2253
  185SAPI   C2821205   1.030   0.433   9.816  0.3185  0.4741 -0.2336
  185SAPI   H8R21206   1.120   0.450   9.876  1.8633 -0.9240 -2.1051
  185SAPI   C2921207   1.033   0.456   9.681  0.2330  0.6546 -0.3450
  185SAPI   H9R21208   1.122   0.489   9.625  1.5651 -0.9098  0.7909
  185SAPI  C21021209   0.913   0.442   9.586 -0.1015 -0.5060 -0.0140
  185SAPI  H10R21210   0.896   0.543   9.544 -1.8873 -1.0165 -0.5379
  185SAPI  H10S21211   0.814   0.409   9.623  0.8142 -1.5747  1.5494
  185SAPI  C21121212   0.946   0.339   9.479 -0.2468 -0.3179 -0.0124
  185SAPI  H11R21213   0.948   0.235   9.514  0.5558  0.6877  3.1275
  185SAPI  C21221214   0.995   0.356   9.351 -0.1683 -0.5373  0.1433
  185SAPI  H12R21215   1.010   0.271   9.284 -2.1810 -1.3767  0.7189
  185SAPI  C21321216   1.003   0.486   9.276  0.0254  0.2570 -0.7287
  185SAPI  H13R21217   0.922   0.553   9.311 -0.1131 -0.9280  1.2685
  185SAPI  H13S21218   0.970   0.462   9.172 -0.4436  2.3390 -1.0892
  185SAPI  C21421219   1.142   0.551   9.286  0.4450 -0.0633  0.2848
  185SAPI  H14R21220   1.219   0.481   9.322 -1.0936 -1.3809  1.0901
  185SAPI  C21521221   1.173   0.676   9.257  0.1528 -0.4621  0.9752
  185SAPI  H15R21222   1.277   0.705   9.275  1.3474 -3.3954 -0.9667
  185SAPI  C21621223   1.079   0.784   9.208  0.4754  0.1619  0.0828
  185SAPI  H16R21224   1.098   0.878   9.263  1.4860  1.2877 -2.1774
  185SAPI  H16S21225   0.974   0.753   9.232 -0.1558  0.9305 -1.6365
  185SAPI  C21721226   1.078   0.819   9.060  0.2226 -0.0890  0.0795
  185SAPI  H17R21227   1.017   0.905   9.029 -0.2354 -0.2511  0.5153
  185SAPI  H17S21228   1.040   0.724   9.017 -1.9935  0.8835 -0.1661
  185SAPI  C21821229   1.222   0.855   9.017 -0.6792 -0.0157 -0.2515
  185SAPI  H18R21230   1.296   0.776   9.044  1.4885  2.1924  0.4665
  185SAPI  H18S21231   1.275   0.943   9.059 -0.4958 -0.3862  0.2978
  185SAPI  C21921232   1.219   0.859   8.862 -0.5086 -0.0948  0.5678
  185SAPI  H19R21233   1.150   0.940   8.832 -1.0000 -0.6680  0.1422
  185SAPI  H19S21234   1.182   0.772   8.803  0.6483  0.0910 -0.4380
  185SAPI  C22021235   1.365   0.886   8.819  0.0619  0.2520 -0.1516
  185SAPI  H20R21236   1.393   0.991   8.842  2.6076 -0.8193  1.9490
  185SAPI  H20S21237   1.375   0.861   8.711 -0.6884 -1.5291  0.1654
  185SAPI  H20T21238   1.430   0.815   8.875 -0.7630  0.3169  0.9142
  185SAPI   C3321239   0.486   0.627  10.200 -0.3795  0.3957 -0.1243
  185SAPI   H3X21240   0.411   0.606  10.121 -1.9253  0.5144  1.2987
  185SAPI   H3Y21241   0.551   0.537  10.202 -1.8021 -0.6634 -0.6209
  185SAPI   C3421242   0.560   0.741  10.128 -0.2371 -0.8230  0.2428
  185SAPI   H4X21243   0.651   0.778  10.178 -0.8701 -1.4924  1.9307
  185SAPI   H4Y21244   0.488   0.825  10.135  0.9949  0.1628  1.1166
  185SAPI   C3521245   0.566   0.724   9.974 -0.7191 -0.1052 -0.1508
  185SAPI   H5X21246   0.473   0.707   9.916 -1.0730  2.1428 -0.3195
  185SAPI   H5Y21247   0.621   0.628   9.964 -0.6905 -0.1384  0.2969
  185SAPI   C3621248   0.661   0.826   9.911 -0.5996  0.7912 -0.1592
  185SAPI   H6X21249   0.750   0.831   9.976 -1.6116 -0.1871  1.3267
  185SAPI   H6Y21250   0.600   0.919   9.922 -2.8723 -0.7534  0.5721
  185SAPI   C3721251   0.706   0.793   9.767  0.0820 -0.5745 -0.6720
  185SAPI   H7X21252   0.767   0.701   9.775 -0.3382 -0.8719 -0.8844
  185SAPI   H7Y21253   0.776   0.874   9.740 -0.8695  0.1334 -1.0570
  185SAPI   C3821254   0.595   0.792   9.658 -0.5778  0.3954  0.3313
  185SAPI   H8X21255   0.549   0.893   9.650 -0.6217  0.3624  0.1461
  185SAPI   H8Y21256   0.513   0.718   9.674  1.2068 -1.7068 -0.0481
  185SAPI   C3921257   0.654   0.772   9.516 -0.6611  0.6483  0.2510
  185SAPI   H9X21258   0.698   0.671   9.502 -0.3864  1.0594 -1.9918
  185SAPI   H9Y21259   0.740   0.842   9.519 -0.4362  0.3419  3.6289
  185SAPI  C31021260   0.571   0.817   9.398  0.0434  0.0989 -0.7674
  185SAPI  H10X21261   0.537   0.918   9.428  0.1328 -0.1654  0.2380
  185SAPI  H10Y21262   0.476   0.762   9.407 -0.5832  1.0259 -1.6584
  185SAPI  C31121263   0.633   0.810   9.263 -0.1860 -0.1267  0.0354
  185SAPI  H11X21264   0.720   0.878   9.257 -1.1305  1.4405  3.1016
  185SAPI  H11Y21265   0.564   0.857   9.189  0.3712  1.2082  0.3432
  185SAPI  C31221266   0.666   0.667   9.218 -0.2733  0.2514 -0.2093
  185SAPI  H12X21267   0.571   0.613   9.239 -0.9168  0.5497 -2.1830
  185SAPI  H12Y21268   0.746   0.630   9.284 -0.9914 -3.6089 -1.3793
  185SAPI  C31321269   0.717   0.645   9.074  0.2068  0.2034  0.0890
  185SAPI  H13X21270   0.777   0.552   9.065 -1.1334 -0.7408  0.6325
  185SAPI  H13Y21271   0.781   0.734   9.053 -1.4764  1.8869  1.8313
  185SAPI  C31421272   0.604   0.653   8.975 -0.5466 -0.4085 -0.0908
  185SAPI  H14X21273   0.578   0.760   8.957  0.5464 -0.1834 -0.3360
  185SAPI  H14Y21274   0.511   0.603   9.012 -1.8744  2.0149 -0.0161
  185SAPI  C31521275   0.642   0.590   8.842 -0.5066  0.2019  0.4113
  185SAPI  H15X21276   0.553   0.586   8.777 -0.1651 -0.0083 -0.0454
  185SAPI  H15Y21277   0.685   0.489   8.862  0.8355  0.5219 -0.7952
  185SAPI  C31621278   0.750   0.671   8.771  0.5849 -0.6160 -0.0206
  185SAPI  H16X21279   0.776   0.763   8.828  0.6507 -1.2692  1.0038
  185SAPI  H16Y21280   0.696   0.709   8.681  1.3505 -0.8946 -0.6009
  185SAPI  C31721281   0.884   0.599   8.750 -0.2080  0.1479  0.4574
  185SAPI  H17X21282   0.915   0.558   8.848 -0.6216 -0.5462  0.2998
  185SAPI  H17Y21283   0.954   0.683   8.730  1.3159 -1.7074 -2.4179
  185SAPI  C31821284   0.889   0.497   8.627 -0.3977 -0.3260  0.2093
  185SAPI  H18X21285   0.801   0.429   8.632 -1.2334  0.7778  0.5886
  185SAPI  H18Y21286   0.982   0.436   8.624  0.3126  0.8175 -1.2575
  185SAPI  H18Z21287   0.893   0.555   8.533  1.6016 -1.1378 -0.2380
  186SAPI   C1221288   1.543   4.852  11.056  0.1837  0.4198 -0.3790
  186SAPI    H221289   1.621   4.929  11.040  1.1140 -0.2586  0.8621
  186SAPI    O221290   1.580   4.740  10.975 -0.0388 -0.7384  0.0393
  186SAPI   HO221291   1.551   4.751  10.884 -0.8893  2.9491  0.6910
  186SAPI   C1321292   1.537   4.812  11.201 -0.4010 -0.8913 -0.1809
  186SAPI    H321293   1.492   4.899  11.253  1.0842  0.4003 -1.0365
  186SAPI    O321294   1.672   4.800  11.255 -0.3640  0.4684  0.2691
  186SAPI   HO321295   1.681   4.860  11.330 -0.8674  2.2474 -1.0565
  186SAPI   C1421296   1.444   4.708  11.237 -0.9993 -0.0748  0.0016
  186SAPI    H421297   1.473   4.617  11.180  2.0155  1.4277 -0.9564
  186SAPI    O421298   1.443   4.682  11.375  0.3492  0.2522 -0.1870
  186SAPI   HO421299   1.498   4.604  11.380  1.2197  0.8868  0.3716
  186SAPI   C1521300   1.303   4.759  11.198 -0.4514  1.1270 -0.2922
  186SAPI    H521301   1.278   4.848  11.259 -2.2809 -0.4463  1.3295
  186SAPI    O521302   1.188   4.678  11.224  0.2217 -0.2023  0.0946
  186SAPI   HO521303   1.194   4.587  11.194 -0.5101 -0.5967  1.0748
  186SAPI   C1621304   1.300   4.794  11.052 -0.0244  0.5191  0.0823
  186SAPI    H621305   1.315   4.705  10.988 -0.9411  1.3780 -1.3461
  186SAPI    O621306   1.178   4.864  11.019  0.0537 -0.3218  0.5874
  186SAPI   HO621307   1.173   4.941  11.077  0.9545  1.8432 -2.0856
  186SAPI   C1121308   1.404   4.891  11.005 -0.4199  0.7493  0.2876
  186SAPI    H121309   1.389   4.983  11.066  3.2184  0.9825  0.9400
  186SAPI     P21310   1.395   5.068  10.794 -0.4084  0.0026 -0.4209
  186SAPI   O1321311   1.316   5.163  10.873 -0.3599  0.0085 -0.0705
  186SAPI   O1421312   1.348   5.048  10.655  0.1336 -0.2263  0.8238
  186SAPI   O1221313   1.404   4.923  10.863 -0.1595  0.1926  0.2111
  186SAPI   O1121314   1.544   5.120  10.791 -0.6302 -0.1419 -0.1850
  186SAPI    C121315   1.640   5.039  10.719  0.3580 -0.1549 -0.5559
  186SAPI    HA21316   1.710   4.988  10.789  0.2734 -0.6498 -0.8278
  186SAPI    HB21317   1.593   4.961  10.655  1.8224 -0.6314 -1.0790
  186SAPI    C221318   1.712   5.118  10.612  0.3235  0.4570  0.9707
  186SAPI    HS21319   1.756   5.207  10.663 -0.2553  1.1707  0.2368
  186SAPI   O2121320   1.617   5.161  10.508 -0.1703  0.2627  0.1819
  186SAPI   C2121321   1.629   5.287  10.469 -0.7430 -0.3563  0.2416
  186SAPI   O2221322   1.663   5.381  10.543  0.1269 -0.8654  0.5969
  186SAPI   C2221323   1.562   5.295  10.329  0.1730  0.5963 -0.0108
  186SAPI   H2R21324   1.595   5.197  10.288 -1.4459  0.0679 -0.0728
  186SAPI   H2S21325   1.453   5.303  10.344  0.4621  2.8730  1.0683
  186SAPI    C321326   1.815   5.022  10.538  1.2497 -0.5381 -0.7721
  186SAPI    HX21327   1.760   4.942  10.483 -1.5059 -1.2314  2.8355
  186SAPI    HY21328   1.872   4.956  10.607  2.8441 -0.6351 -2.1623
  186SAPI   O3121329   1.902   5.101  10.454 -0.0482  0.7170  0.1974
  186SAPI   C3121330   2.016   5.136  10.504  0.2778 -0.1200  0.4007
  186SAPI   O3221331   2.056   5.112  10.617  0.0712 -0.0408 -0.4876
  186SAPI   C3221332   2.095   5.201  10.393  0.5978  1.0649 -0.0886
  186SAPI   H2X21333   2.177   5.241  10.456 -0.6905  1.2062  1.5449
  186SAPI   H2Y21334   2.033   5.286  10.355 -2.3842 -1.3851 -0.9419
  186SAPI   C2321335   1.613   5.403  10.233  0.6589 -0.5932 -0.1168
  186SAPI   H3R21336   1.573   5.393  10.129 -0.8766  0.4039  0.3633
  186SAPI   H3S21337   1.724   5.405  10.234  0.6877 -1.8891  2.0230
  186SAPI   C2421338   1.564   5.548  10.276 -0.6058  0.1224 -1.0830
  186SAPI   H4R21339   1.619   5.620  10.213  1.0978 -0.5229 -0.3658
  186SAPI   H4S21340   1.600   5.556  10.381 -1.8934 -0.7566 -0.5630
  186SAPI   C2521341   1.415   5.563  10.282 -0.6304 -0.3504  1.2635
  186SAPI   H5R21342   1.368   5.561  10.381 -0.3071 -0.0015  1.4185
  186SAPI   C2621343   1.338   5.588  10.180  0.4370 -0.0446  0.8559
  186SAPI   H6R21344   1.230   5.585  10.201  0.2973  3.8016  1.0039
  186SAPI   C2721345   1.372   5.621  10.036  0.7926 -0.1325 -0.2615
  186SAPI   H7R21346   1.473   5.599   9.995 -0.7020  0.0296 -4.2972
  186SAPI   H7S21347   1.363   5.732  10.037 -0.7588 -0.2585  1.1844
  186SAPI   C2821348   1.266   5.580   9.934  0.0078 -0.6033 -0.2584
  186SAPI   H8R21349   1.185   5.514   9.969 -0.3293  0.2404  0.5756
  186SAPI   C2921350   1.272   5.617   9.808  0.7902  0.3561 -0.0057
  186SAPI   H9R21351   1.208   5.560   9.739  1.4256  0.7943 -0.9827
  186SAPI  C21021352   1.371   5.709   9.735 -0.3096  0.3452 -0.3311
  186SAPI  H10R21353   1.443   5.756   9.805 -1.2227  0.2513  0.6921
  186SAPI  H10S21354   1.311   5.790   9.689 -1.4381 -1.4144 -2.0408
  186SAPI  C21121355   1.456   5.626   9.640 -0.5179  0.4252 -0.0876
  186SAPI  H11R21356   1.529   5.559   9.689 -0.2930  1.1697  0.6035
  186SAPI  C21221357   1.465   5.642   9.507 -1.3732  0.1571  0.5157
  186SAPI  H12R21358   1.542   5.587   9.451  0.5860  1.8652  1.4537
  186SAPI  C21321359   1.397   5.743   9.419 -0.1800  0.3170  0.1860
  186SAPI  H13R21360   1.466   5.819   9.376  1.5528 -1.0170  0.6027
  186SAPI  H13S21361   1.315   5.800   9.469 -0.9381  1.2981 -2.0682
  186SAPI  C21421362   1.332   5.651   9.319  0.4912 -0.1239  0.1588
  186SAPI  H14R21363   1.247   5.587   9.348 -0.1034  0.2718 -0.6752
  186SAPI  C21521364   1.367   5.652   9.189  0.5866 -0.7755 -0.4144
  186SAPI  H15R21365   1.318   5.591   9.112 -1.4806  1.1189 -0.6187
  186SAPI  C21621366   1.473   5.736   9.133 -0.1624  0.2720  0.4093
  186SAPI  H16R21367   1.462   5.843   9.163 -1.3875  0.2151  0.2079
  186SAPI  H16S21368   1.461   5.732   9.022  2.8412  2.9652 -0.0921
  186SAPI  C21721369   1.622   5.700   9.157  0.5163  0.0057 -0.5503
  186SAPI  H17R21370   1.626   5.593   9.126  1.0978 -0.2830  0.4649
  186SAPI  H17S21371   1.647   5.711   9.265 -1.3396  0.0331 -0.1157
  186SAPI  C21821372   1.715   5.781   9.081  0.0711  0.0572  0.1179
  186SAPI  H18R21373   1.815   5.739   9.105 -0.0664  0.5234  1.5297
  186SAPI  H18S21374   1.703   5.889   9.104 -3.3515 -0.4728  1.0781
  186SAPI  C21921375   1.683   5.794   8.930 -0.1244 -0.1435  0.0366
  186SAPI  H19R21376   1.614   5.879   8.913 -1.4961 -0.7494  2.2684
  186SAPI  H19S21377   1.641   5.700   8.887 -2.9163  0.5216  1.1752
  186SAPI  C22021378   1.807   5.824   8.844  0.3044 -0.2304  0.6502
  186SAPI  H20R21379   1.874   5.736   8.852 -0.1036 -0.4155  2.1192
  186SAPI  H20S21380   1.864   5.913   8.877  0.1825  0.2366 -0.3851
  186SAPI  H20T21381   1.787   5.834   8.735 -2.5933 -1.1071  1.0503
  186SAPI   C3321382   2.154   5.095  10.291 -0.1506  0.5237  0.2179
  186SAPI   H3X21383   2.070   5.057  10.228 -0.0423  1.6758 -0.6417
  186SAPI   H3Y21384   2.193   5.010  10.350 -1.2764 -1.6875 -2.1163
  186SAPI   C3421385   2.273   5.137  10.203 -0.1107  0.1650 -1.3027
  186SAPI   H4X21386   2.350   5.186  10.267 -1.2133  2.3893 -1.6063
  186SAPI   H4Y21387   2.227   5.213  10.136 -2.3805 -1.3728 -1.5504
  186SAPI   C3521388   2.337   5.023  10.118 -0.2245  0.0289 -0.2332
  186SAPI   H5X21389   2.386   4.955  10.191  1.1292 -0.7401 -1.8227
  186SAPI   H5Y21390   2.423   5.063  10.061 -0.9258  1.5839 -0.2082
  186SAPI   C3621391   2.242   4.957  10.024 -0.1209  0.3176  0.4325
  186SAPI   H6X21392   2.207   5.019   9.938 -4.4622 -2.9976 -0.3824
  186SAPI   H6Y21393   2.153   4.927  10.084 -0.9548  2.0002  0.0763
  186SAPI   C3721394   2.287   4.826   9.952  0.5925 -0.8388  0.3621
  186SAPI   H7X21395   2.320   4.764  10.038  1.3246  0.3779  0.9785
  186SAPI   H7Y21396   2.377   4.839   9.888 -0.5734 -1.3581 -1.4186
  186SAPI   C3821397   2.171   4.755   9.879 -0.1575  0.2593  0.0091
  186SAPI   H8X21398   2.127   4.796   9.786 -1.3444 -0.8871  0.0514
  186SAPI   H8Y21399   2.092   4.773   9.956  0.2512  1.3059  0.1909
  186SAPI   C3921400   2.197   4.606   9.845  0.7040 -0.0342  0.3741
  186SAPI   H9X21401   2.097   4.557   9.845  1.1585 -0.9742  0.2231
  186SAPI   H9Y21402   2.262   4.557   9.920  1.8004  0.2079 -0.4053
  186SAPI  C31021403   2.277   4.582   9.721 -0.2871  0.0805  0.3468
  186SAPI  H10X21404   2.301   4.474   9.713 -0.0629  0.1111  0.6121
  186SAPI  H10Y21405   2.372   4.637   9.738 -0.8295  1.5226 -1.2049
  186SAPI  C31121406   2.220   4.631   9.590 -0.5899 -0.1041 -0.1830
  186SAPI  H11X21407   2.221   4.742   9.591  0.7417 -0.1014 -1.2291
  186SAPI  H11Y21408   2.113   4.603   9.582 -1.0428  1.4613  0.1144
  186SAPI  C31221409   2.306   4.573   9.474  0.7100  0.6577  0.1990
  186SAPI  H12X21410   2.260   4.472   9.462  0.7058  0.4032  2.1819
  186SAPI  H12Y21411   2.412   4.557   9.501  0.6546  1.0787  0.6873
  186SAPI  C31321412   2.310   4.649   9.345 -1.0160  1.2902  0.0561
  186SAPI  H13X21413   2.394   4.610   9.283 -0.5217  1.2795  0.7316
  186SAPI  H13Y21414   2.331   4.757   9.360 -1.1019  0.8626  3.5950
  186SAPI  C31421415   2.182   4.634   9.254 -0.0322 -0.0039  0.3377
  186SAPI  H14X21416   2.096   4.671   9.313 -1.4351 -0.3895 -1.4220
  186SAPI  H14Y21417   2.173   4.527   9.228 -3.6699 -0.3208  2.5807
  186SAPI  C31521418   2.203   4.729   9.135 -0.1212  0.4406  0.0386
  186SAPI  H15X21419   2.302   4.713   9.089 -0.2704 -1.2304  0.2611
  186SAPI  H15Y21420   2.196   4.833   9.174  0.0815  0.2302  0.6511
  186SAPI  C31621421   2.093   4.715   9.035 -0.4311  0.0946  0.5247
  186SAPI  H16X21422   2.086   4.606   9.019  3.6034 -0.7110  3.4139
  186SAPI  H16Y21423   2.125   4.758   8.938 -2.7652  2.9672  0.9303
  186SAPI  C31721424   1.967   4.797   9.075  0.6586  0.0239  0.2761
  186SAPI  H17X21425   1.985   4.906   9.089 -1.4246  0.0690  3.1134
  186SAPI  H17Y21426   1.934   4.758   9.174 -0.7661  2.0065  0.6234
  186SAPI  C31821427   1.854   4.794   8.970 -0.2060 -0.3565 -0.7482
  186SAPI  H18X21428   1.882   4.857   8.882  2.3385  1.4946  1.2979
  186SAPI  H18Y21429   1.755   4.821   9.013 -0.0789  0.9748 -1.2639
  186SAPI  H18Z21430   1.840   4.690   8.936 -1.0436  0.0053 -1.5191
  187SAPI   C1221431   4.479   6.445   6.142 -0.2923 -0.3521 -0.4713
  187SAPI    H221432   4.424   6.424   6.236  0.5549  3.8824  1.0967
  187SAPI    O221433   4.466   6.328   6.065 -0.2186  0.1367 -0.1336
  187SAPI   HO221434   4.411   6.344   5.988  0.6960 -1.4430 -1.1687
  187SAPI   C1321435   4.405   6.555   6.071 -0.1413  0.6475  0.2176
  187SAPI    H321436   4.396   6.643   6.138 -2.8592  0.5311  0.0937
  187SAPI    O321437   4.269   6.521   6.047  0.2962 -0.1468  0.3428
  187SAPI   HO321438   4.202   6.560   6.104  0.4550  0.3249  0.2103
  187SAPI   C1421439   4.484   6.598   5.940 -0.4054  0.6245 -0.3580
  187SAPI    H421440   4.486   6.514   5.867 -0.4521  1.1166 -0.9326
  187SAPI    O421441   4.416   6.699   5.875  0.4418  0.0934  0.0895
  187SAPI   HO421442   4.416   6.676   5.782 -0.8961  0.8210 -0.1000
  187SAPI   C1521443   4.626   6.642   5.977  0.0443 -0.3189  0.3005
  187SAPI    H521444   4.607   6.734   6.037 -0.0119 -0.6122  0.7325
  187SAPI    O521445   4.709   6.692   5.866 -0.3229 -0.3334 -0.2804
  187SAPI   HO521446   4.798   6.694   5.900 -1.6500 -0.5275  3.4738
  187SAPI   C1621447   4.700   6.535   6.050  0.6625  0.3655 -0.1799
  187SAPI    H621448   4.726   6.443   5.994 -0.6822 -0.6530  0.8228
  187SAPI    O621449   4.816   6.590   6.106  0.2059  0.0283  0.0698
  187SAPI   HO621450   4.810   6.607   6.200 -2.1324 -1.1638  0.1709
  187SAPI   C1121451   4.620   6.488   6.174  0.7431 -0.1903 -0.3012
  187SAPI    H121452   4.609   6.580   6.235  1.6925 -1.4439  1.8215
  187SAPI     P21453   4.758   6.405   6.396 -0.6326 -0.3228  0.1681
  187SAPI   O1321454   4.802   6.547   6.410 -0.3073 -0.3034 -0.3497
  187SAPI   O1421455   4.860   6.301   6.402 -0.4198 -0.2456 -0.3785
  187SAPI   O1221456   4.675   6.384   6.255 -0.5597 -0.5911  0.0848
  187SAPI   O1121457   4.644   6.374   6.498 -0.1656  0.0726  0.5718
  187SAPI    C121458   4.539   6.467   6.507  0.7310 -0.2575  0.3286
  187SAPI    HA21459   4.561   6.565   6.460 -1.2108  0.7093  1.3614
  187SAPI    HB21460   4.444   6.432   6.463  0.4227 -0.9515  1.5374
  187SAPI    C221461   4.504   6.512   6.653 -0.5163 -0.2100 -0.1442
  187SAPI    HS21462   4.431   6.592   6.629  2.2906  2.1310 -1.3284
  187SAPI   O2121463   4.621   6.568   6.720  0.2610 -0.0670 -0.0672
  187SAPI   C2121464   4.663   6.686   6.675  0.1830 -0.6576  0.2488
  187SAPI   O2221465   4.598   6.761   6.607 -0.4674  0.0729 -0.9816
  187SAPI   C2221466   4.810   6.710   6.712  0.3888  0.6280 -0.1269
  187SAPI   H2R21467   4.848   6.624   6.770  2.4685 -0.8640 -3.5321
  187SAPI   H2S21468   4.854   6.719   6.610  1.8457  1.9223  0.6156
  187SAPI    C321469   4.461   6.384   6.727 -0.4350 -0.6340  0.0141
  187SAPI    HX21470   4.546   6.313   6.728  0.1774  0.1061  1.4814
  187SAPI    HY21471   4.375   6.342   6.669 -0.4169  0.4267 -0.8082
  187SAPI   O3121472   4.416   6.420   6.863  0.4790  0.2121  0.2424
  187SAPI   C3121473   4.309   6.497   6.864  0.3770 -0.9712 -0.4560
  187SAPI   O3221474   4.242   6.531   6.762 -0.6702  0.1445 -1.1416
  187SAPI   C3221475   4.260   6.523   7.011 -0.4447  0.3236  0.0234
  187SAPI   H2X21476   4.337   6.563   7.081 -0.1401  0.1739 -0.2210
  187SAPI   H2Y21477   4.222   6.425   7.048 -0.7822  0.3352 -0.3025
  187SAPI   C2321478   4.830   6.839   6.798  0.5309 -0.1713  0.0643
  187SAPI   H3R21479   4.783   6.925   6.746 -0.1748 -0.0787  0.8388
  187SAPI   H3S21480   4.938   6.862   6.790  0.3732 -0.1000 -1.9931
  187SAPI   C2421481   4.802   6.838   6.951 -0.1967 -1.1262  0.3278
  187SAPI   H4R21482   4.836   6.932   6.999  1.5891 -0.5869 -1.9502
  187SAPI   H4S21483   4.864   6.761   7.001 -0.1252  0.4544  2.7665
  187SAPI   C2521484   4.654   6.826   6.991 -0.3899 -0.4306  0.1154
  187SAPI   H5R21485   4.592   6.788   6.909  0.6437 -0.5454 -0.6250
  187SAPI   C2621486   4.602   6.858   7.112 -0.0511 -0.5389 -0.4357
  187SAPI   H6R21487   4.493   6.849   7.127 -0.2310  1.6969 -0.2588
  187SAPI   C2721488   4.681   6.913   7.224 -0.3412 -0.5712 -0.3887
  187SAPI   H7R21489   4.750   6.991   7.183  0.2636 -0.8730  0.0353
  187SAPI   H7S21490   4.751   6.838   7.267 -0.2054  0.0895  0.5861
  187SAPI   C2821491   4.616   6.982   7.340 -0.3696  0.0700  0.2989
  187SAPI   H8R21492   4.510   6.955   7.350 -0.4762  0.9250  1.5678
  187SAPI   C2921493   4.677   7.048   7.436 -0.7374 -0.4556  0.1700
  187SAPI   H9R21494   4.614   7.094   7.514 -1.2432  1.9858 -1.6136
  187SAPI  C21021495   4.820   7.085   7.446 -0.0800  0.9495 -0.1789
  187SAPI  H10R21496   4.871   7.048   7.354 -0.3705  1.5730 -0.5964
  187SAPI  H10S21497   4.861   7.028   7.531 -0.5372  0.2916 -0.3924
  187SAPI  C21121498   4.854   7.233   7.456 -0.9077 -0.4074  0.1494
  187SAPI  H11R21499   4.862   7.285   7.359 -0.1222 -1.2357 -0.2289
  187SAPI  C21221500   4.874   7.299   7.572 -0.1643 -0.0623  0.0265
  187SAPI  H12R21501   4.898   7.406   7.569  0.6148 -0.2460 -0.5261
  187SAPI  C21321502   4.882   7.236   7.707  0.1990 -0.0412 -0.0889
  187SAPI  H13R21503   4.956   7.153   7.706  0.0359 -0.1797 -2.1546
  187SAPI  H13S21504   4.785   7.192   7.737  0.4241 -0.8260 -0.5086
  187SAPI  C21421505   4.911   7.324   7.827 -0.4844 -1.3174  0.1618
  187SAPI  H14R21506   4.816   7.362   7.868 -1.8493 -2.3814 -1.8888
  187SAPI  C21521507   5.035   7.357   7.878 -0.4759  0.5741 -0.3892
  187SAPI  H15R21508   5.045   7.413   7.973  1.2519  1.2198 -0.9292
  187SAPI  C21621509   5.169   7.319   7.816  0.4041 -0.7104 -0.3262
  187SAPI  H16R21510   5.205   7.392   7.741  1.0144  1.0821  1.6397
  187SAPI  H16S21511   5.159   7.223   7.761 -1.4447 -1.1737  0.7636
  187SAPI  C21721512   5.273   7.283   7.925  0.3387  0.9491  0.6292
  187SAPI  H17R21513   5.357   7.256   7.858 -0.9944 -2.4859  0.2617
  187SAPI  H17S21514   5.244   7.190   7.978  0.8343 -0.6531 -1.8214
  187SAPI  C21821515   5.312   7.384   8.024 -0.4231  0.7666  0.0285
  187SAPI  H18R21516   5.243   7.395   8.110 -1.3242 -0.6092 -0.4959
  187SAPI  H18S21517   5.352   7.474   7.972  0.1940  1.1052  1.0841
  187SAPI  C21921518   5.438   7.325   8.096  0.2283 -0.1507 -0.4164
  187SAPI  H19R21519   5.510   7.303   8.014 -1.9404  1.3529 -2.8100
  187SAPI  H19S21520   5.426   7.229   8.151  0.7551 -0.2076 -0.3922
  187SAPI  C22021521   5.501   7.423   8.195  0.0077 -0.3314  0.0630
  187SAPI  H20R21522   5.424   7.454   8.269  0.5954  2.5808 -0.5047
  187SAPI  H20S21523   5.518   7.521   8.146 -1.2165  0.0064  0.2854
  187SAPI  H20T21524   5.591   7.375   8.239 -0.9619 -1.1382  1.1944
  187SAPI   C3321525   4.140   6.618   7.028  0.0206 -0.3553  0.4912
  187SAPI   H3X21526   4.062   6.598   6.951  0.9392 -2.1732  0.0058
  187SAPI   H3Y21527   4.186   6.716   6.999 -0.1559 -0.5595 -0.5162
  187SAPI   C3421528   4.076   6.611   7.168 -0.9575 -0.1897 -0.3759
  187SAPI   H4X21529   4.149   6.642   7.246 -0.7340  2.9746 -1.7625
  187SAPI   H4Y21530   4.058   6.505   7.194  0.5142 -0.2125  0.5735
  187SAPI   C3521531   3.947   6.690   7.181  0.3741 -0.3539 -0.2752
  187SAPI   H5X21532   3.875   6.661   7.102 -0.5084  0.0518  0.3790
  187SAPI   H5Y21533   3.974   6.797   7.163 -0.5596  0.3105  2.1542
  187SAPI   C3621534   3.882   6.688   7.322  0.0917 -0.0236  0.3292
  187SAPI   H6X21535   3.960   6.699   7.400 -0.6267 -1.4126  1.2553
  187SAPI   H6Y21536   3.843   6.585   7.336 -0.5551  0.4485  2.0482
  187SAPI   C3721537   3.781   6.791   7.354  0.6213 -0.8086 -0.1954
  187SAPI   H7X21538   3.686   6.763   7.305 -1.4035  2.4677  1.7033
  187SAPI   H7Y21539   3.813   6.880   7.296 -0.7738 -0.8072 -0.9841
  187SAPI   C3821540   3.776   6.818   7.506 -0.2799 -0.2974  0.1742
  187SAPI   H8X21541   3.802   6.925   7.522 -0.9405  0.1900 -1.9405
  187SAPI   H8Y21542   3.850   6.760   7.566 -0.2315 -0.8069 -0.3826
  187SAPI   C3921543   3.638   6.773   7.565 -0.4645  0.6126 -0.0579
  187SAPI   H9X21544   3.613   6.679   7.512 -1.9350  1.4602 -0.9118
  187SAPI   H9Y21545   3.557   6.841   7.530 -0.5614  1.0731  1.0268
  187SAPI  C31021546   3.649   6.743   7.715 -0.0292  0.6309 -0.2757
  187SAPI  H10X21547   3.725   6.664   7.731  0.6603  1.1644 -0.8752
  187SAPI  H10Y21548   3.551   6.713   7.759 -0.2156  0.4227 -0.8194
  187SAPI  C31121549   3.703   6.862   7.798  0.8432 -0.2902 -0.2211
  187SAPI  H11X21550   3.631   6.946   7.801  3.0539  1.7353 -2.2913
  187SAPI  H11Y21551   3.792   6.913   7.755  0.7353 -0.2460 -0.3935
  187SAPI  C31221552   3.748   6.820   7.945 -1.0893  0.4895  0.0939
  187SAPI  H12X21553   3.800   6.897   8.006 -1.5559  1.4077 -0.6611
  187SAPI  H12Y21554   3.835   6.752   7.929  0.4465  1.4194  3.9762
  187SAPI  C31321555   3.640   6.746   8.023  0.1304  0.9363 -0.8376
  187SAPI  H13X21556   3.621   6.654   7.963  0.9812  1.3473 -1.7561
  187SAPI  H13Y21557   3.548   6.807   8.019 -1.6015 -1.4630  0.9566
  187SAPI  C31421558   3.685   6.712   8.162  0.3478  0.7080 -0.1603
  187SAPI  H14X21559   3.601   6.675   8.224  0.7164 -0.9710 -0.6166
  187SAPI  H14Y21560   3.730   6.793   8.222  3.5673 -1.5952  0.6647
  187SAPI  C31521561   3.776   6.591   8.155 -0.3014  0.2696 -0.4280
  187SAPI  H15X21562   3.862   6.617   8.090  0.3069 -2.0564 -0.5825
  187SAPI  H15Y21563   3.710   6.515   8.109  0.3983  0.0806 -1.1200
  187SAPI  C31621564   3.819   6.528   8.290 -0.0856 -0.2318  0.2771
  187SAPI  H16X21565   3.803   6.419   8.279  0.9014 -0.2826 -0.6738
  187SAPI  H16Y21566   3.761   6.568   8.377  2.6965  1.1281  1.5651
  187SAPI  C31721567   3.970   6.554   8.310 -0.2609 -0.3478 -0.3322
  187SAPI  H17X21568   3.985   6.660   8.282 -0.1640 -0.5008 -0.8588
  187SAPI  H17Y21569   4.018   6.493   8.231 -1.1683 -0.1376 -1.0626
  187SAPI  C31821570   4.030   6.523   8.444  0.3389 -0.5626  0.4991
  187SAPI  H18X21571   4.040   6.414   8.462  1.6286 -0.4945  0.2574
  187SAPI  H18Y21572   3.972   6.573   8.524  2.2901  1.1433  0.9075
  187SAPI  H18Z21573   4.130   6.572   8.452  1.1402 -1.9553 -0.8932
  188SAPI   C1221574   6.127   2.878   6.529  0.5109 -0.4561 -0.4502
  188SAPI    H221575   6.173   2.799   6.593 -0.2052 -0.4683  0.0525
  188SAPI    O221576   6.069   2.973   6.624 -0.6067  0.2876  0.9055
  188SAPI   HO221577   5.977   2.948   6.638 -0.1892 -1.0413  1.3139
  188SAPI   C1321578   6.229   2.932   6.436  0.2910  0.4070 -0.1380
  188SAPI    H321579   6.262   2.856   6.361 -0.3562 -2.2054  2.1347
  188SAPI    O321580   6.349   2.970   6.515  0.5694 -0.1583  0.2802
  188SAPI   HO321581   6.312   3.014   6.592  1.9301 -2.1433  2.0916
  188SAPI   C1421582   6.163   3.047   6.356  0.9246  0.2655  0.1408
  188SAPI    H421583   6.121   3.121   6.427  2.9856  0.8735  0.7441
  188SAPI    O421584   6.261   3.114   6.277 -1.1842  0.7055  0.6268
  188SAPI   HO421585   6.312   3.055   6.221  0.5461  4.0806 -1.5465
  188SAPI   C1521586   6.046   2.986   6.272 -0.4689 -0.2040  0.0640
  188SAPI    H521587   6.094   2.908   6.209 -1.1698 -0.9972  0.5141
  188SAPI    O521588   5.985   3.073   6.171 -0.3348 -0.0768  0.0138
  188SAPI   HO521589   5.983   3.162   6.207  0.5782 -0.2918  0.6206
  188SAPI   C1621590   5.940   2.921   6.361 -0.2097 -0.2441 -0.0100
  188SAPI    H621591   5.897   3.001   6.426  1.9499  2.8855 -2.2355
  188SAPI    O621592   5.852   2.847   6.275 -0.6195 -0.2936 -0.3445
  188SAPI   HO621593   5.768   2.835   6.319 -0.6269  1.1700  0.0536
  188SAPI   C1121594   6.006   2.818   6.456  0.2184  0.3249  0.0885
  188SAPI    H121595   6.050   2.748   6.381 -0.0007  2.6089 -2.2666
  188SAPI     P21596   5.935   2.613   6.620 -0.1130  0.3760  0.0958
  188SAPI   O1321597   6.066   2.571   6.570 -0.6694  0.1976 -0.4679
  188SAPI   O1421598   5.826   2.519   6.593  0.5794 -0.7262  0.1659
  188SAPI   O1221599   5.908   2.758   6.541 -0.4065  0.6765  0.0781
  188SAPI   O1121600   5.932   2.646   6.767 -0.5149 -0.0959 -0.2063
  188SAPI    C121601   5.847   2.739   6.822  0.0531 -0.1148  0.0151
  188SAPI    HA21602   5.839   2.837   6.772  0.3380 -0.4982 -0.7834
  188SAPI    HB21603   5.747   2.692   6.832 -0.1035  0.1844 -0.1585
  188SAPI    C221604   5.893   2.767   6.969 -0.6196 -0.1681 -0.3304
  188SAPI    HS21605   5.811   2.821   7.020 -1.6535 -2.2553  0.2552
  188SAPI   O2121606   6.019   2.844   6.971 -0.1068 -0.0957 -0.2084
  188SAPI   C2121607   6.019   2.971   6.931  0.3272 -0.5496  0.4986
  188SAPI   O2221608   5.918   3.037   6.897  0.4820  0.4639  0.1209
  188SAPI   C2221609   6.159   3.030   6.945  0.4194  0.1899  0.3752
  188SAPI   H2R21610   6.203   2.974   7.030  1.4160  0.6799  0.1860
  188SAPI   H2S21611   6.205   2.999   6.849 -1.5611  4.5169 -2.1625
  188SAPI    C321612   5.910   2.642   7.062 -0.4593  0.6060  0.3069
  188SAPI    HX21613   6.018   2.624   7.042 -0.7587 -1.4611  0.4042
  188SAPI    HY21614   5.855   2.550   7.032 -0.1966  0.7461 -0.6213
  188SAPI   O3121615   5.887   2.672   7.199 -0.2312  0.4184 -0.0798
  188SAPI   C3121616   5.974   2.627   7.289  0.5747  0.4868 -0.1938
  188SAPI   O3221617   6.063   2.546   7.269  0.1870  0.0140 -0.4116
  188SAPI   C3221618   5.938   2.682   7.427  0.0700 -0.2615 -0.3213
  188SAPI   H2X21619   5.836   2.640   7.442 -0.9288  1.7885 -1.2219
  188SAPI   H2Y21620   5.922   2.792   7.428  1.0433 -0.0723 -2.4692
  188SAPI   C2321621   6.175   3.181   6.976  0.0120  0.8049 -0.1421
  188SAPI   H3R21622   6.109   3.248   6.918 -0.6045 -0.5514 -1.0422
  188SAPI   H3S21623   6.278   3.210   6.948  0.5374 -1.8678 -1.1593
  188SAPI   C2421624   6.148   3.208   7.127  1.1059  0.0303 -0.2909
  188SAPI   H4R21625   6.144   3.317   7.145 -1.5469  0.0876 -1.1120
  188SAPI   H4S21626   6.236   3.173   7.186 -0.0711  0.1558  1.5765
  188SAPI   C2521627   6.012   3.168   7.184 -0.2032  0.8712  0.4694
  188SAPI   H5R21628   5.930   3.188   7.114  0.3424  1.0080 -0.1376
  188SAPI   C2621629   5.983   3.098   7.294  0.2224  0.1424 -0.4966
  188SAPI   H6R21630   5.877   3.078   7.317  0.1318  0.8715 -0.2733
  188SAPI   C2721631   6.086   3.059   7.397  0.3752  0.4645 -0.1494
  188SAPI   H7R21632   6.164   2.992   7.356 -0.2048 -0.4199  0.1793
  188SAPI   H7S21633   6.037   2.992   7.471  1.0149  0.7537  0.5464
  188SAPI   C2821634   6.147   3.174   7.475 -0.5962  0.2981  0.1541
  188SAPI   H8R21635   6.202   3.244   7.410  1.0815 -1.5164 -0.4272
  188SAPI   C2921636   6.143   3.200   7.609  0.2935  0.3804 -0.5892
  188SAPI   H9R21637   6.197   3.289   7.646 -0.9139  0.9289 -0.1371
  188SAPI  C21021638   6.063   3.126   7.710 -0.6371  0.0608  0.2764
  188SAPI  H10R21639   6.094   3.148   7.815 -2.1736  1.3403  0.4832
  188SAPI  H10S21640   6.085   3.018   7.699  1.6130 -0.0266  4.5470
  188SAPI  C21121641   5.916   3.154   7.702 -0.0582  0.2460 -0.0294
  188SAPI  H11R21642   5.875   3.215   7.620 -1.1527  0.4191  0.6377
  188SAPI  C21221643   5.830   3.109   7.795 -0.0178 -0.3556 -0.7858
  188SAPI  H12R21644   5.721   3.113   7.775 -0.3593 -2.6946  0.3992
  188SAPI  C21321645   5.864   3.034   7.919 -0.7833  0.3447  0.5709
  188SAPI  H13R21646   5.972   3.044   7.941 -0.7902 -1.3829  1.4817
  188SAPI  H13S21647   5.832   2.930   7.899 -1.2726  0.6730 -0.3522
  188SAPI  C21421648   5.788   3.091   8.037  0.2033  0.9113  0.2854
  188SAPI  H14R21649   5.762   3.196   8.017 -3.6343 -0.3278 -1.8657
  188SAPI  C21521650   5.738   3.033   8.140 -0.3722  0.1186 -0.4880
  188SAPI  H15R21651   5.694   3.103   8.213  0.2582  1.1671 -1.1090
  188SAPI  C21621652   5.746   2.888   8.178  0.4083 -0.3351  0.4468
  188SAPI  H16R21653   5.783   2.824   8.095  0.2457 -1.7488  1.4489
  188SAPI  H16S21654   5.643   2.860   8.207 -0.5882  0.2621 -2.3258
  188SAPI  C21721655   5.839   2.887   8.302 -0.2958 -0.5603  0.7847
  188SAPI  H17R21656   5.801   2.960   8.377  0.3895  0.9694 -0.3188
  188SAPI  H17S21657   5.944   2.915   8.279 -0.9727  2.2645  0.8962
  188SAPI  C21821658   5.846   2.750   8.364 -0.3197  0.3277  0.3127
  188SAPI  H18R21659   5.866   2.677   8.282 -1.7219  0.7330 -0.4118
  188SAPI  H18S21660   5.748   2.728   8.411  0.6072 -2.5417  1.0433
  188SAPI  C21921661   5.945   2.750   8.474 -0.0677 -0.8356 -0.0343
  188SAPI  H19R21662   5.923   2.835   8.542  1.9948  0.2596 -0.7156
  188SAPI  H19S21663   6.050   2.768   8.443 -0.2739  0.8706  0.2131
  188SAPI  C22021664   5.943   2.617   8.556  1.0930  0.0660 -0.1706
  188SAPI  H20R21665   6.019   2.622   8.637  2.6733 -2.3460 -1.4532
  188SAPI  H20S21666   5.972   2.538   8.483  0.7659  0.0520 -0.2836
  188SAPI  H20T21667   5.844   2.596   8.599  1.9561 -2.1438  0.7916
  188SAPI   C3321668   6.027   2.646   7.546 -0.0559 -0.0296  0.9916
  188SAPI   H3X21669   6.112   2.716   7.537  0.9107 -1.3842 -0.8913
  188SAPI   H3Y21670   6.066   2.542   7.543  1.6440  0.5432  2.8082
  188SAPI   C3421671   5.958   2.660   7.681  0.6619 -0.0905  0.4978
  188SAPI   H4X21672   5.877   2.583   7.683 -2.2912  2.9098  0.9758
  188SAPI   H4Y21673   5.917   2.763   7.684  0.1229 -0.2959  0.3640
  188SAPI   C3521674   6.057   2.626   7.791 -0.1201 -0.0283 -0.1658
  188SAPI   H5X21675   6.147   2.688   7.769  0.7607 -0.1756  2.8339
  188SAPI   H5Y21676   6.097   2.523   7.788 -0.2638 -0.0528 -1.3683
  188SAPI   C3621677   6.001   2.664   7.927  0.2081 -0.3661  0.3588
  188SAPI   H6X21678   5.923   2.592   7.961  0.1023  0.4108  1.7740
  188SAPI   H6Y21679   5.961   2.767   7.924  0.5916 -0.2634 -2.9670
  188SAPI   C3721680   6.090   2.678   8.048  0.0327  0.2676 -0.1132
  188SAPI   H7X21681   6.158   2.591   8.055  0.9702  0.8078 -2.2859
  188SAPI   H7Y21682   6.014   2.678   8.129  0.4410 -2.2394  0.3089
  188SAPI   C3821683   6.172   2.806   8.047 -0.1105  0.5329 -0.1953
  188SAPI   H8X21684   6.103   2.889   8.020 -1.0271 -0.2716 -0.4000
  188SAPI   H8Y21685   6.247   2.798   7.966 -0.0644 -1.0153 -0.0113
  188SAPI   C3921686   6.240   2.829   8.188 -0.2791 -1.0820  0.1482
  188SAPI   H9X21687   6.324   2.763   8.216  1.1979  0.1369 -1.2981
  188SAPI   H9Y21688   6.154   2.814   8.258 -0.6686 -1.7745 -0.4715
  188SAPI  C31021689   6.281   2.975   8.216  0.4382 -0.5175  0.8855
  188SAPI  H10X21690   6.189   3.038   8.213  1.1633  0.5189  0.0925
  188SAPI  H10Y21691   6.342   3.007   8.128 -0.2625  1.0649  0.9513
  188SAPI  C31121692   6.359   2.991   8.345  0.3140 -0.4143 -0.3433
  188SAPI  H11X21693   6.454   2.934   8.338  1.1372  0.7039  1.3941
  188SAPI  H11Y21694   6.306   2.954   8.436 -1.4160  3.2460  0.2384
  188SAPI  C31221695   6.375   3.138   8.382 -0.0900 -0.8331  0.4617
  188SAPI  H12X21696   6.275   3.187   8.375 -0.1698 -0.7903  1.8487
  188SAPI  H12Y21697   6.443   3.183   8.306  0.5690 -3.5874 -0.6570
  188SAPI  C31321698   6.431   3.156   8.526 -0.8288 -0.4094  0.8875
  188SAPI  H13X21699   6.518   3.087   8.534 -0.6181 -0.3242 -0.5625
  188SAPI  H13Y21700   6.356   3.126   8.602 -2.2245  0.7006 -0.0191
  188SAPI  C31421701   6.468   3.302   8.564 -0.4233 -0.3854 -0.2761
  188SAPI  H14X21702   6.556   3.314   8.497 -0.7333  2.3570 -0.2331
  188SAPI  H14Y21703   6.507   3.306   8.668 -1.0851  2.6285 -0.1094
  188SAPI  C31521704   6.362   3.412   8.547  0.2860  0.2028 -0.1274
  188SAPI  H15X21705   6.278   3.389   8.616 -1.6831  2.7276 -1.5639
  188SAPI  H15Y21706   6.318   3.406   8.445 -0.2813  1.0547  0.0587
  188SAPI  C31621707   6.408   3.552   8.587  0.0208 -0.3377  0.3851
  188SAPI  H16X21708   6.448   3.554   8.691  0.5992  0.5063  0.1492
  188SAPI  H16Y21709   6.317   3.616   8.583 -0.5723 -1.1203  0.9954
  188SAPI  C31721710   6.509   3.606   8.492  0.3958 -0.2971  0.2065
  188SAPI  H17X21711   6.470   3.620   8.389 -2.4817  1.0108  1.4220
  188SAPI  H17Y21712   6.595   3.538   8.476  2.6113  2.4943 -0.2699
  188SAPI  C31821713   6.573   3.741   8.547  0.7986  0.3214  0.3031
  188SAPI  H18X21714   6.503   3.822   8.521  0.4611 -0.0231  0.1452
  188SAPI  H18Y21715   6.668   3.759   8.492  0.4687 -2.3409 -1.2256
  188SAPI  H18Z21716   6.584   3.733   8.658  0.6684 -0.4044  0.2654
  189POPC     N21717   5.912   3.503  11.010 -0.0124 -0.0689 -0.2092
  189POPC   C1221718   6.005   3.622  10.959 -0.0258 -0.5352  0.5958
  189POPC  H12A21719   6.105   3.583  10.945  0.7926  2.1664 -1.7700
  189POPC  H12B21720   5.998   3.700  11.033 -2.9460 -1.3513  1.2302
  189POPC   C1321721   5.770   3.535  11.007  0.2625  0.4079 -0.0230
  189POPC  H13A21722   5.740   3.565  10.907  1.5080 -3.0165 -1.4910
  189POPC  H13B21723   5.711   3.450  11.037  0.0971  0.6792  0.4271
  189POPC  H13C21724   5.747   3.618  11.072 -1.6821 -0.0193 -0.1191
  189POPC   C1421725   5.924   3.384  10.923  0.2772  0.9118  0.1320
  189POPC  H14A21726   5.878   3.303  10.977 -2.0922  0.6123 -2.1732
  189POPC  H14B21727   5.858   3.403  10.839  0.4082 -0.3873 -0.2756
  189POPC  H14C21728   6.025   3.366  10.889 -0.1111  1.3087 -1.2697
  189POPC   C1521729   5.960   3.468  11.151  0.2958  0.3127  0.0050
  189POPC  H15A21730   5.958   3.553  11.217  1.5666 -0.9082  1.6632
  189POPC  H15B21731   6.066   3.446  11.149 -0.0565 -1.5262  0.2616
  189POPC  H15C21732   5.906   3.384  11.192  1.6490 -0.7005 -0.2467
  189POPC   C1121733   5.974   3.699  10.828 -0.2987  0.5231 -0.0546
  189POPC  H11A21734   5.973   3.625  10.746  0.3309  2.4042 -1.8019
  189POPC  H11B21735   6.049   3.775  10.795  1.1774 -0.0944  1.7524
  189POPC     P21736   5.813   3.893  10.913 -0.5112  0.0867 -0.1190
  189POPC   O1321737   5.902   3.910  11.033  0.0992  0.5694 -0.0609
  189POPC   O1421738   5.671   3.911  10.946 -0.4528 -0.6874  0.1850
  189POPC   O1221739   5.840   3.762  10.834  0.4979 -0.3558 -0.1640
  189POPC   O1121740   5.862   4.007  10.814  0.7073 -0.1220 -0.1049
  189POPC    C121741   5.823   4.020  10.680 -0.0484  0.6342  0.5856
  189POPC    HA21742   5.728   4.078  10.679  0.7310  1.9014 -0.2225
  189POPC    HB21743   5.801   3.922  10.633 -2.8367  0.5670  1.8927
  189POPC    C221744   5.927   4.101  10.592  0.0939  0.2614  0.0622
  189POPC    HS21745   5.856   4.135  10.514 -0.3385 -1.2851 -0.2320
  189POPC   O2121746   6.026   4.008  10.544  0.0078  0.0923  0.0446
  189POPC   C2121747   6.002   3.949  10.429  0.3197  0.2648  0.8264
  189POPC   O2221748   5.906   3.970  10.355  0.6950  0.1666  0.4362
  189POPC   C2221749   6.121   3.863  10.404 -0.1401  0.9247  0.1973
  189POPC   H2R21750   6.145   3.801  10.493 -0.2224  0.5926 -0.0100
  189POPC   H2S21751   6.209   3.928  10.387  0.3058  0.1783 -0.3726
  189POPC    C321752   6.000   4.219  10.652  0.2692  0.4897  0.0695
  189POPC    HX21753   6.079   4.175  10.718  0.2726  1.3276  0.6404
  189POPC    HY21754   5.933   4.282  10.714 -0.0452  2.1918 -1.9651
  189POPC   O3121755   6.064   4.303  10.553  0.5497  0.1217 -0.0183
  189POPC   C3121756   6.195   4.268  10.520 -0.0837 -0.0915 -0.3419
  189POPC   O3221757   6.252   4.177  10.575 -0.1892 -0.1432  0.6074
  189POPC   C3221758   6.261   4.362  10.423 -0.2540  0.1811  0.0514
  189POPC   H2X21759   6.337   4.421  10.478 -0.5799 -1.4597  2.3197
  189POPC   H2Y21760   6.199   4.425  10.355 -0.8460 -0.1732  0.2565
  189POPC   C2321761   6.111   3.764  10.285  0.1282 -0.0793  0.0018
  189POPC   H3R21762   6.011   3.716  10.290 -0.3187  0.8800  0.4941
  189POPC   H3S21763   6.192   3.689  10.292  1.1171  1.0012  0.2691
  189POPC   C2421764   6.122   3.840  10.152 -0.0147  0.4839  0.1102
  189POPC   H4R21765   6.221   3.889  10.162 -0.4682  1.1591  1.3551
  189POPC   H4S21766   6.044   3.918  10.139 -1.1996 -0.4136  1.6743
  189POPC   C2521767   6.105   3.744  10.028  0.8284 -0.3723 -1.0166
  189POPC   H5R21768   6.001   3.718   9.999  0.5866  0.5823 -1.0195
  189POPC   H5S21769   6.151   3.648  10.061 -0.1601 -0.0330  1.4762
  189POPC   C2621770   6.173   3.789   9.896  0.5922  0.0260  0.4256
  189POPC   H6R21771   6.284   3.796   9.908  0.4471  1.0169  1.2386
  189POPC   H6S21772   6.130   3.880   9.850  4.0263  0.0037 -3.1014
  189POPC   C2721773   6.164   3.678   9.789  0.2637 -0.0793 -0.0071
  189POPC   H7R21774   6.056   3.657   9.777  0.5869 -1.7652 -0.0897
  189POPC   H7S21775   6.204   3.583   9.830 -0.0756  0.0554  0.6493
  189POPC   C2821776   6.223   3.710   9.646  0.4218  0.2205 -0.0813
  189POPC   H8R21777   6.315   3.765   9.675 -0.1076  1.4655 -0.7105
  189POPC   H8S21778   6.168   3.786   9.587  2.3213  1.0980 -0.7633
  189POPC   C2921779   6.251   3.591   9.556 -0.0360 -0.7997 -0.8332
  189POPC   H9121780   6.206   3.494   9.583 -0.4549 -0.3303  0.1618
  189POPC  C21021781   6.334   3.609   9.447  0.2323 -0.2978  0.5163
  189POPC  H10121782   6.366   3.525   9.383 -2.2273 -0.1070 -1.0120
  189POPC  C21121783   6.399   3.747   9.410  0.6186  0.1884 -0.3839
  189POPC  H11R21784   6.432   3.807   9.497  0.0893  1.3905 -0.9947
  189POPC  H11S21785   6.318   3.801   9.355 -0.1747 -2.7838 -2.2534
  189POPC  C21221786   6.528   3.733   9.329  0.0805  0.4473  0.0948
  189POPC  H12R21787   6.517   3.666   9.241 -0.6063 -0.5938  0.9620
  189POPC  H12S21788   6.605   3.685   9.394  0.1980  0.1756 -0.2418
  189POPC  C21321789   6.591   3.864   9.278 -0.1020  0.3488  0.3572
  189POPC  H13R21790   6.610   3.927   9.367  1.1480  0.6609 -0.1199
  189POPC  H13S21791   6.513   3.918   9.220  0.1644  0.2501 -0.0976
  189POPC  C21421792   6.711   3.843   9.186 -0.4764 -0.6907  0.3024
  189POPC  H14R21793   6.685   3.771   9.105 -1.4533 -1.7113  1.4774
  189POPC  H14S21794   6.784   3.779   9.240  1.4768 -0.1954 -1.7285
  189POPC  C21521795   6.770   3.970   9.142 -1.2649 -0.1874 -0.0990
  189POPC  H15R21796   6.831   4.025   9.217  0.6714  0.0501 -1.7928
  189POPC  H15S21797   6.691   4.041   9.109 -0.6619  0.4177 -0.2561
  189POPC  C21621798   6.845   3.948   9.016 -0.3147  0.1868  0.3814
  189POPC  H16R21799   6.904   3.856   9.035 -0.0845  0.3032  0.2378
  189POPC  H16S21800   6.918   4.032   9.001  1.9260 -1.5544  1.2060
  189POPC  C21721801   6.768   3.935   8.886  0.4526 -0.1283 -0.5574
  189POPC  H17R21802   6.701   4.023   8.874 -1.2700 -1.1472  1.1265
  189POPC  H17S21803   6.712   3.839   8.887  0.1466  0.0492 -0.1215
  189POPC  C21821804   6.854   3.918   8.754 -0.4054  0.2486 -0.1342
  189POPC  H18R21805   6.788   3.909   8.666 -1.0746  3.5182  0.0016
  189POPC  H18S21806   6.909   3.822   8.771 -1.3321 -0.2891 -0.1492
  189POPC  H18T21807   6.930   3.998   8.740  0.6189 -0.3608  1.6967
  189POPC   C3321808   6.359   4.295  10.321 -0.3848  0.0106  0.3805
  189POPC   H3X21809   6.433   4.230  10.373 -1.3294 -0.0518  1.6485
  189POPC   H3Y21810   6.415   4.378  10.272  0.0323 -0.2896  0.3434
  189POPC   C3421811   6.280   4.204  10.221  0.3743 -0.3126 -0.7841
  189POPC   H4X21812   6.176   4.243  10.213 -0.3837 -2.3558 -1.0953
  189POPC   H4Y21813   6.295   4.108  10.274  0.1754  0.6390  1.0375
  189POPC   C3521814   6.349   4.192  10.088 -0.0686 -0.6106  0.0407
  189POPC   H5X21815   6.445   4.138  10.106 -0.3107 -0.2689  2.5552
  189POPC   H5Y21816   6.377   4.297  10.064 -1.4071 -0.3401 -0.3881
  189POPC   C3621817   6.268   4.127   9.967 -0.3176 -0.7856 -0.1618
  189POPC   H6X21818   6.174   4.187   9.963  0.8843  1.1244 -0.2077
  189POPC   H6Y21819   6.229   4.026   9.992  1.3439 -1.2401  0.6594
  189POPC   C3721820   6.354   4.118   9.843 -0.2634 -0.3114  0.4669
  189POPC   H7X21821   6.314   4.040   9.776  1.7685 -1.0190  0.0363
  189POPC   H7Y21822   6.451   4.072   9.875  0.4472  0.3736 -0.6734
  189POPC   C3821823   6.392   4.252   9.780 -0.1279 -0.2625  0.3798
  189POPC   H8X21824   6.435   4.316   9.860  0.5776 -2.4424  1.8036
  189POPC   H8Y21825   6.297   4.305   9.756  0.1173  1.5672  3.2383
  189POPC   C3921826   6.474   4.253   9.651  0.1175  0.1214 -0.2826
  189POPC   H9X21827   6.567   4.196   9.668 -0.9114 -1.1966  1.0224
  189POPC   H9Y21828   6.505   4.357   9.626  0.1398  0.1706 -0.0573
  189POPC  C31021829   6.386   4.204   9.528  0.4777 -0.5221  0.0944
  189POPC  H10X21830   6.295   4.267   9.529 -0.6111 -2.0512 -0.6057
  189POPC  H10Y21831   6.356   4.098   9.545 -4.0121  0.6915  0.1284
  189POPC  C31121832   6.442   4.227   9.385 -0.2908 -0.7763 -0.3599
  189POPC  H11X21833   6.523   4.157   9.355  2.3976  3.1150 -2.6811
  189POPC  H11Y21834   6.487   4.329   9.385 -0.2024 -0.8141 -0.5618
  189POPC  C31221835   6.326   4.218   9.277 -0.5823  0.1334 -0.0778
  189POPC  H12X21836   6.250   4.295   9.302 -0.1069  0.2593  0.9970
  189POPC  H12Y21837   6.283   4.115   9.279 -0.5769  0.0126 -3.1476
  189POPC  C31321838   6.380   4.228   9.130  0.5551 -0.6813  0.6082
  189POPC  H13X21839   6.470   4.163   9.138  0.9650 -0.0918  0.8217
  189POPC  H13Y21840   6.414   4.333   9.120 -1.1672 -0.0151  1.5257
  189POPC  C31421841   6.288   4.186   9.018  0.0976 -0.1490 -0.4029
  189POPC  H14X21842   6.219   4.272   9.010  2.2053  1.6601  0.2983
  189POPC  H14Y21843   6.236   4.091   9.040 -1.2102  0.1500 -2.0690
  189POPC  C31521844   6.352   4.169   8.878  1.0370 -0.0689  0.3182
  189POPC  H15X21845   6.273   4.144   8.803 -0.7273  1.5367  1.6078
  189POPC  H15Y21846   6.414   4.077   8.882  1.6824  0.3987  1.2225
  189POPC  C31621847   6.429   4.290   8.828 -0.5425 -0.4497  0.1776
  189POPC  H16X21848   6.527   4.293   8.879 -0.4674 -3.2731  0.2967
  189POPC  H16Y21849   6.377   4.386   8.846  0.7848  0.4227 -0.5316
  189POPC  H16Z21850   6.451   4.290   8.719  3.6299  0.3963  0.9417
  190POPC     N21851   1.743   1.027  11.250 -0.5798 -0.2334 -0.3392
  190POPC   C1221852   1.812   1.089  11.131  0.1593  0.4002  0.4248
  190POPC  H12A21853   1.776   1.190  11.133  0.2465  0.4431 -0.1523
  190POPC  H12B21854   1.781   1.040  11.040  0.8035  0.9754 -0.1110
  190POPC   C1321855   1.598   1.007  11.229 -0.7095 -0.2167  0.5968
  190POPC  H13A21856   1.536   1.095  11.243  0.1139  0.4663 -0.0104
  190POPC  H13B21857   1.578   0.965  11.132 -2.0458 -0.6400  1.0454
  190POPC  H13C21858   1.559   0.935  11.300  1.3427 -1.5158  0.4344
  190POPC   C1421859   1.811   0.892  11.285  1.0656 -0.2045 -0.5153
  190POPC  H14A21860   1.913   0.908  11.315  0.1568  0.9694  2.0985
  190POPC  H14B21861   1.759   0.852  11.371 -0.5308  1.6377 -0.5903
  190POPC  H14C21862   1.805   0.821  11.204 -0.4960 -1.5178  0.7199
  190POPC   C1521863   1.746   1.117  11.370  0.2722  0.6056  1.0269
  190POPC  H15A21864   1.846   1.154  11.390  1.0838 -0.9217 -0.1083
  190POPC  H15B21865   1.717   1.072  11.464  0.1095 -2.0233 -0.2324
  190POPC  H15C21866   1.678   1.198  11.350  1.9431  1.8862  0.4445
  190POPC   C1121867   1.965   1.074  11.118  0.3863  0.5133 -0.4111
  190POPC  H11A21868   2.001   1.081  11.223  3.2363 -2.5931 -1.1132
  190POPC  H11B21869   2.008   1.157  11.058  1.4840  1.2001  1.2829
  190POPC     P21870   2.111   0.916  10.973  0.0939  0.1260 -0.0744
  190POPC   O1321871   2.108   0.767  10.948  0.3088 -0.0933 -0.1260
  190POPC   O1421872   2.231   0.987  11.030  0.0987 -0.0709  0.0257
  190POPC   O1221873   1.989   0.940  11.067 -0.5440  0.1217 -0.3073
  190POPC   O1121874   2.074   0.999  10.840  0.1043  0.3164 -0.3584
  190POPC    C121875   1.942   0.996  10.784 -0.2148 -0.1360  0.4020
  190POPC    HA21876   1.904   1.095  10.750 -1.1705 -0.4905  0.4273
  190POPC    HB21877   1.871   0.959  10.861 -2.3276  0.2762 -1.2954
  190POPC    C221878   1.936   0.903  10.664 -0.9598 -0.8360 -0.0374
  190POPC    HS21879   1.977   0.808  10.704 -0.0806 -0.1113  0.7963
  190POPC   O2121880   2.025   0.956  10.562  0.5306 -0.5666  0.1080
  190POPC   C2121881   2.146   0.899  10.543  0.3733  0.2001  0.1853
  190POPC   O2221882   2.179   0.793  10.595  0.0858 -0.6115 -0.2523
  190POPC   C2221883   2.235   0.987  10.442 -0.3118  0.8887 -0.7417
  190POPC   H2R21884   2.338   0.982  10.483 -0.7157 -0.9238  0.1261
  190POPC   H2S21885   2.196   1.091  10.442 -0.5574  0.7932 -1.8128
  190POPC    C321886   1.793   0.885  10.610  0.3361 -0.0059  0.0724
  190POPC    HX21887   1.746   0.985  10.599 -0.0922 -0.1911  0.2094
  190POPC    HY21888   1.747   0.820  10.688  0.5694  0.0230  0.2345
  190POPC   O3121889   1.804   0.825  10.486  0.7943 -0.0923  0.0240
  190POPC   C3121890   1.813   0.692  10.471  0.2688  0.4647  0.4554
  190POPC   O3221891   1.819   0.612  10.565 -0.2587 -0.0962  0.5477
  190POPC   C3221892   1.807   0.662  10.321 -0.1139  0.2940 -0.4338
  190POPC   H2X21893   1.880   0.729  10.270  2.8826  0.4462  3.8105
  190POPC   H2Y21894   1.704   0.678  10.282 -0.4353  1.0702  0.6993
  190POPC   C2321895   2.239   0.935  10.293 -0.5650 -0.5223  0.2245
  190POPC   H3R21896   2.304   0.845  10.285 -0.0208 -0.0916 -0.2302
  190POPC   H3S21897   2.298   0.998  10.224  0.3295 -1.7751 -0.1784
  190POPC   C2421898   2.104   0.910  10.225  0.3264  0.1993  0.2831
  190POPC   H4R21899   2.024   0.986  10.241 -1.4429 -1.4965 -0.3162
  190POPC   H4S21900   2.055   0.821  10.271 -0.5168  0.2923 -0.4217
  190POPC   C2521901   2.121   0.903  10.071 -0.1890 -0.5510 -0.2673
  190POPC   H5R21902   2.039   0.857  10.011  0.3418 -0.6233 -0.9432
  190POPC   H5S21903   2.214   0.848  10.044 -0.2620 -0.2123 -1.2557
  190POPC   C2621904   2.148   1.048  10.000 -0.1756  0.8711  0.5491
  190POPC   H6R21905   2.206   1.115  10.068  0.9389  1.2890 -0.8108
  190POPC   H6S21906   2.058   1.114   9.997 -0.4652  0.6241  2.8529
  190POPC   C2721907   2.216   1.035   9.867 -0.3067 -0.0459 -0.0151
  190POPC   H7R21908   2.296   0.959   9.856  0.0072  0.2298  0.3848
  190POPC   H7S21909   2.254   1.137   9.843  2.7504 -0.9151  1.0390
  190POPC   C2821910   2.114   1.013   9.747 -0.6219 -0.2148 -0.6364
  190POPC   H8R21911   2.158   1.073   9.664 -0.9069 -1.6296 -1.8170
  190POPC   H8S21912   2.017   1.059   9.775 -0.9693 -0.4573 -1.4213
  190POPC   C2921913   2.091   0.870   9.710  0.3123  0.5456  0.1140
  190POPC   H9121914   2.047   0.795   9.778 -2.4511  0.5616 -1.5799
  190POPC  C21021915   2.122   0.824   9.583 -0.2078 -0.0603 -0.4385
  190POPC  H10121916   2.102   0.717   9.571  0.6918 -0.2072 -0.6721
  190POPC  C21121917   2.190   0.896   9.468  0.4167  0.6231 -0.3555
  190POPC  H11R21918   2.158   1.001   9.446 -2.1569 -0.4326 -2.0149
  190POPC  H11S21919   2.162   0.839   9.377 -1.6931 -1.8622  1.7750
  190POPC  C21221920   2.342   0.889   9.453  1.2750 -0.0573  0.2780
  190POPC  H12R21921   2.380   0.785   9.458  1.1298 -0.0797  0.9282
  190POPC  H12S21922   2.384   0.941   9.542 -1.0618 -0.5273  1.7081
  190POPC  C21321923   2.401   0.961   9.330 -0.2088 -0.4882 -0.3250
  190POPC  H13R21924   2.357   1.063   9.329  0.9052  0.0384  1.2144
  190POPC  H13S21925   2.367   0.911   9.237 -2.1978  0.7495 -0.3092
  190POPC  C21421926   2.555   0.986   9.331 -0.2095  0.3827  0.2747
  190POPC  H14R21927   2.605   0.886   9.328 -0.6888  0.1948 -1.6739
  190POPC  H14S21928   2.583   1.036   9.426 -1.2880  1.0286  0.2498
  190POPC  C21521929   2.609   1.075   9.219  0.2166 -0.2207  0.1278
  190POPC  H15R21930   2.568   1.019   9.132 -0.4260 -0.8005  0.7997
  190POPC  H15S21931   2.720   1.066   9.214  0.4311  2.9004 -2.5536
  190POPC  C21621932   2.570   1.220   9.211 -0.1419 -0.3651 -1.0219
  190POPC  H16R21933   2.618   1.284   9.287 -0.1778 -2.3076  0.7113
  190POPC  H16S21934   2.460   1.234   9.223 -0.2275 -1.5141 -0.3106
  190POPC  C21721935   2.613   1.282   9.069  0.8134 -0.1350 -0.5235
  190POPC  H17R21936   2.722   1.263   9.058  0.8346 -1.5384  1.7710
  190POPC  H17S21937   2.592   1.391   9.073 -1.2580 -0.4752 -1.4619
  190POPC  C21821938   2.548   1.229   8.942 -0.2357 -0.2243 -0.2702
  190POPC  H18R21939   2.549   1.118   8.945 -0.6335 -0.2722 -1.5364
  190POPC  H18S21940   2.605   1.269   8.855  1.5811  1.2700  1.5622
  190POPC  H18T21941   2.442   1.254   8.919  0.1734  0.4944 -1.4161
  190POPC   C3321942   1.844   0.517  10.292  0.5598 -0.0703 -0.0283
  190POPC   H3X21943   1.771   0.485  10.214  0.7592  1.0009 -0.6589
  190POPC   H3Y21944   1.819   0.457  10.382  0.4093 -0.4130 -0.2968
  190POPC   C3421945   1.995   0.490  10.252  0.2691  0.1525  0.6355
  190POPC   H4X21946   2.060   0.511  10.340 -1.2471  3.3191  1.0635
  190POPC   H4Y21947   2.018   0.562  10.170  0.4693 -2.0948 -1.3409
  190POPC   C3521948   2.021   0.346  10.199 -0.4149 -0.5110 -0.2845
  190POPC   H5X21949   1.982   0.270  10.270 -1.8501 -0.4271 -0.9715
  190POPC   H5Y21950   2.128   0.324  10.180 -0.4468 -0.3128 -0.6803
  190POPC   C3621951   1.941   0.309  10.075  0.7891  0.5636  0.3796
  190POPC   H6X21952   1.833   0.329  10.091  0.4726 -0.4727 -0.4150
  190POPC   H6Y21953   1.953   0.199  10.076  1.3606  0.6331  1.5815
  190POPC   C3721954   1.985   0.391   9.962 -0.0817 -0.9199 -0.4014
  190POPC   H7X21955   2.092   0.419   9.967 -0.5925  0.8426  1.3558
  190POPC   H7Y21956   1.931   0.488   9.966  2.1656  0.3167  0.6601
  190POPC   C3821957   1.951   0.318   9.833  0.8191 -0.4945 -0.2145
  190POPC   H8X21958   1.846   0.280   9.839  0.2645  0.6893 -2.2023
  190POPC   H8Y21959   2.028   0.239   9.817  0.7436 -0.3115 -1.4713
  190POPC   C3921960   1.966   0.412   9.711 -0.2671 -0.1631 -0.7131
  190POPC   H9X21961   2.074   0.428   9.696  0.1988 -1.4268  1.0434
  190POPC   H9Y21962   1.921   0.510   9.739  0.2007 -0.2867  0.4954
  190POPC  C31021963   1.908   0.340   9.590 -0.4539  0.0907  0.0578
  190POPC  H10X21964   1.799   0.318   9.597 -0.4716 -0.8896 -2.9135
  190POPC  H10Y21965   1.959   0.248   9.558 -2.0785 -0.8496  0.1059
  190POPC  C31121966   1.916   0.439   9.471  0.1251  0.7285  0.6273
  190POPC  H11X21967   2.008   0.501   9.462 -0.3595  1.2501 -0.9351
  190POPC  H11Y21968   1.842   0.519   9.494 -0.2936  0.2747  0.8528
  190POPC  C31221969   1.882   0.376   9.338  0.5600  1.2438 -0.1926
  190POPC  H12X21970   1.774   0.382   9.314  0.1734 -3.6116 -0.2146
  190POPC  H12Y21971   1.918   0.271   9.335 -1.4959  0.5269 -1.1022
  190POPC  C31321972   1.968   0.442   9.219 -0.2075 -0.3579 -0.2840
  190POPC  H13X21973   2.063   0.466   9.272 -2.0053  0.7616  2.5533
  190POPC  H13Y21974   1.918   0.536   9.188 -0.8454 -0.8380 -0.7032
  190POPC  C31421975   1.998   0.350   9.097  0.5202  0.6408 -0.6154
  190POPC  H14X21976   1.913   0.347   9.026 -0.4433  1.2808  0.4974
  190POPC  H14Y21977   2.033   0.249   9.128 -0.0011  1.2208  1.9545
  190POPC  C31521978   2.124   0.398   9.015 -0.4093 -0.0021  0.0680
  190POPC  H15X21979   2.171   0.305   8.977 -2.5243 -0.4360 -1.6274
  190POPC  H15Y21980   2.196   0.440   9.088 -0.7340 -0.2984  0.5649
  190POPC  C31621981   2.096   0.489   8.900 -0.6196 -0.7582  0.0596
  190POPC  H16X21982   2.056   0.584   8.941  1.5834 -0.5640  1.9058
  190POPC  H16Y21983   2.017   0.458   8.829 -0.1231 -0.7085 -0.5125
  190POPC  H16Z21984   2.185   0.513   8.838 -0.5379 -0.6012  0.2369
  191POPC     N21985   1.576   1.550   6.035 -0.0467  0.4679 -0.0148
  191POPC   C1221986   1.570   1.698   6.003  0.0453  0.2100 -0.1702
  191POPC  H12A21987   1.469   1.733   6.015 -0.0285 -0.4709  1.3277
  191POPC  H12B21988   1.596   1.709   5.899  0.6455  0.5374  0.0133
  191POPC   C1321989   1.717   1.504   6.033  0.5114  0.8991 -0.2986
  191POPC  H13A21990   1.728   1.397   6.025  0.3289  0.8737 -0.2068
  191POPC  H13B21991   1.778   1.552   5.958 -0.7391  1.1218 -1.1705
  191POPC  H13C21992   1.763   1.527   6.129 -0.9586 -1.4675  1.0313
  191POPC   C1421993   1.515   1.513   6.170  0.0814 -0.2455 -0.7050
  191POPC  H14A21994   1.412   1.547   6.170 -0.3143 -1.4182 -1.7499
  191POPC  H14B21995   1.516   1.408   6.195  1.1506  0.2255  1.3321
  191POPC  H14C21996   1.569   1.568   6.246  1.7302  0.2544 -2.2071
  191POPC   C1521997   1.490   1.489   5.934 -0.5878 -0.9116 -0.6502
  191POPC  H15A21998   1.541   1.491   5.839 -0.0080 -0.6668 -0.3368
  191POPC  H15B21999   1.399   1.545   5.918  0.4673  1.2869  0.6570
  191POPC  H15C22000   1.459   1.388   5.953 -4.4840 -0.0573 -2.1186
  191POPC   C1122001   1.674   1.789   6.080  0.3954  0.0522 -0.3406
  191POPC  H11A22002   1.660   1.889   6.033  1.5828 -0.3699 -1.6460
  191POPC  H11B22003   1.778   1.759   6.053  0.0192  0.3719 -2.2615
  191POPC     P22004   1.532   1.865   6.288  0.0183  0.7362  0.5307
  191POPC   O1322005   1.412   1.776   6.277 -0.0048  0.5213 -0.7900
  191POPC   O1422006   1.506   2.001   6.233 -0.4400 -0.6333 -0.0400
  191POPC   O1222007   1.658   1.792   6.223 -0.5118 -0.3571  0.2239
  191POPC   O1122008   1.563   1.881   6.446  0.0631  0.2114  0.6556
  191POPC    C122009   1.646   1.789   6.510 -0.2957  0.7891  0.1122
  191POPC    HA22010   1.752   1.821   6.506 -0.6564  1.9545 -0.4720
  191POPC    HB22011   1.645   1.695   6.451  0.4612  0.7675  0.1218
  191POPC    C222012   1.608   1.770   6.659  0.6971 -0.8363 -0.3035
  191POPC    HS22013   1.508   1.722   6.667  0.1499  0.5126  1.3587
  191POPC   O2122014   1.614   1.899   6.726  0.5503 -0.4454 -0.4863
  191POPC   C2122015   1.532   1.913   6.829  0.4312 -0.3099  0.8245
  191POPC   O2222016   1.454   1.833   6.871  0.2293  0.0446 -0.1745
  191POPC   C2222017   1.545   2.056   6.886  0.1563 -0.9919  0.1692
  191POPC   H2R22018   1.490   2.124   6.818  0.9829 -1.4056 -0.9321
  191POPC   H2S22019   1.652   2.084   6.875  0.7642 -4.0743 -2.5152
  191POPC    C322020   1.699   1.668   6.736 -0.4632 -0.5514  0.3198
  191POPC    HX22021   1.794   1.725   6.733 -0.8039 -0.0675 -1.7455
  191POPC    HY22022   1.723   1.569   6.692 -1.7866 -1.0674  0.7375
  191POPC   O3122023   1.658   1.654   6.871 -0.5407  0.6036  0.5377
  191POPC   C3122024   1.588   1.545   6.903 -0.1283 -0.1122  0.3589
  191POPC   O3222025   1.557   1.456   6.822 -0.2012 -0.2042 -0.2348
  191POPC   C3222026   1.562   1.538   7.052  0.2893  0.2526  0.5676
  191POPC   H2X22027   1.536   1.640   7.086  1.5247  1.7309 -2.7696
  191POPC   H2Y22028   1.649   1.498   7.107  2.4134  2.1954 -1.2789
  191POPC   C2322029   1.492   2.071   7.032  0.7946  1.1955  0.5076
  191POPC   H3R22030   1.383   2.051   7.043  0.5895  0.3255 -2.5406
  191POPC   H3S22031   1.510   2.173   7.073  1.4910  1.6033 -0.7667
  191POPC   C2422032   1.558   1.975   7.124  0.2832 -0.4726 -0.5493
  191POPC   H4R22033   1.666   1.997   7.134 -0.4966  2.5198  2.4779
  191POPC   H4S22034   1.549   1.871   7.088  0.3918 -0.5674 -0.3055
  191POPC   C2522035   1.500   1.997   7.271 -0.2730 -0.4420  0.9593
  191POPC   H5R22036   1.392   1.970   7.270 -0.3696 -0.0942 -1.3760
  191POPC   H5S22037   1.510   2.106   7.288 -1.2579 -0.0889 -0.5837
  191POPC   C2622038   1.570   1.919   7.384  1.0198 -0.9617  0.0889
  191POPC   H6R22039   1.677   1.946   7.401  1.5372 -3.7582  1.6441
  191POPC   H6S22040   1.557   1.810   7.369  2.2348 -1.2065  0.6921
  191POPC   C2722041   1.490   1.965   7.509  0.3125  0.0320  0.6320
  191POPC   H7R22042   1.389   1.921   7.495 -1.0559  2.5356  2.2383
  191POPC   H7S22043   1.480   2.075   7.502 -0.6142 -0.1077 -0.4063
  191POPC   C2822044   1.539   1.918   7.647  0.0526 -0.3551 -0.7035
  191POPC   H8R22045   1.524   1.808   7.639  3.6756 -0.9392 -0.2395
  191POPC   H8S22046   1.477   1.966   7.725  1.4185 -0.2178  0.3058
  191POPC   C2922047   1.686   1.947   7.680 -0.2887 -0.0071 -0.2773
  191POPC   H9122048   1.754   1.948   7.593  1.9917  0.1829  1.4757
  191POPC  C21022049   1.731   1.956   7.804  1.2706 -0.2033 -0.6521
  191POPC  H10122050   1.834   1.989   7.827  0.9159 -1.0429  2.3095
  191POPC  C21122051   1.650   1.946   7.932 -0.0020  0.5487  0.4194
  191POPC  H11R22052   1.687   1.856   7.986  0.7713 -1.1198 -2.7721
  191POPC  H11S22053   1.540   1.944   7.915 -0.1910 -1.8147  1.6901
  191POPC  C21222054   1.659   2.062   8.033 -0.7887 -0.6612 -0.1775
  191POPC  H12R22055   1.572   2.070   8.101  0.5523  1.9835  1.3335
  191POPC  H12S22056   1.667   2.157   7.978  1.5959 -0.4252  0.5042
  191POPC  C21322057   1.793   2.051   8.120  0.6044  0.9686 -0.1146
  191POPC  H13R22058   1.878   2.050   8.048  1.9662  0.9720  1.4364
  191POPC  H13S22059   1.796   1.951   8.170  3.0979  1.1224  0.1457
  191POPC  C21422060   1.810   2.166   8.224 -0.2117  0.3593 -0.1980
  191POPC  H14R22061   1.822   2.266   8.177 -0.8338  0.0848 -0.9435
  191POPC  H14S22062   1.904   2.144   8.280  1.0392  0.1589 -2.3167
  191POPC  C21522063   1.700   2.175   8.337  0.1278 -0.6894 -0.1921
  191POPC  H15R22064   1.682   2.067   8.353 -0.0032 -0.2279  3.1829
  191POPC  H15S22065   1.602   2.215   8.305  0.2042 -1.3353 -1.2674
  191POPC  C21622066   1.741   2.235   8.471  0.1130 -0.0781 -0.1671
  191POPC  H16R22067   1.780   2.336   8.447  1.7063 -0.7232 -0.3240
  191POPC  H16S22068   1.821   2.174   8.516 -0.1213 -1.0745 -1.0571
  191POPC  C21722069   1.627   2.253   8.572  0.6428 -0.7280  0.0902
  191POPC  H17R22070   1.554   2.169   8.580  1.6013 -1.6598 -0.7635
  191POPC  H17S22071   1.576   2.341   8.526  1.7833 -1.6324 -3.0138
  191POPC  C21822072   1.687   2.297   8.707  0.3805 -0.5091  0.1421
  191POPC  H18R22073   1.756   2.224   8.754  1.5562 -0.2454 -1.1541
  191POPC  H18S22074   1.610   2.323   8.783  1.0606  0.3936  0.5364
  191POPC  H18T22075   1.755   2.382   8.686 -1.6528  1.1767  0.1959
  191POPC   C3322076   1.436   1.452   7.084 -0.5994  1.0641  0.0982
  191POPC   H3X22077   1.455   1.355   7.033  1.0845  1.1164  0.5691
  191POPC   H3Y22078   1.350   1.490   7.025 -0.1312  0.7194 -0.8139
  191POPC   C3422079   1.416   1.445   7.231 -0.1672 -0.0784  0.3812
  191POPC   H4X22080   1.492   1.385   7.285 -3.2240 -2.9331  1.6843
  191POPC   H4Y22081   1.330   1.376   7.248 -0.4249  0.1017 -0.1512
  191POPC   C3522082   1.389   1.577   7.301  0.4521 -0.2937  0.0984
  191POPC   H5X22083   1.306   1.615   7.238  0.3215  1.0233  1.0528
  191POPC   H5Y22084   1.472   1.650   7.291 -0.9266  1.2625 -0.1648
  191POPC   C3622085   1.335   1.554   7.441  0.7264 -0.1957 -0.2212
  191POPC   H6X22086   1.262   1.470   7.443  2.7419 -1.9858  0.4164
  191POPC   H6Y22087   1.283   1.644   7.480 -2.0705 -1.7088 -0.3632
  191POPC   C3722088   1.441   1.492   7.525 -0.1906 -0.0935 -0.2342
  191POPC   H7X22089   1.522   1.568   7.518  0.8626 -1.1619  0.1281
  191POPC   H7Y22090   1.491   1.401   7.486 -3.3369 -2.5905  1.3773
  191POPC   C3822091   1.404   1.475   7.677 -0.1871  0.0703  0.2459
  191POPC   H8X22092   1.316   1.407   7.683 -1.6316  1.8192 -0.7904
  191POPC   H8Y22093   1.366   1.574   7.709 -3.1613 -0.3757 -1.7289
  191POPC   C3922094   1.529   1.437   7.761 -0.3871 -0.1351 -0.7389
  191POPC   H9X22095   1.610   1.511   7.745 -0.6669  0.2917 -0.1991
  191POPC   H9Y22096   1.583   1.343   7.738  1.2678 -0.1794  3.0255
  191POPC  C31022097   1.504   1.430   7.913 -0.1229  0.6848  0.4541
  191POPC  H10X22098   1.460   1.525   7.951 -0.3688  0.6514  0.2516
  191POPC  H10Y22099   1.605   1.418   7.960  0.2977  0.4888 -0.4932
  191POPC  C31122100   1.418   1.314   7.963  0.2169 -0.2619  0.4945
  191POPC  H11X22101   1.449   1.212   7.930 -2.0659 -0.3819 -1.4157
  191POPC  H11Y22102   1.322   1.324   7.908  1.4213  0.0943 -1.5982
  191POPC  C31222103   1.387   1.324   8.111  0.2032  0.0809  0.0430
  191POPC  H12X22104   1.315   1.404   8.139  1.6133  0.8690  1.4925
  191POPC  H12Y22105   1.478   1.351   8.170 -0.7282  2.2847  0.5133
  191POPC  C31322106   1.333   1.198   8.188  0.3576 -0.1010  0.1260
  191POPC  H13X22107   1.399   1.183   8.275  0.2796  1.5725  0.4900
  191POPC  H13Y22108   1.345   1.103   8.132  1.6449  0.0062  0.2063
  191POPC  C31422109   1.190   1.221   8.247 -0.2257 -0.2979 -0.0931
  191POPC  H14X22110   1.106   1.231   8.175  0.1187 -2.2631 -0.8089
  191POPC  H14Y22111   1.188   1.313   8.309 -3.1781  0.3410 -1.0794
  191POPC  C31522112   1.136   1.094   8.328 -0.2386 -0.0671 -0.2813
  191POPC  H15X22113   1.184   1.007   8.277 -0.4464  0.5413 -1.5291
  191POPC  H15Y22114   1.025   1.092   8.333 -0.3729  1.2018 -1.9982
  191POPC  C31622115   1.188   1.105   8.474 -0.2083 -0.3988 -0.5936
  191POPC  H16X22116   1.183   1.013   8.536 -1.7331  0.7238  1.0026
  191POPC  H16Y22117   1.113   1.172   8.521 -0.2326  0.9195 -2.4505
  191POPC  H16Z22118   1.293   1.138   8.484 -1.7910  4.7373  0.6540
  192POPC     N22119   0.162   4.251   5.815  0.0166 -0.9970  0.3660
  192POPC   C1222120   0.203   4.114   5.846 -0.0072  0.1166  0.3944
  192POPC  H12A22121   0.185   4.053   5.759  0.6062 -0.1684  0.4652
  192POPC  H12B22122   0.151   4.059   5.922 -0.5439  0.2272  0.1064
  192POPC   C1322123   0.230   4.294   5.688  0.8015 -0.2064  0.4568
  192POPC  H13A22124   0.229   4.401   5.680 -0.4470 -0.2095  0.4742
  192POPC  H13B22125   0.328   4.249   5.675  1.0279 -0.0456  1.5395
  192POPC  H13C22126   0.181   4.246   5.604 -1.7443  1.3600  1.0179
  192POPC   C1422127   0.016   4.257   5.796  0.2814  0.6711  0.0380
  192POPC  H14A22128  -0.015   4.182   5.726  1.3083 -0.6863  1.0165
  192POPC  H14B22129  -0.037   4.239   5.889  1.1669  3.0812  1.0723
  192POPC  H14C22130   0.003   4.357   5.756 -1.6455  1.1135  1.6496
  192POPC   C1522131   0.183   4.339   5.932  0.3342 -0.4644  0.1633
  192POPC  H15A22132   0.159   4.441   5.906  0.1521 -0.9215 -1.5130
  192POPC  H15B22133   0.289   4.340   5.953  0.2555 -0.9734  0.5926
  192POPC  H15C22134   0.124   4.305   6.016 -0.7124 -4.3984 -2.0803
  192POPC   C1122135   0.350   4.087   5.893 -0.0971 -0.0853  1.0555
  192POPC  H11A22136   0.424   4.129   5.822 -0.9896  1.3261  0.9552
  192POPC  H11B22137   0.365   3.978   5.876  0.3975  0.0441  0.6550
  192POPC     P22138   0.474   4.203   6.094 -0.0114  0.0187  0.0776
  192POPC   O1322139   0.430   4.240   6.227 -0.2677  0.1101 -0.3034
  192POPC   O1422140   0.505   4.313   6.005  0.0409  0.5496  0.1635
  192POPC   O1222141   0.364   4.115   6.031 -0.3896 -0.7617  0.2283
  192POPC   O1122142   0.587   4.093   6.095  0.3198  0.0296  0.0059
  192POPC    C122143   0.552   3.969   6.150 -0.2823 -0.0359  0.1646
  192POPC    HA22144   0.628   3.892   6.126 -0.1197 -0.3411  1.6471
  192POPC    HB22145   0.454   3.927   6.120 -0.1350 -0.9267  0.9364
  192POPC    C222146   0.556   3.961   6.310 -0.2756 -0.1071  0.8091
  192POPC    HS22147   0.460   4.013   6.328 -0.6360 -1.1691  2.0994
  192POPC   O2122148   0.669   4.034   6.356 -0.2322 -0.1127  1.0012
  192POPC   C2122149   0.661   4.094   6.480  0.7501  0.5090  0.0033
  192POPC   O2222150   0.560   4.109   6.544  0.2998  0.2679 -0.1763
  192POPC   C2222151   0.800   4.116   6.540 -0.0613 -0.3379  0.1105
  192POPC   H2R22152   0.818   4.226   6.530 -0.0639 -0.2767  0.7737
  192POPC   H2S22153   0.880   4.069   6.479  0.2730 -1.4566  1.4022
  192POPC    C322154   0.540   3.820   6.363  0.2963  0.0216 -0.2287
  192POPC    HX22155   0.597   3.740   6.311 -0.9888 -0.4850 -0.9117
  192POPC    HY22156   0.441   3.781   6.329  0.2620 -0.6425  0.6144
  192POPC   O3122157   0.559   3.814   6.508  0.1943  0.0551 -0.2002
  192POPC   C3122158   0.443   3.828   6.578 -0.0333 -0.2029  0.3264
  192POPC   O3222159   0.333   3.840   6.531  0.0493 -0.0681  0.6016
  192POPC   C3222160   0.477   3.807   6.725 -0.3213  0.6876  0.2854
  192POPC   H2X22161   0.579   3.837   6.756  1.5299 -3.6111 -1.2802
  192POPC   H2Y22162   0.470   3.698   6.745  0.7998  0.2453 -1.6198
  192POPC   C2322163   0.809   4.067   6.681 -0.7871 -0.5083  0.0339
  192POPC   H3R22164   0.901   4.006   6.694 -0.1821  0.0919 -1.3407
  192POPC   H3S22165   0.728   3.994   6.705 -1.6359  1.1269  2.2968
  192POPC   C2422166   0.834   4.178   6.784  0.1061  0.2061 -0.2232
  192POPC   H4R22167   0.744   4.237   6.808 -0.0069  0.2653 -0.7873
  192POPC   H4S22168   0.908   4.253   6.749  1.0295  0.0751  1.4009
  192POPC   C2522169   0.878   4.118   6.918  0.4535 -0.2207 -0.2470
  192POPC   H5R22170   0.988   4.103   6.920  0.3053 -1.2016  0.4752
  192POPC   H5S22171   0.832   4.019   6.938 -2.1283  1.0259  0.0611
  192POPC   C2622172   0.852   4.213   7.036 -0.4007 -0.0089 -0.4182
  192POPC   H6R22173   0.741   4.211   7.042 -0.4864  0.0254 -1.8488
  192POPC   H6S22174   0.878   4.319   7.016 -1.5773  0.9880  2.9807
  192POPC   C2722175   0.923   4.172   7.168  0.5799 -0.1233 -0.3196
  192POPC   H7R22176   1.030   4.183   7.141  0.3478  1.8167 -0.5087
  192POPC   H7S22177   0.904   4.063   7.179 -3.3101  0.5316  0.1692
  192POPC   C2822178   0.882   4.256   7.289 -0.6762 -0.1930  1.2792
  192POPC   H8R22179   0.892   4.362   7.257 -0.8571 -0.7883 -0.8088
  192POPC   H8S22180   0.960   4.246   7.368  0.3969 -1.6450  0.0596
  192POPC   C2922181   0.737   4.231   7.328  0.1780  0.4632  0.5203
  192POPC   H9122182   0.666   4.260   7.249  1.0944  0.4495 -0.3164
  192POPC  C21022183   0.695   4.190   7.449 -0.0089 -0.0323 -0.1627
  192POPC  H10122184   0.589   4.204   7.476 -0.3662  0.8156 -1.9365
  192POPC  C21122185   0.781   4.162   7.572 -0.0524 -0.1337 -0.3143
  192POPC  H11R22186   0.885   4.199   7.555  1.2568 -3.4160  0.1184
  192POPC  H11S22187   0.800   4.056   7.596  0.5368  0.4067  1.7154
  192POPC  C21222188   0.734   4.247   7.701 -0.3747 -0.1873  0.1375
  192POPC  H12R22189   0.633   4.235   7.745  0.1763 -2.2324  0.9470
  192POPC  H12S22190   0.757   4.354   7.682 -2.8898  0.2305 -0.6469
  192POPC  C21322191   0.827   4.210   7.816 -0.7584  0.4017 -0.0698
  192POPC  H13R22192   0.934   4.195   7.790 -0.6350  0.1390  0.5782
  192POPC  H13S22193   0.783   4.118   7.860 -0.9061 -0.1810 -1.4153
  192POPC  C21422194   0.820   4.311   7.926  0.4049  0.6312 -0.9194
  192POPC  H14R22195   0.715   4.343   7.946  1.2250  1.9798  1.3424
  192POPC  H14S22196   0.875   4.407   7.914  0.2347  0.7399 -0.8263
  192POPC  C21522197   0.877   4.250   8.061 -0.3901  0.3282  0.3493
  192POPC  H15R22198   0.983   4.228   8.037  0.1927  0.4702  2.6838
  192POPC  H15S22199   0.825   4.156   8.087  0.1051  0.1743  0.7721
  192POPC  C21622200   0.886   4.350   8.178 -0.1540 -0.1552 -0.6465
  192POPC  H16R22201   0.975   4.416   8.170 -0.9459  1.0437  0.3289
  192POPC  H16S22202   0.909   4.298   8.274  1.0438 -2.7457 -2.2710
  192POPC  C21722203   0.759   4.436   8.207  0.4290 -0.2775 -0.4765
  192POPC  H17R22204   0.673   4.387   8.156  1.0220  0.1997 -1.9652
  192POPC  H17S22205   0.775   4.530   8.151 -1.3397  0.9726  1.0456
  192POPC  C21822206   0.738   4.459   8.358 -0.0251  0.1836  0.3620
  192POPC  H18R22207   0.658   4.535   8.370  0.3072  0.5596  0.2209
  192POPC  H18S22208   0.835   4.498   8.396 -1.0545  2.9429  0.2685
  192POPC  H18T22209   0.707   4.361   8.400 -0.4338  0.5664  0.9562
  192POPC   C3322210   0.377   3.868   6.828  0.6693  0.2105 -0.8782
  192POPC   H3X22211   0.277   3.853   6.782  0.3592 -0.6579  0.0624
  192POPC   H3Y22212   0.390   3.978   6.841 -1.0609  0.0895  2.3046
  192POPC   C3422213   0.376   3.788   6.958 -0.3375  0.6102 -0.6515
  192POPC   H4X22214   0.473   3.740   6.982  0.2702  2.0179 -0.2357
  192POPC   H4Y22215   0.306   3.702   6.952  0.9867 -0.7981  2.6843
  192POPC   C3522216   0.339   3.861   7.089  0.3552 -0.9638 -0.1974
  192POPC   H5X22217   0.251   3.929   7.084  0.4384 -0.9342 -1.2559
  192POPC   H5Y22218   0.420   3.935   7.108 -1.1135  0.6982 -0.3059
  192POPC   C3622219   0.319   3.772   7.215  0.4771 -0.1390  0.3273
  192POPC   H6X22220   0.399   3.696   7.226  1.1332  0.8090  2.4773
  192POPC   H6Y22221   0.216   3.732   7.219  0.2581  0.3699 -0.1326
  192POPC   C3722222   0.332   3.858   7.341  0.2152  0.5730 -0.4775
  192POPC   H7X22223   0.259   3.941   7.346 -0.2752  0.0941  0.7155
  192POPC   H7Y22224   0.432   3.906   7.334  0.4643  0.1391  0.0673
  192POPC   C3822225   0.315   3.776   7.474 -0.6164 -0.0721 -0.7818
  192POPC   H8X22226   0.373   3.682   7.464 -0.5642 -0.5256  3.0743
  192POPC   H8Y22227   0.215   3.730   7.486  0.6413 -2.3856  1.4543
  192POPC   C3922228   0.360   3.850   7.609 -0.8096  0.0736  0.5035
  192POPC   H9X22229   0.306   3.947   7.615 -0.4661  0.2590  0.5932
  192POPC   H9Y22230   0.468   3.870   7.597 -0.9793  0.6232 -0.1786
  192POPC  C31022231   0.342   3.766   7.743 -0.3026  0.5859  1.0764
  192POPC  H10X22232   0.400   3.672   7.731  0.0866  1.1613 -1.9367
  192POPC  H10Y22233   0.234   3.742   7.746 -0.1680 -0.3357 -0.8427
  192POPC  C31122234   0.384   3.851   7.865  0.1669  0.2492 -0.7377
  192POPC  H11X22235   0.352   3.955   7.848 -1.3017 -0.2637 -1.1979
  192POPC  H11Y22236   0.494   3.849   7.881  0.2464 -0.0795 -1.3131
  192POPC  C31222237   0.336   3.795   7.995  0.5291  0.2387  0.0060
  192POPC  H12X22238   0.359   3.687   8.003  1.4620  0.5502  1.6769
  192POPC  H12Y22239   0.225   3.798   7.986  0.7323  0.3255 -3.4704
  192POPC  C31322240   0.390   3.872   8.120 -0.1495 -0.5960 -0.3869
  192POPC  H13X22241   0.437   3.966   8.086 -0.4001 -0.1997  0.3394
  192POPC  H13Y22242   0.479   3.821   8.163 -0.5456 -1.3024 -0.3830
  192POPC  C31422243   0.284   3.883   8.232  0.1993 -0.0655  0.9288
  192POPC  H14X22244   0.333   3.906   8.329 -1.0714  0.7660  1.3871
  192POPC  H14Y22245   0.234   3.784   8.229  2.0695 -0.9947  0.1013
  192POPC  C31522246   0.181   3.990   8.215  0.1378  0.1171 -0.9634
  192POPC  H15X22247   0.151   4.004   8.109 -2.3667  2.1077 -0.0686
  192POPC  H15Y22248   0.228   4.087   8.238 -0.7072 -0.2902  2.9335
  192POPC  C31622249   0.044   3.971   8.292 -0.4178 -0.0636 -0.9665
  192POPC  H16X22250   0.067   3.958   8.400 -0.6902  1.7567 -0.6806
  192POPC  H16Y22251  -0.015   3.884   8.256 -0.8158  0.4667 -1.5870
  192POPC  H16Z22252  -0.016   4.064   8.291 -0.2355  0.0475 -1.4322
  193SOD    SOD22253   4.236   0.041   4.072 -0.0475  0.0715 -0.1115
  194SOD    SOD22254   5.242   3.107  14.994  0.0235 -0.5705 -0.1545
  195SOD    SOD22255   3.097   0.079  11.991  0.0917 -0.4995 -0.0474
  196SOD    SOD22256   6.411   1.216  15.491 -0.2483  0.2359  0.4562
  197SOD    SOD22257   1.683   2.367  11.744  0.2787  0.2425  0.4985
  198SOD    SOD22258   1.487   3.210   3.810 -0.1068 -0.2667 -0.7150
  199SOD    SOD22259   0.430   0.033   3.713 -0.6674 -0.2767  0.1705
  200SOD    SOD22260   2.864   2.474  10.666  0.5605 -0.9148  0.2860
  201SOD    SOD22261   3.609   4.472  11.802  0.0372 -0.3416 -0.9946
  202SOD    SOD22262   3.340   4.274  10.869 -0.2204 -0.5475  0.0393
  203SOD    SOD22263   6.138   2.922  16.323  0.1354  0.1837 -0.5330
  204SOD    SOD22264   2.178   5.035   3.220  0.6101 -0.0681  0.0417
  205SOD    SOD22265   0.561   1.159  10.955 -0.6271 -0.1154 -0.2103
  206SOD    SOD22266   5.594   2.021   0.687  0.6440  0.1998 -0.1778
  207SOD    SOD22267   5.914   6.652   4.763 -0.5441  0.2574 -0.1940
  208SOD    SOD22268   5.114   6.250   5.970 -0.6163 -0.4845 -0.3360
  209SOD    SOD22269   4.075   6.633  11.364  0.2244 -0.0585  0.2071
  210SOD    SOD22270   4.869   1.063   6.332 -0.3296 -0.0129  0.0975
  211SOD    SOD22271   4.340   1.791   0.654 -0.1988 -0.6503 -0.1216
  212SOD    SOD22272   0.743   0.647   4.111 -0.1623 -0.1153 -0.1674
  213SOD    SOD22273   0.335   5.091   1.149 -0.0900  0.1108 -0.3198
  214SOD    SOD22274   4.682   4.523  12.010 -0.0632  0.6828 -0.0245
  215SOD    SOD22275   4.417   1.974  11.379  0.2571  0.3068  0.4821
  216SOD    SOD22276   3.644   3.368   0.023 -0.2708 -0.2905 -0.4764
  217SOD    SOD22277   0.635   0.362   6.212 -0.0435 -0.3667 -0.0025
  218SOD    SOD22278   6.323   0.558   2.475 -0.1979  0.0881 -0.2241
  219SOD    SOD22279   1.132   2.092   0.680  0.0292 -0.0613 -0.2063
  220SOD    SOD22280   2.077   2.854  11.718  0.2288  0.1906 -0.2440
  221SOD    SOD22281   3.127   2.095  11.551  0.2035 -0.1247 -0.3137
  222SOD    SOD22282   5.020   6.334  14.320  0.4157 -0.4139  0.0662
  223SOD    SOD22283   1.254   2.122  15.292 -0.0757  0.6767 -0.2440
  224SOD    SOD22284   0.437   4.702   2.882 -0.4163  0.1106 -0.0822
  225SOD    SOD22285   2.535   5.491   1.632  0.3385 -0.1629 -0.2579
  226SOD    SOD22286   4.122   3.988  13.580 -0.2008 -0.6629  0.0510
  227SOD    SOD22287   5.239   4.926   4.851 -0.3484 -0.5044 -0.0597
  228SOD    SOD22288   3.617   1.260   5.681  0.0417 -0.2301 -0.5785
  229SOD    SOD22289   4.581   6.580   2.815  0.5630 -0.3427  0.7750
  230SOD    SOD22290   0.150   3.259  12.579 -0.0488  0.1779  0.5416
  231SOD    SOD22291   5.935   1.205  10.784 -0.0178  0.1230  0.4973
  232SOD    SOD22292   1.215   6.161   3.133  0.1991  0.4004  0.4024
  233SOD    SOD22293   0.836   2.380  13.621  0.0043 -0.5739  0.4729
  234SOD    SOD22294   5.799   5.100  10.542  0.3923 -0.0154 -0.2320
  235SOD    SOD22295   4.813   5.912   0.951  0.0851 -0.6512 -0.2429
  236SOD    SOD22296   1.880   5.563  12.380 -0.0242 -0.4324  0.0911
  237SOD    SOD22297   5.085   0.116  14.160  0.4526 -0.2612  0.0736
  238SOD    SOD22298   6.217   6.620   5.911  0.0070 -0.0517 -0.0674
  239SOD    SOD22299   1.184   1.698   3.809 -0.5771  0.2178 -0.5295
  240SOD    SOD22300   0.955   4.384  14.654 -0.0826 -0.2525  0.0909
  241SOD    SOD22301   5.933   4.591  11.757  0.0628  0.0017 -0.2857
  242SOD    SOD22302   3.861   2.047   4.433  0.1304  0.2232  0.0433
  243SOD    SOD22303   5.623   2.155  13.667  0.5956 -0.3034 -0.2010
  244SOD    SOD22304   2.928   5.169   5.345  0.7777 -0.0675 -0.8345
  245SOD    SOD22305   3.141   5.372  15.684 -0.8320 -0.3639  0.5280
  246SOD    SOD22306   1.496   1.622   1.539 -0.9454 -0.3659 -0.2998
  247SOD    SOD22307   3.349   0.696   0.470  0.1130  0.2967  0.0262
  248SOD    SOD22308   6.271   1.737  12.224  0.4622  0.2816  0.0129
  249SOD    SOD22309   2.405   4.865  13.614  0.1252 -0.2164  0.6931
  250SOD    SOD22310   2.117   6.382   5.354 -0.1657  0.1130  0.6179
  251SOD    SOD22311   1.499   4.882   2.265 -0.2082  0.4807 -0.2010
  252SOD    SOD22312   2.322   2.562   5.382  0.6934  0.0467  0.2107
  253SOD    SOD22313   4.380   0.331  11.442 -0.1457 -0.2270 -0.1178
  254SOD    SOD22314   6.574   5.067  11.877  0.4225  0.0046  0.0181
  255SOD    SOD22315   0.045   5.541   1.333 -0.3092  0.1153 -0.0814
  256SOD    SOD22316   3.879   4.179   6.301 -0.5317 -0.0347 -0.4647
  257SOD    SOD22317   1.147   6.044  11.686 -0.1845  0.0261 -0.3857
  258SOD    SOD22318   1.597   3.077   2.624 -0.3765 -0.2806 -0.1592
  259SOD    SOD22319   5.719   2.229  11.255  0.0112  0.4675  0.0450
  260SOD    SOD22320   1.477   1.518   0.781  0.0896  0.0140 -0.2618
  261SOD    SOD22321   5.286   2.303  13.042 -0.1985 -0.6309 -0.1524
  262SOD    SOD22322   4.092   5.445   1.551  0.1057 -0.0405  0.4195
  263SOD    SOD22323   3.790   1.888  14.372  0.0038 -0.1356 -0.3415
  264SOD    SOD22324   2.648   4.781  15.388  0.1014  0.1132 -0.0086
  265SOD    SOD22325   4.461   2.136   3.117  0.1686  0.3268 -0.1695
  266SOD    SOD22326   2.703   0.728  11.856  0.4733  0.3293  0.3813
  267SOD    SOD22327   4.153   0.156  15.293 -0.3037 -0.0417 -0.2475
  268SOD    SOD22328   1.812   5.804  16.047 -0.1930  0.0046  0.1207
  269SOD    SOD22329   1.432   0.834   6.540  0.0815 -0.0430  0.1436
  270CLA    CLA22330   5.548   4.313  12.048 -0.0803  0.0723 -0.0442
  271CLA    CLA22331   4.511   6.562  14.260 -0.3748  0.0517 -0.2256
  272CLA    CLA22332   4.112   0.932   3.375  0.2794  0.2437 -0.4081
  273CLA    CLA22333   3.615   0.868   1.192 -0.3162 -0.5350 -0.1692
  274CLA    CLA22334   2.809   2.814  11.925 -0.1465 -0.3019  0.4423
  275CLA    CLA22335   5.422   1.712  13.530  0.1928 -0.0057 -0.1995
  276CLA    CLA22336   2.892   3.047   0.505  0.2575 -0.1811  0.0292
  277CLA    CLA22337   6.303   2.658  16.789  0.2666 -0.2769 -0.0520
  278CLA    CLA22338   5.472   6.307  12.995 -0.3072 -0.1959  0.6027
  279CLA    CLA22339   4.533   5.959  13.944  0.8003  0.3334 -0.1545
  280CLA    CLA22340   5.234   5.155   4.716  0.1380  0.0972 -0.0395
  281CLA    CLA22341   3.844   1.987  16.421 -0.1001  0.1239 -0.2616
  282CLA    CLA22342   4.630   2.614  16.992 -0.2908  0.2644  0.0842
  283CLA    CLA22343   2.585   5.211  12.146 -0.2449 -0.0302  0.2375
  284CLA    CLA22344   2.962   6.182   2.364  0.3037 -0.1606  0.0365
  285CLA    CLA22345   1.261   3.462   3.208  0.2872  0.2729 -0.1518
  286CLA    CLA22346   1.648   4.636   1.516  0.1526  0.5820 -0.2280
  287CLA    CLA22347   5.490   0.781   1.710 -0.2777  0.1045  0.2346
  288CLA    CLA22348   4.743   6.602  15.651  0.1639  0.6307  0.3228
  289CLA    CLA22349   0.168   1.440  11.952 -0.0417  0.0381  0.3186
  290CLA    CLA22350   1.390   1.824   3.602  0.0050 -0.1007 -0.0159
  291CLA    CLA22351   2.979   2.508  15.030  0.3060 -0.1793  0.2332
  292CLA    CLA22352   1.818   3.865  11.983  0.2680 -0.4086 -0.2747
  293CLA    CLA22353   6.039   6.052   3.618  0.3688 -0.0003  0.0187
  294CLA    CLA22354   0.060   2.622  13.500 -0.2757  0.0724 -0.1509
  295CLA    CLA22355   2.636   3.165   3.676  0.4505 -0.3285 -0.1326
  296CLA    CLA22356   3.736   3.730  13.690  0.4160  0.2633 -0.3250
  297CLA    CLA22357   6.213   3.624  16.869 -0.3332 -0.4938  0.0283
  298CLA    CLA22358   1.171   0.541   2.493 -0.5991 -0.3098  0.0592
  299CLA    CLA22359   3.839   1.179  11.411 -0.3445  0.3043 -0.2722
  300CLA    CLA22360   6.702   1.151  16.712  0.0536 -0.1187 -0.1569
  301CLA    CLA22361   6.541   5.174   1.010  0.1374 -0.3197  0.5236
  302CLA    CLA22362   1.599   2.174   0.760  0.3627 -0.0213  0.3013
  303CLA    CLA22363   6.229   2.831  14.419 -0.1918  0.2316  0.0849
  304CLA    CLA22364   5.096   1.538  13.077  0.0485  0.0678 -0.0058
  305CLA    CLA22365   1.813   3.284  14.258 -0.2747 -0.1219  0.1004
  306CLA    CLA22366   1.296   1.419  16.981 -0.3052  0.0625 -0.0729
  307CLA    CLA22367   6.031   4.444  13.007  0.0836  0.0864  0.2158
  308CLA    CLA22368   6.009   5.312  16.443  0.0637 -0.0076 -0.0286
  309CLA    CLA22369   3.645   6.437   4.554 -0.0226 -0.3798  0.1653
  310CLA    CLA22370   3.802   0.155   2.869 -0.0563  0.0316 -0.1736
  311CLA    CLA22371   4.973   6.131   1.020 -0.7042  0.0274 -0.4466
  312CLA    CLA22372   3.916   1.588  15.510  0.3705 -0.3901 -0.1233
  313CLA    CLA22373   6.138   0.809   3.800  0.0386 -0.2328 -0.0114
  314CLA    CLA22374   4.695   2.549   4.577  0.4144  0.0511  0.1904
  315CLA    CLA22375   3.255   4.615   1.257 -0.5391  0.1271 -0.1585
  316CLA    CLA22376   5.402   4.783   0.805 -0.1084  0.5084 -0.5471
  317CLA    CLA22377   3.710   4.058  15.152  0.0106 -0.0042 -0.0631
  318CLA    CLA22378   0.793   2.162  15.335  0.3547 -0.2458 -0.2889
  319CLA    CLA22379   0.567   4.886  14.974  0.1574  0.2260  0.1329
  320CLA    CLA22380   2.538   4.988  16.522 -0.0871  0.2393 -0.1013
  321CLA    CLA22381   4.832   0.340  15.126  0.2859 -0.6403 -0.3581
  322CLA    CLA22382   1.560   4.016   2.185 -0.3921  0.2678  0.0270
  323TIP3   OH222383   6.372   3.556  11.689 -0.1883  0.5302 -0.4884
  323TIP3    H122384   6.353   3.649  11.699 -1.8753  0.1286  0.2468
  323TIP3    H222385   6.359   3.519  11.777 -0.5741 -0.5664 -0.9954
  324TIP3   OH222386   0.252   4.831   5.105  0.0739  0.0092  0.0884
  324TIP3    H122387   0.236   4.833   5.011  1.3257 -0.4937 -0.1387
  324TIP3    H222388   0.232   4.919   5.135 -0.2410  0.1951 -0.6574
  325TIP3   OH222389   4.387   1.722  16.390 -0.8169 -0.2191 -0.2164
  325TIP3    H122390   4.315   1.692  16.334 -2.1724  0.2390  1.2507
  325TIP3    H222391   4.359   1.809  16.419  0.6075  0.2069 -0.1147
  326TIP3   OH222392   4.892   5.702  12.566 -0.0583  0.0190  0.4228
  326TIP3    H122393   4.935   5.733  12.487 -2.9869  0.0711 -1.2312
  326TIP3    H222394   4.962   5.698  12.632  2.1825  1.1491 -1.8082
  327TIP3   OH222395   4.705   3.664  16.348 -0.0396 -0.3384  0.0641
  327TIP3    H122396   4.624   3.632  16.388 -0.1045  1.2072  1.2074
  327TIP3    H222397   4.773   3.604  16.379 -0.5075 -0.7198  0.3483
  328TIP3   OH222398   4.267   1.861   0.148 -0.4035 -0.0896  0.2618
  328TIP3    H122399   4.342   1.837   0.094 -0.7946 -1.6310  0.3913
  328TIP3    H222400   4.294   1.942   0.192  0.7709 -0.0577 -0.5008
  329TIP3   OH222401   0.005   3.173   1.781  0.1983 -0.0481  0.1846
  329TIP3    H122402  -0.009   3.261   1.746 -1.1942  0.1007  1.0440
  329TIP3    H222403  -0.061   3.164   1.850 -0.1334 -2.0174 -0.3492
  330TIP3   OH222404   1.226   4.567  13.196 -0.2657 -0.8827  0.0723
  330TIP3    H122405   1.211   4.477  13.225 -0.7784 -0.9334 -0.3362
  330TIP3    H222406   1.166   4.620  13.248 -2.1151 -1.1190 -1.7724
  331TIP3   OH222407   2.814   0.037  15.618 -0.0820  0.6500  0.0703
  331TIP3    H122408   2.797   0.046  15.712 -1.0183 -0.5772  0.0302
  331TIP3    H222409   2.909   0.041  15.611  0.0299  0.1872  1.1427
  332TIP3   OH222410   3.634   1.136  14.983 -0.0470  0.1611 -0.0659
  332TIP3    H122411   3.554   1.177  15.014  0.7351  1.3676  0.3858
  332TIP3    H222412   3.618   1.042  14.994 -2.2100  0.2699 -2.0044
  333TIP3   OH222413   4.391   1.213  13.398 -0.2831 -0.7025  0.0983
  333TIP3    H122414   4.402   1.270  13.473 -0.3759 -0.7035  0.1133
  333TIP3    H222415   4.445   1.136  13.418  1.1960  0.1181 -0.6650
  334TIP3   OH222416   4.197   3.075   0.590  0.8384 -0.3681  0.1603
  334TIP3    H122417   4.261   3.004   0.583  2.9876  1.4825  0.0551
  334TIP3    H222418   4.251   3.155   0.588 -1.5440  1.2707 -0.3401
  335TIP3   OH222419   2.725   3.022   4.287  0.0615 -0.0149  0.1713
  335TIP3    H122420   2.686   2.940   4.320 -0.3220  0.4731  0.9580
  335TIP3    H222421   2.686   3.034   4.201 -2.0553  0.7947  1.2057
  336TIP3   OH222422   0.419   4.253   5.446 -0.0167  0.1525 -0.0254
  336TIP3    H122423   0.409   4.334   5.496 -0.1531  0.5519 -0.7069
  336TIP3    H222424   0.342   4.249   5.390 -0.0722 -0.5126  0.0878
  337TIP3   OH222425   4.502   1.342  16.692  0.2227  0.0058 -0.0192
  337TIP3    H122426   4.417   1.377  16.720 -0.2693 -0.8026 -0.4766
  337TIP3    H222427   4.514   1.376  16.604  1.6276  2.2919  1.0045
  338TIP3   OH222428   3.819   6.642   3.483  0.0582 -0.2958 -0.7044
  338TIP3    H122429   3.799   6.719   3.430 -0.5150 -0.0966 -0.1984
  338TIP3    H222430   3.790   6.665   3.571  0.0707 -1.0167 -0.5077
  339TIP3   OH222431   5.824   1.761  11.487 -0.6801 -0.2997 -0.1761
  339TIP3    H122432   5.734   1.729  11.489 -0.0902 -1.9868  1.3808
  339TIP3    H222433   5.863   1.729  11.569  1.0741  1.1594 -0.4025
  340TIP3   OH222434   1.127   4.840  14.412  0.1488 -0.5299  0.2285
  340TIP3    H122435   1.178   4.760  14.409 -1.4506 -1.5383 -1.3955
  340TIP3    H222436   1.081   4.838  14.496  1.8088 -0.2133  1.1519
  341TIP3   OH222437   3.323   3.147  10.714 -0.1125 -0.3087 -0.6084
  341TIP3    H122438   3.286   3.059  10.720 -1.0227  0.0982 -0.1288
  341TIP3    H222439   3.405   3.135  10.666  0.0567 -1.4963 -0.0582
  342TIP3   OH222440   2.811   1.739   0.586 -0.1714  0.0485 -0.2961
  342TIP3    H122441   2.783   1.791   0.510  0.6261  2.3918  0.9596
  342TIP3    H222442   2.776   1.787   0.661  0.7719 -1.1371  0.9169
  343TIP3   OH222443   0.942   3.017   2.375 -0.2069  0.3386 -0.0764
  343TIP3    H122444   0.866   3.066   2.405  0.3716  0.5982  1.0234
  343TIP3    H222445   0.956   3.046   2.285 -0.9309  0.8850 -0.0157
  344TIP3   OH222446   5.915   0.475  15.318 -0.2571  0.2485 -0.1594
  344TIP3    H122447   5.921   0.395  15.370 -1.7270  0.8256  0.9284
  344TIP3    H222448   5.876   0.447  15.235  3.6585 -0.9794 -1.7165
  345TIP3   OH222449   1.168   2.554   0.174  0.3230 -0.3197  0.3461
  345TIP3    H122450   1.204   2.475   0.135 -0.8517 -0.2009 -1.0139
  345TIP3    H222451   1.243   2.613   0.181  0.7910 -0.7862 -0.6107
  346TIP3   OH222452   0.235   0.449   1.068 -0.2729  0.1933 -0.2963
  346TIP3    H122453   0.245   0.433   1.162 -1.4071 -1.0087 -0.3575
  346TIP3    H222454   0.191   0.534   1.062 -1.2877 -0.2801  0.3096
  347TIP3   OH222455   2.045   0.612  11.165 -0.4554  0.5669  0.4739
  347TIP3    H122456   2.084   0.652  11.243 -0.5614  1.7788 -0.0697
  347TIP3    H222457   2.050   0.681  11.099 -1.7133  0.0536 -0.1712
  348TIP3   OH222458   3.882   6.770  15.549  0.5876  0.1449 -0.3666
  348TIP3    H122459   3.822   6.731  15.613  0.9408  1.4586  0.8206
  348TIP3    H222460   3.906   6.699  15.491 -0.1731 -0.9732  0.6622
  349TIP3   OH222461   3.075   4.626   3.929 -0.3184 -0.2249  0.0455
  349TIP3    H122462   3.126   4.571   3.870  0.7878  0.2019  0.5905
  349TIP3    H222463   2.986   4.624   3.893 -0.4133 -2.7688  0.3671
  350TIP3   OH222464   4.958   0.889   0.211 -0.1466 -0.0020  0.2651
  350TIP3    H122465   5.051   0.893   0.234 -0.0496 -0.7293  0.0210
  350TIP3    H222466   4.923   0.818   0.264 -0.5878  0.3351  0.4274
  351TIP3   OH222467   1.451   4.484   2.985 -0.0439 -0.7953  0.5917
  351TIP3    H122468   1.502   4.489   2.905  1.2104 -1.8862  1.3057
  351TIP3    H222469   1.429   4.392   2.995  0.7277 -0.8472  2.0466
  352TIP3   OH222470   2.513   2.305  16.661  0.4289  0.1374  0.0273
  352TIP3    H122471   2.496   2.398  16.671  1.6233  0.2972  0.7272
  352TIP3    H222472   2.445   2.262  16.713  1.0936  0.6922  1.3846
  353TIP3   OH222473   5.450   6.424  16.022 -0.0593 -0.3085  0.1996
  353TIP3    H122474   5.488   6.510  16.041 -0.0052 -0.3703  0.3645
  353TIP3    H222475   5.414   6.433  15.933 -1.1239  0.2612  0.6811
  354TIP3   OH222476   6.446   1.891  13.819 -0.4405  0.2608  0.0570
  354TIP3    H122477   6.526   1.943  13.828 -0.3365 -0.0440  0.9404
  354TIP3    H222478   6.397   1.909  13.899  0.0906 -1.8417  0.8683
  355TIP3   OH222479   6.136   0.630  15.726 -0.3479 -0.8084 -0.7502
  355TIP3    H122480   6.079   0.694  15.683  0.6793  0.0900 -0.8016
  355TIP3    H222481   6.191   0.682  15.784  0.4972 -1.6441 -0.7923
  356TIP3   OH222482   6.230   6.217  15.521 -0.0341 -0.1274  0.3779
  356TIP3    H122483   6.181   6.284  15.472 -0.8704 -0.2233  1.0803
  356TIP3    H222484   6.275   6.167  15.453 -0.0221  0.6634 -0.2062
  357TIP3   OH222485   0.325   2.332  13.008 -0.3384 -0.4811 -0.3968
  357TIP3    H122486   0.311   2.245  12.969  0.9407 -0.2730 -1.3626
  357TIP3    H222487   0.377   2.315  13.087  1.7282 -0.4367 -1.7023
  358TIP3   OH222488   6.118   0.008  14.478 -0.0193  0.2640 -0.1600
  358TIP3    H122489   6.095   0.094  14.443 -1.9594 -1.6739 -3.8580
  358TIP3    H222490   6.076  -0.054  14.420  3.7166 -3.2947  0.7199
  359TIP3   OH222491   2.448   6.335   3.167 -0.1046  0.5837 -0.2722
  359TIP3    H122492   2.443   6.329   3.072  0.2149 -0.0272 -0.2526
  359TIP3    H222493   2.471   6.246   3.195  1.3904  1.1336  0.2634
  360TIP3   OH222494   3.083   4.051  10.965 -0.1400  0.4006  0.4223
  360TIP3    H122495   3.075   4.144  10.942 -0.7560  0.7069  1.7746
  360TIP3    H222496   3.078   4.005  10.882  0.1438  1.5853 -0.2650
  361TIP3   OH222497   4.359   0.242   3.364 -0.1165 -0.1783 -0.0075
  361TIP3    H122498   4.371   0.150   3.340  0.3844 -0.0221 -0.3842
  361TIP3    H222499   4.442   0.266   3.405 -0.2345  0.1111  0.0585
  362TIP3   OH222500   5.229   2.186   6.727 -0.1523 -0.0602 -0.1562
  362TIP3    H122501   5.241   2.268   6.678  0.2384  0.4217  0.7474
  362TIP3    H222502   5.264   2.118   6.669 -0.8237  0.3603 -1.0740
  363TIP3   OH222503   0.648   0.914  14.823  0.3215 -0.0180 -0.2684
  363TIP3    H122504   0.609   0.828  14.834  0.6329 -0.2551 -0.9711
  363TIP3    H222505   0.593   0.973  14.875 -0.9311 -0.3642 -1.1743
  364TIP3   OH222506   6.744   0.220  13.785  0.0124 -0.3232 -0.1753
  364TIP3    H122507   6.766   0.129  13.805 -2.8111 -0.9373  0.3026
  364TIP3    H222508   6.746   0.264  13.870  0.3650 -0.1432 -0.2746
  365TIP3   OH222509   6.776   4.186   3.724  0.0924  0.2006  0.4964
  365TIP3    H122510   6.737   4.243   3.659  1.3376 -2.2832 -2.5442
  365TIP3    H222511   6.846   4.238   3.764 -0.1388  1.4532 -0.7082
  366TIP3   OH222512   0.924   3.982  14.008  0.2900  0.1062  0.2592
  366TIP3    H122513   0.904   3.890  13.993 -0.2138  0.4689 -1.4273
  366TIP3    H222514   0.995   4.001  13.946  1.5640  0.4318  1.7893
  367TIP3   OH222515   4.818   6.445  14.298  0.3868 -0.1487 -0.5183
  367TIP3    H122516   4.859   6.519  14.342  0.7058  0.2245 -1.4489
  367TIP3    H222517   4.724   6.466  14.299  0.3276 -0.4271  0.5146
  368TIP3   OH222518   0.954   0.638   5.710  0.2918  0.0625  0.3772
  368TIP3    H122519   0.990   0.646   5.622 -0.2481 -1.0516  0.0480
  368TIP3    H222520   0.885   0.704   5.715 -0.9161 -1.0854 -0.6694
  369TIP3   OH222521   6.048   0.857  11.468 -0.2825  0.2634  0.0776
  369TIP3    H122522   6.049   0.796  11.394 -1.0782 -1.7084  1.6549
  369TIP3    H222523   5.955   0.864  11.491 -0.0565  1.0036  0.7642
  370TIP3   OH222524   1.818   0.447   3.515  0.1527  0.0424 -0.1679
  370TIP3    H122525   1.889   0.383   3.511 -0.6946 -0.9724  0.8320
  370TIP3    H222526   1.768   0.433   3.435  0.9625  0.6243 -0.7790
  371TIP3   OH222527   1.177   4.660  15.099  0.2346 -0.0106 -0.8283
  371TIP3    H122528   1.140   4.733  15.149 -1.9792 -2.6608  1.5931
  371TIP3    H222529   1.269   4.658  15.124  0.1059  1.3725 -0.1941
  372TIP3   OH222530   6.468   5.832   2.292  0.3640 -0.0998 -0.5735
  372TIP3    H122531   6.406   5.827   2.220  0.9931  1.9639 -1.2945
  372TIP3    H222532   6.539   5.887   2.259  0.1470  1.7740  1.9670
  373TIP3   OH222533   1.757   4.913  15.395 -0.4054  0.3277 -0.4615
  373TIP3    H122534   1.835   4.874  15.436  1.0381  3.1029 -0.4662
  373TIP3    H222535   1.714   4.959  15.467 -0.2208  1.5837 -1.1508
  374TIP3   OH222536   5.373   0.009  13.049 -0.1459 -0.1041 -0.3230
  374TIP3    H122537   5.286  -0.015  13.017  0.1968 -0.3458 -1.0803
  374TIP3    H222538   5.410  -0.073  13.082  0.5598 -0.3996 -1.8144
  375TIP3   OH222539   2.762   0.789  12.541 -0.1391  0.0623 -0.3551
  375TIP3    H122540   2.730   0.873  12.507 -0.3641 -0.4879 -1.5403
  375TIP3    H222541   2.731   0.724  12.478  2.2542 -0.6344 -0.8739
  376TIP3   OH222542   0.268   1.296   1.058  0.8591 -0.4967 -0.2672
  376TIP3    H122543   0.237   1.267   1.144  1.4576 -2.7509 -0.7928
  376TIP3    H222544   0.292   1.388   1.072 -0.8978 -0.2482  1.4752
  377TIP3   OH222545   4.030   5.735   2.600 -0.2595  0.2142  0.2191
  377TIP3    H122546   3.945   5.775   2.581 -0.7727 -1.3352 -0.8960
  377TIP3    H222547   4.076   5.737   2.516  0.3520 -0.0472  0.5457
  378TIP3   OH222548   1.735   5.059  12.845 -0.1633 -0.4138  0.0514
  378TIP3    H122549   1.749   5.139  12.896 -0.5379 -0.1361 -0.2789
  378TIP3    H222550   1.740   4.988  12.909 -1.4744 -0.0130  0.6099
  379TIP3   OH222551   3.952   6.695   0.068  0.5398  0.5175 -0.1710
  379TIP3    H122552   3.999   6.613   0.085 -2.4340 -1.8375 -2.6733
  379TIP3    H222553   3.917   6.721   0.153  2.1784 -0.3625  0.7972
  380TIP3   OH222554   2.356   1.737   2.036  0.6223 -0.1603 -0.4645
  380TIP3    H122555   2.428   1.791   2.069 -0.1326  0.5145  0.1133
  380TIP3    H222556   2.278   1.772   2.080  0.1718 -2.0008  0.2562
  381TIP3   OH222557   6.037   3.145  16.236 -0.2311  0.2887  0.0872
  381TIP3    H122558   6.073   3.203  16.303  1.8191 -1.1241  0.2575
  381TIP3    H222559   6.002   3.204  16.169  0.3690  1.6995  1.0091
  382TIP3   OH222560   2.785   4.800   2.798  0.3442  0.2341  0.3062
  382TIP3    H122561   2.824   4.792   2.885 -0.3593  1.8423  0.7992
  382TIP3    H222562   2.784   4.894   2.781 -1.8378  0.1181 -0.3523
  383TIP3   OH222563   5.084   3.212  16.109  0.0727 -0.3755 -0.2372
  383TIP3    H122564   5.117   3.254  16.188  1.2370 -1.5520 -0.0943
  383TIP3    H222565   5.018   3.150  16.141  0.1661 -0.4770 -0.2433
  384TIP3   OH222566   1.817   1.765  14.364  0.0480  0.9022 -0.3961
  384TIP3    H122567   1.786   1.676  14.351  0.4245  0.6623  0.3350
  384TIP3    H222568   1.760   1.819  14.309  0.1475  0.1599 -1.2168
  385TIP3   OH222569   0.220   2.272   0.626  0.3741 -0.0508 -0.4794
  385TIP3    H122570   0.226   2.310   0.538  2.0454  0.4671 -0.1725
  385TIP3    H222571   0.220   2.347   0.684 -1.1901 -0.3796 -0.0364
  386TIP3   OH222572   5.504   5.233   3.877 -0.0498 -0.1078  0.0560
  386TIP3    H122573   5.574   5.278   3.830  0.1155  1.1848  1.5188
  386TIP3    H222574   5.518   5.256   3.969 -0.2894 -2.6972  0.7850
  387TIP3   OH222575   1.885   0.735  13.708 -0.1868  0.0038 -0.3536
  387TIP3    H122576   1.914   0.680  13.781 -0.0622  1.1010  0.4250
  387TIP3    H222577   1.928   0.696  13.631  0.4254 -0.5962  0.2824
  388TIP3   OH222578   4.055   4.917  11.149 -0.1206  0.3403  0.5857
  388TIP3    H122579   3.980   4.886  11.200 -0.3292  0.1238  0.1497
  388TIP3    H222580   4.078   4.843  11.093  1.3478 -0.1099  1.7564
  389TIP3   OH222581   0.516   5.955   5.809 -0.0800 -0.0389 -0.2507
  389TIP3    H122582   0.446   5.939   5.872  1.3890  1.6685  1.8937
  389TIP3    H222583   0.542   6.046   5.824  2.0850 -0.4070 -1.5091
  390TIP3   OH222584   5.194   4.483  14.709 -0.9425  0.1640  0.0353
  390TIP3    H122585   5.174   4.493  14.802  0.7139 -0.3403  0.4666
  390TIP3    H222586   5.139   4.547  14.665 -3.1268 -0.8739  1.1974
  391TIP3   OH222587   3.903   0.109  17.133  0.2893 -0.2255  0.3410
  391TIP3    H122588   3.928   0.031  17.182  2.1466  0.7396  1.0120
  391TIP3    H222589   3.962   0.110  17.058 -0.9292 -0.4201 -0.6175
  392TIP3   OH222590   1.828   2.870  17.221  0.6340  0.5170  0.2586
  392TIP3    H122591   1.859   2.896  17.307  1.4402 -0.0486  0.1467
  392TIP3    H222592   1.734   2.889  17.222  0.9293  1.9865  0.6907
  393TIP3   OH222593   4.799   0.381  13.155 -0.1943 -0.2841 -0.4954
  393TIP3    H122594   4.746   0.301  13.161 -2.4850  1.1854 -0.3211
  393TIP3    H222595   4.786   0.412  13.066  1.6199 -0.7024 -0.9194
  394TIP3   OH222596   6.120   3.802  12.811  0.4522 -0.1996 -0.6714
  394TIP3    H122597   6.193   3.804  12.872 -0.8384  0.5176  0.8982
  394TIP3    H222598   6.078   3.717  12.825  0.2917 -0.1319 -0.7350
  395TIP3   OH222599   5.855   0.147   0.551  0.3183  0.1654 -0.9637
  395TIP3    H122600   5.779   0.089   0.540  0.5530  0.0676 -2.0460
  395TIP3    H222601   5.854   0.168   0.645 -0.7973 -0.1786 -0.8819
  396TIP3   OH222602   1.520   4.414  17.128  0.4336 -0.1725 -0.2098
  396TIP3    H122603   1.545   4.502  17.099 -1.6692  0.0240 -1.5088
  396TIP3    H222604   1.511   4.363  17.047  2.7705 -1.9456  0.5686
  397TIP3   OH222605   0.298   2.234  16.484 -0.6740 -0.0984  0.9014
  397TIP3    H122606   0.328   2.312  16.531  0.9228 -1.3724  2.0531
  397TIP3    H222607   0.246   2.185  16.548 -1.9261  0.1506  0.0937
  398TIP3   OH222608   4.168   1.557   1.541 -0.2033  0.2782 -0.7145
  398TIP3    H122609   4.170   1.466   1.510  3.0369  0.2083 -0.5081
  398TIP3    H222610   4.192   1.551   1.633 -1.1202  1.2691 -0.4045
  399TIP3   OH222611   2.602   4.390  12.277  0.3044  0.3916  0.3000
  399TIP3    H122612   2.533   4.363  12.216 -0.0862 -0.7656  1.2348
  399TIP3    H222613   2.555   4.436  12.346  0.6248  0.7907  0.2465
  400TIP3   OH222614   0.316   5.831  14.551 -0.1984 -0.5151 -0.1057
  400TIP3    H122615   0.262   5.870  14.483  0.2823 -0.4106 -0.4361
  400TIP3    H222616   0.375   5.902  14.579  1.0352 -1.1263 -1.0818
  401TIP3   OH222617   4.635   4.887   4.493  0.2805 -0.2702  0.5213
  401TIP3    H122618   4.617   4.902   4.400 -0.2060 -0.3000  0.6080
  401TIP3    H222619   4.711   4.942   4.512  0.8904 -0.8993 -0.0908
  402TIP3   OH222620   0.659   2.858  17.077  0.7672  0.3019  0.4311
  402TIP3    H122621   0.621   2.936  17.037  0.5384 -0.7617 -1.5016
  402TIP3    H222622   0.586   2.816  17.122  0.9511  1.3350  1.7030
  403TIP3   OH222623   1.889   4.482  16.756 -0.5537 -0.0015  0.2989
  403TIP3    H122624   1.796   4.501  16.757  0.2646  4.4597  1.3605
  403TIP3    H222625   1.909   4.464  16.664 -2.0520  1.2782 -0.2865
  404TIP3   OH222626   6.645   0.554   1.095  0.1395 -0.4135  0.0938
  404TIP3    H122627   6.652   0.648   1.082 -1.6284 -0.0855  1.4421
  404TIP3    H222628   6.677   0.516   1.012  2.6709  1.2852  0.2276
  405TIP3   OH222629   0.604   1.503   6.319 -0.5520  0.2004  0.1918
  405TIP3    H122630   0.556   1.447   6.380  1.2525 -0.4484  1.0461
  405TIP3    H222631   0.605   1.454   6.237 -2.2114  0.6754 -0.1345
  406TIP3   OH222632   4.189   3.693   2.055  0.6894 -1.2470 -0.6912
  406TIP3    H122633   4.165   3.604   2.031 -1.9846 -1.1384  1.3144
  406TIP3    H222634   4.113   3.726   2.103  2.0327  1.7647 -0.5192
  407TIP3   OH222635   0.509   0.322   5.977 -0.6051 -0.0345 -0.1039
  407TIP3    H122636   0.526   0.228   5.989 -1.2703 -0.1652 -0.1929
  407TIP3    H222637   0.568   0.347   5.906  0.7586 -0.0249  1.0117
  408TIP3   OH222638   6.523   3.942  16.007  0.4795 -0.2618  0.0681
  408TIP3    H122639   6.514   3.928  16.101 -0.9497 -0.9259 -0.1564
  408TIP3    H222640   6.446   3.901  15.968  1.1650 -0.2061 -1.4216
  409TIP3   OH222641   0.087   5.977  12.591 -0.0788  0.2637 -0.4042
  409TIP3    H122642   0.011   6.021  12.555 -0.5980 -0.1934  0.1276
  409TIP3    H222643   0.101   6.019  12.676 -0.0015  0.0434 -0.3079
  410TIP3   OH222644   5.315   6.718  16.993  0.0209 -0.6478 -0.0011
  410TIP3    H122645   5.367   6.746  16.918 -1.0078 -1.3141 -0.9915
  410TIP3    H222646   5.258   6.793  17.012 -0.6600 -0.9619 -0.7618
  411TIP3   OH222647   1.651   5.377   5.448  0.2795 -0.0205  0.2784
  411TIP3    H122648   1.607   5.292   5.450 -3.1030  1.6332  0.5178
  411TIP3    H222649   1.700   5.376   5.365  0.9822 -2.4827  0.6744
  412TIP3   OH222650   3.441   4.398  17.102  0.2790 -0.4735  0.0196
  412TIP3    H122651   3.363   4.438  17.065  1.0183  1.9578  1.0071
  412TIP3    H222652   3.494   4.374  17.026  0.5519  1.9504 -0.5879
  413TIP3   OH222653   3.059   3.710  16.656 -0.4331 -0.1063 -0.1239
  413TIP3    H122654   3.119   3.637  16.669 -0.3571 -0.0548 -0.1824
  413TIP3    H222655   2.978   3.670  16.624 -0.4820 -0.1913  0.1090
  414TIP3   OH222656   4.073   3.476  16.693 -0.1194  0.1585  0.0822
  414TIP3    H122657   3.985   3.499  16.664 -0.3377  0.7213  1.1718
  414TIP3    H222658   4.069   3.383  16.713  0.1193 -0.3262 -1.9685
  415TIP3   OH222659   5.316   2.871   3.420 -0.8710 -0.1684  0.0773
  415TIP3    H122660   5.411   2.867   3.429 -0.9901 -2.0085  0.7673
  415TIP3    H222661   5.298   2.960   3.388  0.9435  0.7693  1.5694
  416TIP3   OH222662   3.712   3.498  10.707  0.2960 -0.4017 -0.1000
  416TIP3    H122663   3.759   3.578  10.686  1.1967 -0.6653  0.8721
  416TIP3    H222664   3.763   3.428  10.665 -1.3504 -0.3358 -2.2771
  417TIP3   OH222665   2.540   1.224   2.018 -0.1765  0.1671  0.1166
  417TIP3    H122666   2.529   1.311   2.056 -0.7527 -0.0878  0.5420
  417TIP3    H222667   2.451   1.190   2.009 -0.0988  0.5261 -2.1881
  418TIP3   OH222668   3.082   0.852  11.138 -1.1182  0.3665 -0.3691
  418TIP3    H122669   3.132   0.922  11.182 -0.9636 -0.4726  0.8011
  418TIP3    H222670   3.145   0.781  11.127 -2.0747 -0.7624  1.2609
  419TIP3   OH222671   4.927   0.631  15.035  0.2162 -0.0979 -0.3687
  419TIP3    H122672   5.021   0.638  15.053 -0.1289 -0.5167  1.6520
  419TIP3    H222673   4.909   0.537  15.032  0.0356 -0.0362 -1.8248
  420TIP3   OH222674   3.955   3.705   2.704 -0.2873  0.2791 -0.6440
  420TIP3    H122675   3.945   3.800   2.706  0.0610  0.3015  0.2125
  420TIP3    H222676   3.975   3.681   2.794 -4.4924 -1.0723  0.0569
  421TIP3   OH222677   1.350   6.125   1.653 -0.1790  0.5436  0.1254
  421TIP3    H122678   1.273   6.090   1.608 -0.0232  1.1976 -0.6601
  421TIP3    H222679   1.372   6.205   1.604  2.3204 -0.8047 -1.0544
  422TIP3   OH222680   2.818   6.107   2.857 -0.1384  0.0452  0.1873
  422TIP3    H122681   2.802   6.160   2.780 -0.3626 -0.3965 -0.0763
  422TIP3    H222682   2.913   6.096   2.861 -0.2643 -1.7814 -1.2948
  423TIP3   OH222683   3.253   5.719   1.814  0.7653 -0.3875  0.0877
  423TIP3    H122684   3.159   5.725   1.831  0.5194 -1.5303 -0.7336
  423TIP3    H222685   3.272   5.791   1.754 -0.2422 -2.0329 -2.2964
  424TIP3   OH222686   3.973   1.156  14.873 -0.1505  0.1513 -0.4653
  424TIP3    H122687   3.893   1.157  14.925  0.1817  1.8523  0.0601
  424TIP3    H222688   4.032   1.097  14.920 -0.3789  0.5065  0.2707
  425TIP3   OH222689   2.824   1.482   2.879  0.4065  0.1650 -0.7930
  425TIP3    H122690   2.893   1.424   2.847  1.7127  0.6350  1.0936
  425TIP3    H222691   2.759   1.423   2.917 -0.1913 -0.2664 -2.4241
  426TIP3   OH222692   1.726   1.577   4.627 -0.5832 -0.0608  0.2453
  426TIP3    H122693   1.640   1.548   4.595 -0.0258 -0.6935 -0.7111
  426TIP3    H222694   1.779   1.586   4.548  1.3146 -3.2326  1.0488
  427TIP3   OH222695   3.418   0.888   3.025 -0.2870 -0.8215 -0.6840
  427TIP3    H122696   3.495   0.901   3.081 -1.6386  1.8889  0.6210
  427TIP3    H222697   3.366   0.822   3.071  0.3155 -1.2255 -0.5773
  428TIP3   OH222698   3.884   1.109  14.110 -0.5970  0.4322 -0.4161
  428TIP3    H122699   3.850   1.020  14.117 -0.7768  0.6821  2.7139
  428TIP3    H222700   3.931   1.111  14.027 -1.8421 -2.1470 -1.2186
  429TIP3   OH222701   4.113   4.058  12.641 -0.2348 -0.0311 -0.0016
  429TIP3    H122702   4.033   4.026  12.682 -0.1907 -0.1113  0.0234
  429TIP3    H222703   4.175   4.069  12.713 -0.2970  0.2534  0.0112
  430TIP3   OH222704   5.219   6.468   2.108 -0.0156  0.1420 -0.5496
  430TIP3    H122705   5.148   6.441   2.049 -0.1834 -2.0062  0.5833
  430TIP3    H222706   5.274   6.390   2.117  1.2833  1.1265  0.3279
  431TIP3   OH222707   4.747   5.230  14.387  0.1678  0.5887  0.8646
  431TIP3    H122708   4.663   5.188  14.369  0.4637  0.4634 -0.2109
  431TIP3    H222709   4.812   5.162  14.370  0.5609  1.0420  0.5590
  432TIP3   OH222710   5.425   3.239  12.918 -0.0713 -0.3476 -0.2877
  432TIP3    H122711   5.399   3.313  12.863 -1.2640 -0.0182  0.6875
  432TIP3    H222712   5.520   3.246  12.924 -0.0468  0.3624 -1.2308
  433TIP3   OH222713   6.182   1.571  11.767 -0.4471  1.2839 -0.2018
  433TIP3    H122714   6.211   1.631  11.698  0.1021 -0.8168 -1.8529
  433TIP3    H222715   6.244   1.499  11.763 -2.3207 -0.3905  0.3447
  434TIP3   OH222716   5.190   0.915  16.457  0.0900 -0.1995 -0.4039
  434TIP3    H122717   5.239   0.859  16.396  0.9631  0.6922 -0.5476
  434TIP3    H222718   5.256   0.946  16.519 -0.5121  0.0996  0.0899
  435TIP3   OH222719   2.661   3.172   2.783 -0.2022 -0.1661  0.2371
  435TIP3    H122720   2.702   3.128   2.708 -0.2438  0.7572 -0.3332
  435TIP3    H222721   2.666   3.108   2.853  1.7039 -0.2943  0.0167
  436TIP3   OH222722   2.841   2.308  13.175 -0.2710  0.3755  0.3402
  436TIP3    H122723   2.935   2.300  13.191 -0.4131  0.2709  1.1265
  436TIP3    H222724   2.826   2.257  13.095  0.2366 -0.1176  0.5594
  437TIP3   OH222725   5.965   5.905   6.022  0.3478  0.0215 -0.5000
  437TIP3    H122726   5.874   5.878   6.011  0.3328  0.6224 -2.0167
  437TIP3    H222727   5.997   5.853   6.096 -0.7768 -1.3359 -0.9472
  438TIP3   OH222728   3.060   5.181   5.139 -0.3222 -0.8594 -0.4786
  438TIP3    H122729   3.134   5.240   5.152 -0.2276 -1.5445  2.5174
  438TIP3    H222730   3.093   5.116   5.077  0.8327  0.0899 -0.9010
  439TIP3   OH222731   4.695   4.557   3.983  0.4212  0.2587  0.5168
  439TIP3    H122732   4.725   4.511   3.905  1.1791  2.0331 -0.2663
  439TIP3    H222733   4.609   4.520   4.002  0.7730 -1.0470 -0.4309
  440TIP3   OH222734   4.597   6.774   2.285  0.3927  0.0341  0.1101
  440TIP3    H122735   4.681   6.740   2.255 -0.1169 -0.7941 -0.3951
  440TIP3    H222736   4.620   6.848   2.341  1.4063  0.9483 -1.4650
  441TIP3   OH222737   4.106   0.465  14.322  0.3642  0.2466 -0.4661
  441TIP3    H122738   4.127   0.407  14.395  0.3977 -0.8429 -1.3275
  441TIP3    H222739   4.142   0.550  14.348  2.5188 -0.7011 -0.2508
  442TIP3   OH222740   4.102   6.552  13.481  0.1088 -0.4436 -0.1423
  442TIP3    H122741   4.186   6.549  13.528  0.1048 -0.5693 -0.1415
  442TIP3    H222742   4.104   6.635  13.433  0.1267 -0.3279  0.0575
  443TIP3   OH222743   5.485   6.347  11.623 -0.0074  0.0667 -0.3636
  443TIP3    H122744   5.502   6.372  11.714 -0.1110  2.6167 -1.0147
  443TIP3    H222745   5.531   6.263  11.613  1.1665  0.4250  1.6392
  444TIP3   OH222746   2.347   1.730  11.776 -0.4674  0.1956 -0.6349
  444TIP3    H122747   2.363   1.639  11.802 -1.0283  0.3588  0.3193
  444TIP3    H222748   2.405   1.781  11.832 -0.9697  0.4942 -0.3828
  445TIP3   OH222749   4.759   3.980   6.042  0.0377  0.3804 -0.6441
  445TIP3    H122750   4.781   4.001   6.133 -0.3846  2.3553 -0.9763
  445TIP3    H222751   4.718   3.893   6.047  0.0267  0.4620  1.0400
  446TIP3   OH222752   0.364   6.100   5.230  0.0837 -0.1102  0.1995
  446TIP3    H122753   0.372   6.005   5.221 -2.9036 -0.6081  2.2536
  446TIP3    H222754   0.425   6.122   5.301 -0.2827 -0.6917  0.6949
  447TIP3   OH222755   4.134   3.598   0.270  0.8932  0.0274  0.8889
  447TIP3    H122756   4.147   3.508   0.240  0.7953 -0.7195  3.0062
  447TIP3    H222757   4.218   3.641   0.253  0.4877 -0.0416 -1.4616
  448TIP3   OH222758   3.591   5.728   1.096  0.2965  0.6402 -0.2985
  448TIP3    H122759   3.654   5.744   1.167 -0.2214 -0.7955  0.5126
  448TIP3    H222760   3.626   5.777   1.022  3.1575 -1.2390 -0.2820
  449TIP3   OH222761   0.750   3.789   1.885 -0.2842  0.4445  0.1925
  449TIP3    H122762   0.813   3.857   1.862  1.1991 -1.5094 -1.7997
  449TIP3    H222763   0.720   3.754   1.801 -1.4775 -0.9473  1.1576
  450TIP3   OH222764   6.613   4.661  12.497  0.4268  0.6002 -0.0706
  450TIP3    H122765   6.623   4.566  12.503  2.4123  0.8514  0.9175
  450TIP3    H222766   6.700   4.696  12.518 -0.0432  2.6073 -1.3348
  451TIP3   OH222767   5.629   2.828  17.186  0.1003 -0.2931 -0.1122
  451TIP3    H122768   5.581   2.851  17.265 -0.5120 -0.5604 -0.4029
  451TIP3    H222769   5.721   2.838  17.210 -0.1255  1.6350  0.0332
  452TIP3   OH222770   2.915   4.408   1.735  0.4735 -0.4674 -0.2780
  452TIP3    H122771   2.878   4.495   1.748 -0.0987 -0.7051 -0.3269
  452TIP3    H222772   3.008   4.424   1.721  0.5861  0.0406  0.9699
  453TIP3   OH222773   2.941   5.050  16.330  0.4661  0.0118  0.0618
  453TIP3    H122774   2.934   4.963  16.291 -0.0138 -0.2252  0.6643
  453TIP3    H222775   2.971   5.107  16.259  0.4366 -0.5786 -0.4205
  454TIP3   OH222776   4.543   3.299   0.775  0.5359 -0.2233  0.4942
  454TIP3    H122777   4.466   3.332   0.821  1.1164 -0.1362  1.4390
  454TIP3    H222778   4.530   3.204   0.772  0.3592 -0.2029  0.6107
  455TIP3   OH222779   5.779   0.545  13.829 -0.2162  0.1908  0.2136
  455TIP3    H122780   5.757   0.480  13.763  0.2404 -0.1944  0.4416
  455TIP3    H222781   5.741   0.512  13.910  0.6783 -0.1765  0.4830
  456TIP3   OH222782   1.123   0.471   4.145  0.0653  0.2925 -0.1102
  456TIP3    H122783   1.089   0.439   4.229 -1.3538  0.4625 -0.6096
  456TIP3    H222784   1.060   0.439   4.080  1.6917 -0.7221 -1.2404
  457TIP3   OH222785   3.308   1.514  15.767  0.2011 -0.2636  0.2795
  457TIP3    H122786   3.392   1.555  15.786 -0.3453  0.2441  1.6848
  457TIP3    H222787   3.329   1.443  15.707  1.2705  1.5571 -1.5451
  458TIP3   OH222788   4.063   4.060  13.787  0.1451 -0.3857  0.2579
  458TIP3    H122789   4.123   4.096  13.853 -0.5064  2.5431 -0.7169
  458TIP3    H222790   3.989   4.026  13.838 -0.0734  1.3043  1.0860
  459TIP3   OH222791   0.808   1.257  13.768  0.0693 -0.0709  0.3434
  459TIP3    H122792   0.867   1.182  13.770  1.9335  1.3056 -0.4644
  459TIP3    H222793   0.723   1.223  13.794  1.2548 -2.1049  1.6390
  460TIP3   OH222794   1.610   6.063  11.965 -0.7713  0.1005  0.1612
  460TIP3    H122795   1.656   6.144  11.989 -0.4558  0.8163 -2.6945
  460TIP3    H222796   1.537   6.092  11.911 -1.7901 -1.4018  0.7190
  461TIP3   OH222797   3.181   0.273  12.440  0.2264 -0.2112  0.1912
  461TIP3    H122798   3.205   0.365  12.443  0.3680 -0.2343 -0.1817
  461TIP3    H222799   3.117   0.262  12.511 -0.4978  0.3842 -0.3563
  462TIP3   OH222800   0.991   6.183   3.225  0.5714 -0.5008 -0.1214
  462TIP3    H122801   0.898   6.192   3.207  0.8278  0.1833 -1.1365
  462TIP3    H222802   0.998   6.193   3.320 -0.3018  0.2235 -0.1278
  463TIP3   OH222803   1.247   4.493  16.689  0.3463 -0.4547 -0.5292
  463TIP3    H122804   1.250   4.587  16.706 -3.0966 -0.0042 -2.0182
  463TIP3    H222805   1.269   4.485  16.596  0.9245 -1.1710 -0.3374
  464TIP3   OH222806   3.847   3.909  11.118 -0.0118 -0.2348 -0.0980
  464TIP3    H122807   3.793   3.976  11.076 -0.6665 -1.6285 -1.5309
  464TIP3    H222808   3.911   3.884  11.052  0.8338 -0.3508  0.7493
  465TIP3   OH222809   1.438   5.072   0.748 -0.0178  0.1399  0.4349
  465TIP3    H122810   1.387   5.067   0.668  2.3874  1.9733 -1.2705
  465TIP3    H222811   1.383   5.122   0.809 -2.6498 -2.8281  0.6641
  466TIP3   OH222812   5.133   0.280   1.384  0.9046 -0.5789  0.6349
  466TIP3    H122813   5.107   0.314   1.470 -0.7180 -1.6268  0.5772
  466TIP3    H222814   5.052   0.279   1.333  1.7780 -0.3619 -0.7891
  467TIP3   OH222815   2.718   6.097  12.286  0.0290  0.0053 -0.2315
  467TIP3    H122816   2.686   6.026  12.342 -0.1013  0.3269  0.1018
  467TIP3    H222817   2.672   6.175  12.316 -0.2137  0.1411 -0.9413
  468TIP3   OH222818   0.546   6.712   3.890  0.1298  0.2279  0.0955
  468TIP3    H122819   0.620   6.652   3.880 -0.9703 -0.7682 -2.6606
  468TIP3    H222820   0.489   6.669   3.954 -0.5575 -1.6947 -1.7095
  469TIP3   OH222821   1.118   5.412  11.549 -0.1653 -0.5044 -0.0374
  469TIP3    H122822   1.114   5.324  11.511  1.8817 -0.3607 -0.6142
  469TIP3    H222823   1.127   5.470  11.474 -1.5597  0.2441  0.3370
  470TIP3   OH222824   2.174   0.572  14.340  0.0040  0.5486  0.6289
  470TIP3    H122825   2.109   0.562  14.271  0.3128  0.9758  0.2697
  470TIP3    H222826   2.218   0.487  14.345 -3.4369 -1.1848  3.8315
  471TIP3   OH222827   5.640   4.847  15.751 -0.4193 -0.0609 -0.2144
  471TIP3    H122828   5.552   4.834  15.785 -0.2083 -1.8041 -0.3023
  471TIP3    H222829   5.682   4.904  15.816 -0.4080 -2.3249  1.8581
  472TIP3   OH222830   4.125   2.132   6.216 -0.2268  0.1636 -0.8678
  472TIP3    H122831   4.183   2.065   6.180  1.6237  1.0283  0.4200
  472TIP3    H222832   4.181   2.183   6.274 -2.0425  1.7032 -0.4287
  473TIP3   OH222833   0.655   0.299   5.718  0.0046 -0.4624  0.0676
  473TIP3    H122834   0.595   0.330   5.650  1.6724 -0.5395 -1.4971
  473TIP3    H222835   0.739   0.338   5.694  1.2414 -2.8310  0.4602
  474TIP3   OH222836   1.199   3.397  15.009 -0.0132 -0.2926 -0.0412
  474TIP3    H122837   1.223   3.454  15.081 -2.2855  0.8034 -0.1119
  474TIP3    H222838   1.232   3.310  15.034 -0.5812  0.1239  2.1833
  475TIP3   OH222839   0.462   4.921  12.544 -0.4928  0.1718 -0.4746
  475TIP3    H122840   0.485   4.834  12.511  2.2117 -0.2061  2.1952
  475TIP3    H222841   0.509   4.928  12.627 -1.2645  3.9067 -0.2843
  476TIP3   OH222842   4.143   2.679  15.916  0.5894  0.7031  0.1667
  476TIP3    H122843   4.167   2.755  15.969  1.6098 -1.3618  2.7751
  476TIP3    H222844   4.170   2.603  15.968 -0.0820 -1.4741 -2.5060
  477TIP3   OH222845   6.444   2.516   6.316  0.7322  0.2749 -0.2231
  477TIP3    H122846   6.430   2.424   6.297  0.0007  0.2870  0.2304
  477TIP3    H222847   6.395   2.562   6.247  0.9539  0.3227 -0.3486
  478TIP3   OH222848   0.078   1.110   1.217 -0.1713  0.4669 -0.2748
  478TIP3    H122849   0.141   1.108   1.289 -0.3167 -0.2778 -0.1664
  478TIP3    H222850  -0.007   1.098   1.260 -0.1006 -1.9249 -0.7469
  479TIP3   OH222851   5.956   2.279  12.405  0.2734  0.5729  0.0280
  479TIP3    H122852   5.924   2.355  12.454  0.4712 -0.0690  1.1655
  479TIP3    H222853   5.893   2.269  12.333  1.1599  2.7847 -1.1058
  480TIP3   OH222854   1.377   1.604  14.283 -0.1006  0.1083 -0.4023
  480TIP3    H122855   1.376   1.696  14.257 -2.3499 -0.4045 -2.2960
  480TIP3    H222856   1.284   1.578  14.283  0.5543 -2.3646 -0.7670
  481TIP3   OH222857   1.479   3.061  12.688 -0.0137  0.3595  0.5805
  481TIP3    H122858   1.416   3.013  12.741 -0.3751  1.3915  1.0898
  481TIP3    H222859   1.441   3.061  12.600  0.9210 -1.9565  0.1346
  482TIP3   OH222860   4.849   2.734  16.151  0.2200  0.2060 -0.6021
  482TIP3    H122861   4.793   2.708  16.224  0.9378 -0.1384 -0.1690
  482TIP3    H222862   4.883   2.652  16.116 -0.7832  0.3135 -1.8664
  483TIP3   OH222863   4.505   2.764   5.740  0.6951  0.8427 -0.0414
  483TIP3    H122864   4.475   2.852   5.764 -0.6970  0.3926 -0.0897
  483TIP3    H222865   4.434   2.729   5.686  1.1482 -0.4017  0.1725
  484TIP3   OH222866   1.328   1.807  13.108 -0.4329  0.4246 -0.1975
  484TIP3    H122867   1.375   1.856  13.041  1.3463 -0.5578  0.3029
  484TIP3    H222868   1.319   1.869  13.181 -1.1089  1.0333 -0.7860
  485TIP3   OH222869   0.484   5.165   5.146 -0.0545  0.4898  0.0851
  485TIP3    H122870   0.505   5.127   5.231 -1.3883 -0.4299  0.0170
  485TIP3    H222871   0.537   5.245   5.141  0.8365 -0.0130  1.3140
  486TIP3   OH222872   4.648   3.428  10.468  0.1631 -0.0517 -0.6124
  486TIP3    H122873   4.666   3.483  10.544 -2.0490  1.3594 -1.0648
  486TIP3    H222874   4.553   3.423  10.464  0.2525 -0.3730 -3.1126
  487TIP3   OH222875   4.925   0.881   5.111 -0.4376 -0.0744  0.1615
  487TIP3    H122876   4.841   0.837   5.117 -0.1818 -0.7665 -1.2588
  487TIP3    H222877   4.909   0.959   5.058 -0.7787  1.3001  2.2441
  488TIP3   OH222878   5.290   1.728   4.759  0.1020 -0.1119 -0.2882
  488TIP3    H122879   5.311   1.635   4.766 -0.5888 -0.4281 -2.2530
  488TIP3    H222880   5.338   1.758   4.682 -0.5322  0.9190 -0.2942
  489TIP3   OH222881   3.890   6.783   3.119 -0.3929  0.1040 -0.3126
  489TIP3    H122882   3.975   6.745   3.097 -1.3655 -1.2933 -1.7594
  489TIP3    H222883   3.859   6.823   3.037 -0.0724  2.7541  0.8013
  490TIP3   OH222884   3.163   4.418   5.691  0.1974  0.1473  0.2562
  490TIP3    H122885   3.121   4.504   5.688 -0.1243 -0.0402 -0.7948
  490TIP3    H222886   3.204   4.408   5.605  1.3379 -0.2116  0.8285
  491TIP3   OH222887   3.106   0.113  12.235  0.0205  0.0440  0.7319
  491TIP3    H122888   3.122   0.166  12.314 -0.6436  0.0088  0.8871
  491TIP3    H222889   3.086   0.026  12.269 -0.0649 -0.0202  0.5103
  492TIP3   OH222890   5.862   1.697  15.175  0.0333  0.2231 -0.2808
  492TIP3    H122891   5.804   1.632  15.137 -0.2928 -0.1878  0.8777
  492TIP3    H222892   5.939   1.647  15.204  0.5140  0.6061 -0.8874
  493TIP3   OH222893   6.373   4.408   5.245 -0.0760  0.6504  0.1951
  493TIP3    H122894   6.300   4.468   5.262 -1.7778 -1.0626 -0.9298
  493TIP3    H222895   6.426   4.411   5.325 -0.7872  2.7103  0.6223
  494TIP3   OH222896   5.012   6.302   5.050  0.1828  0.1890  0.9896
  494TIP3    H122897   5.100   6.278   5.078  0.3751 -1.7977 -1.1983
  494TIP3    H222898   5.024   6.345   4.966 -0.9566 -0.3903  0.5246
  495TIP3   OH222899   5.721   0.062  12.628 -0.0403  0.0622 -0.0579
  495TIP3    H122900   5.647   0.051  12.687 -0.5636 -0.4073 -0.7966
  495TIP3    H222901   5.714  -0.010  12.566  1.3973 -0.3647  0.2424
  496TIP3   OH222902   4.117   4.722  10.972 -0.0490 -0.5248 -0.2794
  496TIP3    H122903   4.196   4.747  10.925 -0.5414 -0.3478 -1.0366
  496TIP3    H222904   4.051   4.710  10.903 -0.7815 -0.2910  0.3658
  497TIP3   OH222905   0.597   5.269  10.172  0.7674  0.5771 -0.4251
  497TIP3    H122906   0.534   5.330  10.212  0.4464 -0.5109  0.7512
  497TIP3    H222907   0.658   5.248  10.242  0.6485 -0.7521 -0.7109
  498TIP3   OH222908   2.858   0.325  17.155 -0.0369 -0.1075 -0.3548
  498TIP3    H122909   2.764   0.315  17.172 -0.0783  0.9020  0.0305
  498TIP3    H222910   2.864   0.339  17.061 -0.3655  0.8672 -0.2331
  499TIP3   OH222911   1.085   5.867   3.680  0.2320 -0.2110 -0.0709
  499TIP3    H122912   1.160   5.925   3.665 -0.5756  1.1158  0.8952
  499TIP3    H222913   1.051   5.894   3.766  0.3646 -2.7141  0.8071
  500TIP3   OH222914   1.307   0.034   0.678  0.0234 -0.2145 -0.0058
  500TIP3    H122915   1.294   0.023   0.584 -1.0582  1.5935 -0.1007
  500TIP3    H222916   1.367   0.108   0.686 -2.3434  1.6810  0.7462
  501TIP3   OH222917   4.835   6.126  10.348 -0.4018  0.6384  0.1044
  501TIP3    H122918   4.765   6.180  10.385  0.0381  1.5386 -0.3651
  501TIP3    H222919   4.810   6.036  10.369 -3.6624  0.6269 -3.2744
  502TIP3   OH222920   3.369   4.271  14.347  0.0711  0.5418 -0.0281
  502TIP3    H122921   3.377   4.349  14.402  0.4172  0.5789 -0.1293
  502TIP3    H222922   3.278   4.243  14.358  0.6729 -0.6444  2.2064
  503TIP3   OH222923   2.621   6.362  13.879 -0.6418 -0.2503 -0.1885
  503TIP3    H122924   2.680   6.430  13.912 -1.8406  1.1816 -0.9458
  503TIP3    H222925   2.546   6.364  13.938  0.3066 -2.5474  1.1966
  504TIP3   OH222926   4.310   3.933  16.104 -0.4446  0.5148 -0.5617
  504TIP3    H122927   4.405   3.932  16.121 -0.1511  1.4300 -2.0388
  504TIP3    H222928   4.304   3.933  16.008 -1.9404  0.9741 -0.4660
  505TIP3   OH222929   2.145   4.443   4.340  0.0329  0.3820  0.1032
  505TIP3    H122930   2.189   4.527   4.350 -0.0112  0.5851 -1.3456
  505TIP3    H222931   2.198   4.395   4.277 -0.4425 -0.3271  0.2364
  506TIP3   OH222932   3.556   6.559  15.405  0.0465 -0.0541  0.0395
  506TIP3    H122933   3.618   6.506  15.354 -0.6112  0.0497 -0.8687
  506TIP3    H222934   3.588   6.552  15.496  2.0604  0.9226 -0.5621
  507TIP3   OH222935   5.710   2.156   6.678 -0.4086 -0.2009 -0.4112
  507TIP3    H122936   5.798   2.168   6.714  0.5539 -0.5146 -2.6345
  507TIP3    H222937   5.695   2.062   6.682 -0.9135 -0.0888  0.5467
  508TIP3   OH222938   3.976   0.377  16.404 -0.2302  0.5129 -0.6675
  508TIP3    H122939   3.886   0.355  16.377  0.1955 -0.3177 -1.4591
  508TIP3    H222940   3.965   0.433  16.480 -1.4221 -2.8848  1.8214
  509TIP3   OH222941   2.096   3.948  12.172  0.2149 -0.4340  0.0315
  509TIP3    H122942   2.107   3.912  12.261 -0.4128 -1.5738 -0.3453
  509TIP3    H222943   2.033   3.890  12.130  1.8998 -1.0212 -1.7894
  510TIP3   OH222944   2.137   1.113   3.263  0.4157  0.0023  0.2838
  510TIP3    H122945   2.089   1.122   3.181 -0.5371 -1.1811  0.6867
  510TIP3    H222946   2.071   1.126   3.331  0.9159 -0.3595  0.8479
  511TIP3   OH222947   6.388   5.522  15.703  0.0033 -0.1757 -0.2107
  511TIP3    H122948   6.300   5.552  15.679 -1.3596 -2.0372  2.2463
  511TIP3    H222949   6.375   5.467  15.780  3.4079 -0.0534  0.5496
  512TIP3   OH222950   3.989   4.917   3.716  0.2079  0.0320 -0.4060
  512TIP3    H122951   3.979   5.003   3.675  0.3789  0.0036 -0.5090
  512TIP3    H222952   4.077   4.888   3.690  1.0866  0.8622  1.5915
  513TIP3   OH222953   4.504   3.781   2.785  0.1928  0.5476  0.5459
  513TIP3    H122954   4.499   3.824   2.700  0.3839  1.2249  0.8768
  513TIP3    H222955   4.444   3.831   2.841 -1.0169 -0.7440  0.4508
  514TIP3   OH222956   5.997   6.311   3.423  0.1830 -0.0716 -0.1412
  514TIP3    H122957   5.905   6.327   3.401  0.3746  3.0032  1.0218
  514TIP3    H222958   5.997   6.230   3.472 -1.6771 -1.0068 -1.6262
  515TIP3   OH222959   1.705   6.666   5.743 -0.0819 -0.0919 -0.3457
  515TIP3    H122960   1.712   6.625   5.829 -0.0882 -0.3263 -0.4562
  515TIP3    H222961   1.611   6.680   5.730 -0.0958 -0.2317 -0.3957
  516TIP3   OH222962   5.170   3.399   6.687 -0.1022  0.3897  0.2642
  516TIP3    H122963   5.095   3.344   6.710  0.4165 -0.6361 -0.4684
  516TIP3    H222964   5.225   3.343   6.633  0.3425  1.7014 -0.6567
  517TIP3   OH222965   6.570   6.562   5.157  0.3698  0.0801 -0.3899
  517TIP3    H122966   6.554   6.622   5.085 -1.1210 -2.2281 -2.0430
  517TIP3    H222967   6.653   6.519   5.136  0.3882  0.0563 -0.2744
  518TIP3   OH222968   4.873   2.199   2.690  0.1338 -0.1914 -0.1824
  518TIP3    H122969   4.810   2.128   2.701 -2.5107  2.1215 -0.1213
  518TIP3    H222970   4.888   2.203   2.596  1.0687 -1.4340 -0.1087
  519TIP3   OH222971   5.565   5.975  11.024  0.0381  0.3248 -0.7157
  519TIP3    H122972   5.652   6.014  11.030  0.4123 -0.6948  0.7543
  519TIP3    H222973   5.569   5.920  10.947  1.4789 -1.5571  0.6553
  520TIP3   OH222974   4.267   4.708  12.490  0.1477 -0.4831  0.3203
  520TIP3    H122975   4.323   4.631  12.496  1.3761  0.4103  0.4147
  520TIP3    H222976   4.323   4.781  12.515 -0.5689  0.6525 -1.2929
  521TIP3   OH222977   6.380   0.113  14.571 -0.1390 -0.1703 -0.3026
  521TIP3    H122978   6.305   0.069  14.530  1.0283 -1.8997 -0.6502
  521TIP3    H222979   6.406   0.180  14.508 -0.5236 -0.5207 -0.8389
  522TIP3   OH222980   0.312   0.521  10.958 -0.3653 -0.3520 -0.0210
  522TIP3    H122981   0.369   0.450  10.988  0.9051 -0.5027 -2.6198
  522TIP3    H222982   0.237   0.476  10.920  1.3136 -0.4908 -3.4182
  523TIP3   OH222983   4.701   1.685  16.637  0.4200 -0.2566 -0.2701
  523TIP3    H122984   4.694   1.780  16.628 -1.2507 -0.4667 -1.2268
  523TIP3    H222985   4.712   1.653  16.548 -0.2145 -1.0585 -0.0593
  524TIP3   OH222986   4.195   0.946   1.151 -0.3315 -0.2303  0.3461
  524TIP3    H122987   4.247   0.883   1.201  0.9389  0.1047 -0.5199
  524TIP3    H222988   4.140   0.990   1.216  1.1179  0.0334  1.4037
  525TIP3   OH222989   6.734   1.333   2.024 -0.2847  0.2403 -0.3045
  525TIP3    H122990   6.706   1.369   2.108  0.0006 -0.0178 -0.0988
  525TIP3    H222991   6.655   1.336   1.969 -0.5410  0.1601  0.0573
  526TIP3   OH222992   5.130   4.801   0.652  0.0960  0.0146  0.2040
  526TIP3    H122993   5.117   4.706   0.657 -0.1453  0.0124 -0.4395
  526TIP3    H222994   5.205   4.817   0.709  0.9727 -0.7325 -0.7201
  527TIP3   OH222995   4.781   2.769  16.748  0.6178 -0.4851  0.4059
  527TIP3    H122996   4.870   2.777  16.782  0.3661 -0.2742  1.0109
  527TIP3    H222997   4.728   2.749  16.825 -0.0271  0.4894  0.2233
  528TIP3   OH222998   6.122   0.240  10.522 -0.4719 -0.0956 -0.0269
  528TIP3    H122999   6.067   0.207  10.452 -1.5467  0.2178  0.6548
  528TIP3    H223000   6.206   0.260  10.480 -0.8224 -0.7350 -1.0360
  529TIP3   OH223001   0.079   5.125  15.124 -0.3502  0.1884 -0.4999
  529TIP3    H123002   0.031   5.181  15.185  0.8164  0.4731  0.1464
  529TIP3    H223003   0.034   5.041  15.129  0.4518 -0.1271  1.6123
  530TIP3   OH223004   5.545   4.048  16.483 -0.4229 -0.5827  0.4443
  530TIP3    H123005   5.587   4.052  16.397 -0.0616 -0.6403  0.6112
  530TIP3    H223006   5.460   4.007  16.467 -1.0034  0.8187 -0.1314
  531TIP3   OH223007   3.281   0.973  15.172 -0.1038  0.1620  0.6661
  531TIP3    H123008   3.204   0.962  15.227 -2.1228 -0.5043 -2.1972
  531TIP3    H223009   3.344   1.019  15.228 -1.7552 -1.1837  3.7445
  532TIP3   OH223010   5.917   5.917   5.739  0.5622 -0.0601  0.0595
  532TIP3    H123011   5.953   5.946   5.823  1.3363  0.9407 -0.6142
  532TIP3    H223012   5.990   5.920   5.678 -0.8846  3.3692 -1.6712
  533TIP3   OH223013   4.096   6.332  16.917 -0.1984 -0.0512 -0.7950
  533TIP3    H123014   4.140   6.271  16.977  1.1263  1.0415 -0.6395
  533TIP3    H223015   4.134   6.312  16.831  1.8184  1.9492 -0.4180
  534TIP3   OH223016   0.784   5.996  16.786  0.3383 -0.2281 -0.4889
  534TIP3    H123017   0.857   6.044  16.747  1.0727 -0.1793  0.9424
  534TIP3    H223018   0.771   5.921  16.727  1.5617 -0.2601 -0.7238
  535TIP3   OH223019   2.444   3.102  13.446 -0.4299 -0.4511 -0.3668
  535TIP3    H123020   2.539   3.088  13.450 -0.5217 -1.1999 -0.7057
  535TIP3    H223021   2.433   3.177  13.388 -0.0264 -0.1358 -0.0414
  536TIP3   OH223022   4.806   6.561  16.993 -0.9194  0.1718 -0.2817
  536TIP3    H123023   4.879   6.583  17.051 -0.6370 -1.6030  0.0584
  536TIP3    H223024   4.755   6.642  16.987 -0.9595  0.3894  2.4309
  537TIP3   OH223025   3.070   5.333   3.686  0.0912 -0.0594 -0.4143
  537TIP3    H123026   3.061   5.238   3.687  0.5466 -0.0953  0.8775
  537TIP3    H223027   2.983   5.366   3.707 -0.1316 -0.1745 -1.1282
  538TIP3   OH223028   1.473   6.545   3.006 -0.3492 -0.2226 -0.0164
  538TIP3    H123029   1.439   6.627   3.044  2.3329  1.4858 -1.1969
  538TIP3    H223030   1.541   6.517   3.068  1.4900  0.6147 -1.6108
  539TIP3   OH223031   4.100   4.528   0.511 -0.8433  0.0680 -0.2816
  539TIP3    H123032   4.148   4.461   0.461 -0.7399 -0.3147  0.3252
  539TIP3    H223033   4.161   4.554   0.581 -1.1707  0.2552 -0.0662
  540TIP3   OH223034   3.365   3.167  15.560 -0.8034 -0.2923 -0.2472
  540TIP3    H123035   3.311   3.097  15.597 -0.0118  0.1753  1.9257
  540TIP3    H223036   3.420   3.195  15.634  1.6168 -0.0249 -2.1090
  541TIP3   OH223037   3.883   4.275  14.753 -0.4187  0.0406 -0.1948
  541TIP3    H123038   3.859   4.293  14.844  1.8120 -1.8594  0.8483
  541TIP3    H223039   3.920   4.357  14.721  0.4256  0.2272  1.2128
  542TIP3   OH223040   4.170   0.253   4.203 -0.3795  0.2595 -0.0844
  542TIP3    H123041   4.198   0.342   4.226 -2.0058  0.4836  1.1190
  542TIP3    H223042   4.075   0.254   4.215 -0.5314 -1.3566 -1.0457
  543TIP3   OH223043   2.320   0.480  13.335  0.1687 -0.4653  0.3529
  543TIP3    H123044   2.299   0.441  13.250 -0.5461  1.5273 -0.4210
  543TIP3    H223045   2.251   0.544  13.350  1.2646  0.4592  1.6119
  544TIP3   OH223046   4.304   5.541  17.030 -0.0081 -0.5348 -0.1546
  544TIP3    H123047   4.399   5.551  17.029  0.0136 -0.8811 -1.3605
  544TIP3    H223048   4.289   5.451  17.058 -0.0201 -0.1451  1.1559
  545TIP3   OH223049   3.317   5.720  17.120 -0.1083 -0.6220 -0.1333
  545TIP3    H123050   3.354   5.690  17.037  1.3450 -0.5975  0.5083
  545TIP3    H223051   3.316   5.642  17.176 -0.8190 -0.5698 -0.0600
  546TIP3   OH223052   1.008   1.436  13.548  0.8090 -0.9732 -0.1044
  546TIP3    H123053   1.054   1.424  13.632 -1.8423  0.8428  1.7066
  546TIP3    H223054   1.036   1.523  13.518 -0.4433 -0.3788  0.4006
  547TIP3   OH223055   5.531   3.432  15.068  0.2738 -0.0348  0.2509
  547TIP3    H123056   5.468   3.364  15.093  0.8798 -1.2977 -1.5887
  547TIP3    H223057   5.510   3.506  15.126 -3.4336 -0.1445 -0.8096
  548TIP3   OH223058   2.823   2.609  15.257 -0.1744  0.4906  0.3778
  548TIP3    H123059   2.814   2.699  15.226  0.0030  0.3439 -0.0956
  548TIP3    H223060   2.853   2.559  15.181 -0.5635 -0.0292  0.5617
  549TIP3   OH223061   5.653   2.419  11.118  0.2598 -0.6533  0.4157
  549TIP3    H123062   5.724   2.440  11.058 -0.1672 -0.5428 -0.0511
  549TIP3    H223063   5.587   2.487  11.104 -0.2977 -1.2183  0.2500
  550TIP3   OH223064   2.241   0.005  11.531 -0.3780  0.7677 -0.6798
  550TIP3    H123065   2.252   0.003  11.436 -1.1206  0.1576 -0.7622
  550TIP3    H223066   2.286   0.085  11.559 -1.7470  1.9663 -1.7723
  551TIP3   OH223067   3.233   3.909   6.531 -0.0796  0.0683  0.0918
  551TIP3    H123068   3.178   3.946   6.462  0.6133  0.3368 -0.3276
  551TIP3    H223069   3.171   3.877   6.597 -0.8342 -2.3388 -1.7198
  552TIP3   OH223070   3.522   2.940  12.097 -0.0983  0.0889  0.3055
  552TIP3    H123071   3.444   2.983  12.064 -0.2259  0.2332  0.7928
  552TIP3    H223072   3.573   2.918  12.018 -0.7031 -0.1550 -0.0202
  553TIP3   OH223073   2.092   5.590   5.935 -0.4164  0.4649 -0.6754
  553TIP3    H123074   2.173   5.548   5.962 -0.4740  1.0664  0.4548
  553TIP3    H223075   2.054   5.530   5.871 -1.2453 -1.9772  1.9818
  554TIP3   OH223076   4.308   2.942  10.783 -0.2197 -0.3569 -0.6523
  554TIP3    H123077   4.355   2.859  10.793 -0.2843 -0.2764  0.3499
  554TIP3    H223078   4.232   2.920  10.729  0.2757 -0.7556 -1.1966
  555TIP3   OH223079   0.868   1.964  13.757  0.0565 -0.0430  0.5736
  555TIP3    H123080   0.799   1.918  13.804 -1.1936 -1.3291 -2.4044
  555TIP3    H223081   0.949   1.918  13.780 -0.7725 -1.7804  0.0909
  556TIP3   OH223082   0.488   1.925   3.934 -0.2487 -0.4236 -0.0392
  556TIP3    H123083   0.486   1.896   4.025 -2.2822  0.8757  0.3556
  556TIP3    H223084   0.397   1.943   3.912  0.5943  3.1615 -1.0179
  557TIP3   OH223085   3.670   2.948   5.019 -0.0206  0.4008 -0.7393
  557TIP3    H123086   3.581   2.914   5.008  0.7120 -2.1273  0.7463
  557TIP3    H223087   3.661   3.018   5.083 -0.6423 -1.3265  1.1052
  558TIP3   OH223088   2.368   2.189   5.027 -0.2330 -0.1747  0.4527
  558TIP3    H123089   2.339   2.133   4.954  0.9383  0.9889 -0.9238
  558TIP3    H223090   2.341   2.141   5.106  0.3516 -2.4745 -0.6955
  559TIP3   OH223091   2.210   1.767   2.656  0.0168  0.3665 -0.1186
  559TIP3    H123092   2.245   1.777   2.567 -2.1619  1.7179 -0.8787
  559TIP3    H223093   2.155   1.844   2.668  1.6858  1.1594  3.1232
  560TIP3   OH223094   6.577   4.451   5.715 -0.3780 -0.0184  0.3353
  560TIP3    H123095   6.566   4.446   5.810  1.3542  1.2071  0.6365
  560TIP3    H223096   6.593   4.544   5.698  0.3785 -0.3830 -1.0118
  561TIP3   OH223097   1.666   3.047  15.133  0.2217 -0.2286 -0.0875
  561TIP3    H123098   1.693   3.019  15.045  0.3922 -0.7391  0.1262
  561TIP3    H223099   1.716   2.990  15.192  0.7058  0.6467  0.3565
  562TIP3   OH223100   6.782   2.143  14.757 -0.5369 -0.3534 -0.2964
  562TIP3    H123101   6.795   2.049  14.768 -1.1494 -0.3512  0.5126
  562TIP3    H223102   6.704   2.163  14.810 -0.5253  0.5715 -0.6162
  563TIP3   OH223103   5.648   2.975  12.743 -0.0278  0.0390 -0.1949
  563TIP3    H123104   5.647   3.053  12.799  0.4669  0.3924 -0.6761
  563TIP3    H223105   5.719   2.991  12.681 -0.2136 -0.6012 -0.5756
  564TIP3   OH223106   2.409   5.594  14.632 -0.1361 -0.2749  0.3589
  564TIP3    H123107   2.411   5.504  14.601 -0.3359 -0.3701  0.6182
  564TIP3    H223108   2.357   5.590  14.712 -2.7560  0.5960 -1.2518
  565TIP3   OH223109   0.039   3.770  16.197 -0.3047 -0.1585  0.0318
  565TIP3    H123110   0.125   3.734  16.175 -0.0844  2.0074 -2.8904
  565TIP3    H223111  -0.014   3.757  16.118 -2.1899 -0.0462  1.2470
  566TIP3   OH223112   5.493   5.088  15.475 -0.7615  0.0531 -0.1316
  566TIP3    H123113   5.566   5.127  15.523 -1.3480  0.5257  0.3923
  566TIP3    H223114   5.423   5.081  15.540 -1.6012  0.8017 -0.9439
  567TIP3   OH223115   2.666   2.946   2.935  0.5563 -0.4764 -0.0657
  567TIP3    H123116   2.689   3.001   3.010  0.8395  1.8657 -1.8091
  567TIP3    H223117   2.750   2.914   2.902  0.4592 -1.1930  0.3735
  568TIP3   OH223118   1.968   1.588  12.324 -0.2734 -0.1086  0.2540
  568TIP3    H123119   1.978   1.509  12.270  1.6159  0.7214 -0.6721
  568TIP3    H223120   1.881   1.580  12.363 -0.7139 -1.9050 -1.0337
  569TIP3   OH223121   3.527   4.010  16.463  0.1325 -0.3865  0.7684
  569TIP3    H123122   3.505   3.976  16.377 -0.2333 -0.5961  0.9441
  569TIP3    H223123   3.452   3.986  16.518 -0.6510  1.6883  0.6456
  570TIP3   OH223124   3.132   4.560   0.210  0.2347 -0.1659  0.2622
  570TIP3    H123125   3.220   4.522   0.221  0.7837  0.8267 -0.5687
  570TIP3    H223126   3.148   4.653   0.197 -0.9523  0.0129  0.0673
  571TIP3   OH223127   5.775   1.753   2.819 -0.0983  0.6700 -0.3286
  571TIP3    H123128   5.735   1.840   2.826 -1.9169 -0.0268 -1.5863
  571TIP3    H223129   5.713   1.702   2.767  0.0824 -1.9012  1.8390
  572TIP3   OH223130   1.432   0.770   5.692  0.1949  1.1226 -0.5801
  572TIP3    H123131   1.345   0.800   5.715 -0.0154  0.3099 -0.3015
  572TIP3    H223132   1.418   0.692   5.638  0.7385  0.5394  0.0899
  573TIP3   OH223133   2.487   2.508  14.024  0.3378  0.3161  0.0298
  573TIP3    H123134   2.532   2.536  13.944 -0.0619  0.8203 -0.0220
  573TIP3    H223135   2.427   2.579  14.044  0.1894  0.0370  0.5923
  574TIP3   OH223136   6.474   0.624  16.831 -0.6379 -0.1231 -0.3195
  574TIP3    H123137   6.512   0.541  16.800  0.2783  0.4248 -0.6838
  574TIP3    H223138   6.533   0.691  16.796 -0.8020  0.6221  0.8387
  575TIP3   OH223139   5.580   1.578   4.337  0.1562 -0.0743  0.0861
  575TIP3    H123140   5.555   1.671   4.333 -1.3491 -0.4109  1.4410
  575TIP3    H223141   5.532   1.537   4.265  2.0378  0.4435 -1.5144
  576TIP3   OH223142   1.366   4.213   5.397 -0.0737 -0.3170 -0.8008
  576TIP3    H123143   1.347   4.126   5.362 -0.0885 -0.2501 -0.9579
  576TIP3    H223144   1.319   4.216   5.481  2.5528 -1.6655  0.7541
  577TIP3   OH223145   2.610   1.866   2.096  0.4995  0.0088  0.1993
  577TIP3    H123146   2.681   1.848   2.035  0.3220  1.2799 -0.3867
  577TIP3    H223147   2.630   1.812   2.173  1.8676  0.0430 -0.1256
  578TIP3   OH223148   1.792   1.258   1.983 -0.1329  0.5480  0.1256
  578TIP3    H123149   1.782   1.202   2.060  1.1902 -0.1086 -0.1555
  578TIP3    H223150   1.774   1.199   1.909 -0.8873  1.0465 -0.0934
  579TIP3   OH223151   3.278   5.690  12.688  0.5198  0.3361 -0.2778
  579TIP3    H123152   3.297   5.709  12.596 -0.5194 -0.2434 -0.6187
  579TIP3    H223153   3.222   5.613  12.686  0.7183  0.1410  0.8655
  580TIP3   OH223154   3.427   6.166   3.759  0.3994 -0.2082 -0.0366
  580TIP3    H123155   3.344   6.130   3.729  0.2783 -1.2040  1.4449
  580TIP3    H223156   3.408   6.259   3.773 -0.5157 -0.4587  0.4408
  581TIP3   OH223157   6.569   1.158  16.429 -0.0424  0.1899 -0.1408
  581TIP3    H123158   6.540   1.243  16.462 -1.7458 -0.8654  1.1636
  581TIP3    H223159   6.626   1.124  16.498  1.4749  0.6803 -1.1102
  582TIP3   OH223160   6.315   6.433   3.083  0.0889  0.2027 -0.6239
  582TIP3    H123161   6.392   6.450   3.138 -0.1517  1.2586 -0.6016
  582TIP3    H223162   6.342   6.361   3.026  1.0445  0.4657 -0.5214
  583TIP3   OH223163   3.237   3.934   5.663  0.3861 -0.0910  0.3441
  583TIP3    H123164   3.143   3.947   5.672  0.4629  0.9014 -0.2065
  583TIP3    H223165   3.256   3.955   5.571  0.9487 -1.5044  0.1162
  584TIP3   OH223166   5.938   5.873   4.152  0.1199 -0.3073  0.5000
  584TIP3    H123167   5.909   5.947   4.099 -0.9034  0.3163  1.9002
  584TIP3    H223168   5.979   5.813   4.089  1.0191  1.4577 -0.6409
  585TIP3   OH223169   6.228   3.381  10.889 -0.9427 -0.0936  0.3736
  585TIP3    H123170   6.303   3.337  10.850 -1.4963  1.4210 -2.5443
  585TIP3    H223171   6.258   3.471  10.905 -1.5092 -0.0287  1.1126
  586TIP3   OH223172   5.836   0.401  13.454 -0.0513  0.1619 -0.1756
  586TIP3    H123173   5.779   0.478  13.458  0.8580  0.8367 -0.0424
  586TIP3    H223174   5.828   0.361  13.540 -0.1296  0.3901 -0.0762
  587TIP3   OH223175   2.713   4.454   2.558 -0.2390  0.1397 -0.3553
  587TIP3    H123176   2.769   4.452   2.636 -1.4663 -0.4424  0.5248
  587TIP3    H223177   2.773   4.434   2.485  0.7653 -0.0761  0.5172
  588TIP3   OH223178   6.415   4.145   0.276 -0.0178 -0.7509 -0.7332
  588TIP3    H123179   6.328   4.183   0.272 -0.6201 -2.0850 -0.2220
  588TIP3    H223180   6.417   4.082   0.204  1.0440  0.3100 -1.6864
  589TIP3   OH223181   5.075   4.589  12.175 -0.6163 -0.4717  0.2826
  589TIP3    H123182   5.109   4.500  12.175 -0.1768 -0.3104  1.0604
  589TIP3    H223183   5.115   4.630  12.252 -1.6372  0.0836  0.5240
  590TIP3   OH223184   5.306   3.079   2.799  0.4937 -0.4433 -0.1806
  590TIP3    H123185   5.335   3.116   2.883  0.3730  1.6652 -1.0190
  590TIP3    H223186   5.226   3.031   2.819 -1.1997  2.5030  0.4955
  591TIP3   OH223187   4.464   4.822   3.489 -0.4650 -0.0789  0.0230
  591TIP3    H123188   4.510   4.768   3.424  0.6181 -1.0015  1.5174
  591TIP3    H223189   4.485   4.912   3.463 -1.9986 -0.3467 -2.2845
  592TIP3   OH223190   3.392   3.669  11.417  0.3117  0.1144  0.3402
  592TIP3    H123191   3.421   3.720  11.493  0.0551  0.1121  0.4430
  592TIP3    H223192   3.328   3.725  11.374  0.3159  0.0376  0.2348
  593TIP3   OH223193   4.337   2.187   1.815 -0.1162 -0.6893  0.0196
  593TIP3    H123194   4.268   2.197   1.750 -1.2240  0.3349  1.3307
  593TIP3    H223195   4.399   2.258   1.796 -0.4742 -0.3476  0.1197
  594TIP3   OH223196   2.074   4.528   0.878  0.8871 -0.0019  0.5806
  594TIP3    H123197   2.154   4.517   0.826 -0.2647 -0.0042 -1.2495
  594TIP3    H223198   2.017   4.583   0.822  0.5708  2.1170  2.9026
  595TIP3   OH223199   3.027   4.669   4.793  0.2395 -0.2701 -0.1445
  595TIP3    H123200   3.057   4.697   4.880 -1.9892  1.0476  0.2315
  595TIP3    H223201   3.068   4.731   4.733  0.1920  0.0450  0.1436
  596TIP3   OH223202   5.912   2.319  11.280 -0.4281 -0.5156  0.2064
  596TIP3    H123203   5.902   2.390  11.216 -0.4393 -0.2729  0.4754
  596TIP3    H223204   6.006   2.303  11.284 -0.4418 -0.6378  0.0105
  597TIP3   OH223205   2.490   0.247   0.274  0.1355  0.4206 -0.4520
  597TIP3    H123206   2.448   0.165   0.298  1.2176 -0.4511 -1.5158
  597TIP3    H223207   2.465   0.308   0.343  3.5296 -2.0760  3.1351
  598TIP3   OH223208   0.370   3.562   1.552 -0.7738 -0.8238 -0.2163
  598TIP3    H123209   0.460   3.539   1.532 -0.5434  1.3700 -1.8435
  598TIP3    H223210   0.318   3.488   1.518  0.3195 -1.6012 -0.2039
  599TIP3   OH223211   6.382   1.761  12.598  0.2048 -0.2918 -0.6510
  599TIP3    H123212   6.411   1.670  12.589 -0.7723 -0.5455 -1.2388
  599TIP3    H223213   6.374   1.793  12.509 -0.8160 -0.0668 -0.4858
  600TIP3   OH223214   5.699   3.347   1.383  0.4153 -0.3262  0.4916
  600TIP3    H123215   5.696   3.301   1.298  2.4477 -1.6425  1.1044
  600TIP3    H223216   5.733   3.434   1.362 -2.5972  0.6609 -0.5487
  601TIP3   OH223217   3.946   3.148   0.682  0.1319  0.3640  0.1083
  601TIP3    H123218   3.928   3.113   0.769 -0.1934  0.0098 -0.0982
  601TIP3    H223219   4.041   3.143   0.674  0.1776  0.5529  0.5062
  602TIP3   OH223220   5.895   1.193   1.824 -0.0234  0.4113  0.8553
  602TIP3    H123221   5.981   1.172   1.789 -0.2542  0.2617  0.3690
  602TIP3    H223222   5.888   1.288   1.817 -0.3145  0.3206 -0.0813
  603TIP3   OH223223   3.612   6.180   3.274  0.5265  0.4078 -0.0757
  603TIP3    H123224   3.644   6.129   3.349 -1.6981 -1.5435 -0.3975
  603TIP3    H223225   3.586   6.264   3.311 -0.8317 -0.6403  1.4380
  604TIP3   OH223226   1.657   6.377   4.557  0.0950  0.5935  0.5209
  604TIP3    H123227   1.752   6.380   4.558  0.1180  0.1589 -0.1638
  604TIP3    H223228   1.630   6.464   4.587  0.6991  0.4707  1.4243
  605TIP3   OH223229   4.064   1.453   4.800  0.1230 -0.1113 -0.0074
  605TIP3    H123230   4.142   1.477   4.750 -1.0898 -0.1699 -1.9992
  605TIP3    H223231   4.019   1.536   4.816 -1.2733 -0.4267 -2.1142
  606TIP3   OH223232   3.888   2.530   3.815  0.0680 -0.2082 -0.5463
  606TIP3    H123233   3.792   2.531   3.818  0.0798  1.5449  0.3984
  606TIP3    H223234   3.913   2.612   3.859  1.9865 -0.4841 -1.1046
  607TIP3   OH223235   2.287   3.754  14.993 -0.2160  0.2162  0.3842
  607TIP3    H123236   2.379   3.775  15.009  0.2534 -0.8292 -0.8230
  607TIP3    H223237   2.251   3.736  15.080  1.2352 -1.3193  0.6969
  608TIP3   OH223238   0.880   2.560   3.097 -0.4350  0.1924 -0.3741
  608TIP3    H123239   0.843   2.647   3.110  0.6039  0.4991  0.7036
  608TIP3    H223240   0.857   2.512   3.176  1.0233  0.2448  0.1030
  609TIP3   OH223241   6.198   0.754  12.958  0.2083  0.2125 -0.5261
  609TIP3    H123242   6.191   0.839  13.002  1.6158 -0.0960  0.3378
  609TIP3    H223243   6.274   0.763  12.901 -0.6805  0.0886 -1.7592
  610TIP3   OH223244   4.700   6.190   6.060  0.0601  0.1242  0.5985
  610TIP3    H123245   4.671   6.240   6.136  0.6452  0.2131  0.7729
  610TIP3    H223246   4.680   6.099   6.082 -2.5667  0.4312 -0.4432
  611TIP3   OH223247   3.703   5.895  14.167  0.0853  0.2534 -0.6541
  611TIP3    H123248   3.778   5.859  14.120  0.0834 -0.5446 -0.0510
  611TIP3    H223249   3.665   5.820  14.213 -0.5305  0.8321 -0.2080
  612TIP3   OH223250   6.162   4.564   4.254  0.5234  0.9123  0.0773
  612TIP3    H123251   6.123   4.650   4.270  0.1034  1.0196 -1.4477
  612TIP3    H223252   6.125   4.507   4.321 -2.5979  0.9175 -1.5805
  613TIP3   OH223253   3.050   5.882  14.491 -0.1863 -0.1927 -0.2780
  613TIP3    H123254   2.967   5.898  14.535  0.2398 -0.6243  0.6893
  613TIP3    H223255   3.107   5.954  14.519 -0.1747  0.0141 -0.8135
  614TIP3   OH223256   6.052   6.604   2.435  0.5735 -0.1890 -0.1210
  614TIP3    H123257   5.978   6.544   2.438 -0.5307  1.0909 -0.9638
  614TIP3    H223258   6.070   6.626   2.526  0.4930 -1.1946  0.1376
  615TIP3   OH223259   3.533   0.262   1.504  0.4376  0.2558  0.2317
  615TIP3    H123260   3.581   0.263   1.586  1.7878  0.1892 -0.5483
  615TIP3    H223261   3.600   0.258   1.436 -0.6861 -0.8005 -0.8553
  616TIP3   OH223262   2.384   5.318  10.515 -0.3841  0.5100 -0.0244
  616TIP3    H123263   2.477   5.339  10.520 -0.3408  0.7464 -1.7397
  616TIP3    H223264   2.373   5.244  10.575  1.2822 -0.8008 -1.2876
  617TIP3   OH223265   0.889   6.742  13.853 -0.1009  0.0984 -0.3910
  617TIP3    H123266   0.958   6.784  13.905  1.1181 -0.9486 -1.1468
  617TIP3    H223267   0.919   6.750  13.762 -1.3959  0.3980 -0.8021
  618TIP3   OH223268   5.388   0.722   2.415 -0.6373 -0.2909  0.0490
  618TIP3    H123269   5.410   0.796   2.359 -1.5981  0.2955  0.4402
  618TIP3    H223270   5.402   0.754   2.504 -1.7790 -0.3281  0.2477
  619TIP3   OH223271   6.327   4.296   1.177 -0.3795 -0.9302  0.3997
  619TIP3    H123272   6.266   4.292   1.103  0.1890 -0.4660 -0.0940
  619TIP3    H223273   6.362   4.385   1.173 -0.0096 -1.0542  0.9631
  620TIP3   OH223274   0.398   0.640  11.462  0.2357 -0.4108 -0.2137
  620TIP3    H123275   0.334   0.618  11.529 -1.1334  1.8871 -0.7003
  620TIP3    H223276   0.346   0.653  11.382  1.0136  3.0109 -0.2661
  621TIP3   OH223277   0.837   5.878   0.951 -0.3230  0.0565 -0.8276
  621TIP3    H123278   0.785   5.818   1.005  0.0672  0.3643 -0.1000
  621TIP3    H223279   0.840   5.836   0.865 -0.3653 -0.7898 -0.4278
  622TIP3   OH223280   4.880   0.244   4.064  0.0392  0.2967 -0.3813
  622TIP3    H123281   4.894   0.220   3.972  0.1173 -3.1693  0.4497
  622TIP3    H223282   4.789   0.273   4.067  0.2308  1.0621 -1.6652
  623TIP3   OH223283   0.491   1.713  15.942 -0.2110  0.0170 -0.1140
  623TIP3    H123284   0.533   1.799  15.933 -1.2276  0.5283  0.0082
  623TIP3    H223285   0.564   1.651  15.935  0.4959  0.8692 -0.4881
  624TIP3   OH223286   1.269   2.818   6.040  0.4907  0.3355  0.5749
  624TIP3    H123287   1.330   2.870   5.987 -1.0629  2.0582  0.4525
  624TIP3    H223288   1.213   2.774   5.976  0.3614  0.2641  0.7363
  625TIP3   OH223289   2.804   6.446   3.305  0.4828 -0.1189  0.4163
  625TIP3    H123290   2.899   6.440   3.314  0.7350  1.4037 -0.8314
  625TIP3    H223291   2.781   6.378   3.242  0.6619 -0.8828  1.1719
  626TIP3   OH223292   0.960   4.726   0.341 -0.1099 -0.0927  0.4351
  626TIP3    H123293   0.911   4.733   0.423 -1.0826 -1.6522  0.0064
  626TIP3    H223294   0.894   4.703   0.276  0.6903  0.9462 -0.7675
  627TIP3   OH223295   3.876   6.247   0.310  0.4509 -0.2894  0.0450
  627TIP3    H123296   3.923   6.329   0.325 -0.9789  0.2403  1.7674
  627TIP3    H223297   3.825   6.263   0.231  1.5272 -0.1477 -0.6344
  628TIP3   OH223298   0.320   6.239  16.308 -0.2996 -0.3972  0.1213
  628TIP3    H123299   0.307   6.186  16.386 -1.0032  0.8647  0.8783
  628TIP3    H223300   0.309   6.329  16.338  5.1355  0.5549 -0.1920
  629TIP3   OH223301   1.398   3.270  11.804  0.6151  0.2984 -0.6022
  629TIP3    H123302   1.442   3.187  11.824  0.0606  0.1732  0.1152
  629TIP3    H223303   1.335   3.248  11.736  2.5296  0.7306 -2.5865
  630TIP3   OH223304   5.727   1.699  13.478  0.3351 -0.0684 -0.2239
  630TIP3    H123305   5.633   1.686  13.489  0.7186 -2.2153  0.8307
  630TIP3    H223306   5.747   1.659  13.394  0.6396 -1.5669  0.5470
  631TIP3   OH223307   1.081   3.064  15.841 -0.0897  0.2142  0.0859
  631TIP3    H123308   1.162   3.054  15.791 -0.8476  2.3543 -1.6427
  631TIP3    H223309   1.034   2.982  15.826  0.8468 -0.2168 -0.5700
  632TIP3   OH223310   0.473   1.022  16.134  0.3566 -0.2162  0.2354
  632TIP3    H123311   0.566   1.041  16.141  0.3132 -0.0521  0.3753
  632TIP3    H223312   0.430   1.107  16.148  0.2122 -0.1542 -0.5501
  633TIP3   OH223313   5.970   1.348   4.021 -0.2580 -0.2077 -0.3503
  633TIP3    H123314   6.009   1.429   3.988 -1.5905  0.1555 -1.0774
  633TIP3    H223315   5.977   1.286   3.948  0.1882 -0.5556 -0.0123
  634TIP3   OH223316   5.686   1.985   2.930  0.8014  0.2041 -0.5918
  634TIP3    H123317   5.708   2.059   2.874  0.1384 -1.7627 -3.5594
  634TIP3    H223318   5.591   1.990   2.940  0.9188  0.5534  0.3919
  635TIP3   OH223319   6.555   1.375   5.629  0.4474  0.2922 -0.6348
  635TIP3    H123320   6.577   1.361   5.721  1.5313  0.5726 -0.8487
  635TIP3    H223321   6.630   1.422   5.592 -0.2123  0.6715 -1.5336
  636TIP3   OH223322   1.097   5.458  13.683  0.9634 -0.1249 -0.2135
  636TIP3    H123323   1.042   5.381  13.696  0.5943  0.2320  0.3282
  636TIP3    H223324   1.161   5.430  13.617 -0.0337 -0.4468 -1.0507
  637TIP3   OH223325   0.883   6.699   5.230  0.0943 -0.1923 -0.3274
  637TIP3    H123326   0.793   6.668   5.221  0.1365 -0.9195  1.5670
  637TIP3    H223327   0.935   6.641   5.174 -0.2214 -1.6980  0.9109
  638TIP3   OH223328   6.135   1.348  16.209  0.2912  0.4406  0.2476
  638TIP3    H123329   6.073   1.376  16.277 -1.8301  1.5603 -2.0366
  638TIP3    H223330   6.092   1.274  16.167  0.7870  0.8302 -0.9593
  639TIP3   OH223331   2.491   2.196   5.606 -0.1917 -0.5350 -0.4376
  639TIP3    H123332   2.444   2.137   5.664 -1.5075  0.9669  0.0736
  639TIP3    H223333   2.580   2.160   5.602 -0.6305 -1.8292  0.8346
  640TIP3   OH223334   4.126   3.537  13.816 -0.8392 -0.1249 -0.0307
  640TIP3    H123335   4.204   3.514  13.866  0.1487 -0.6245 -1.7964
  640TIP3    H223336   4.057   3.480  13.852 -0.5821  0.7960  1.9862
  641TIP3   OH223337   4.461   2.439  13.954  0.2094  0.4498  0.3132
  641TIP3    H123338   4.539   2.386  13.942  0.2757  1.0162 -1.8919
  641TIP3    H223339   4.389   2.381  13.929  0.0590  0.4998  0.6278
  642TIP3   OH223340   3.137   1.889  14.461 -0.1103  0.5000  0.3563
  642TIP3    H123341   3.106   1.974  14.491 -0.0901  0.2251  1.1627
  642TIP3    H223342   3.151   1.900  14.367  0.3009  1.5153  0.5318
  643TIP3   OH223343   3.566   4.593   4.141  0.4937  0.1997 -0.5020
  643TIP3    H123344   3.557   4.615   4.048 -2.6834 -0.2325 -0.3593
  643TIP3    H223345   3.481   4.614   4.179  1.3335 -0.8133  2.0738
  644TIP3   OH223346   0.930   4.505  13.267 -0.2413  0.6138 -0.1399
  644TIP3    H123347   0.953   4.477  13.178 -0.1143 -0.1799  0.1399
  644TIP3    H223348   0.859   4.446  13.293 -0.9217  1.4588 -0.0688
  645TIP3   OH223349   4.361   6.197   2.077 -0.3848  1.1947 -0.7254
  645TIP3    H123350   4.348   6.189   1.983  0.8996 -0.2157 -0.7962
  645TIP3    H223351   4.428   6.264   2.087  0.2469  0.5784 -0.8582
  646TIP3   OH223352   2.348   0.269   5.775  0.7251 -0.1633  0.2221
  646TIP3    H123353   2.280   0.311   5.828 -0.0278  0.6079 -1.3220
  646TIP3    H223354   2.419   0.333   5.772 -0.8152  1.5033 -2.9538
  647TIP3   OH223355   5.246   2.341   3.786  0.0413  0.1951  0.2762
  647TIP3    H123356   5.339   2.325   3.769 -0.2875 -1.7523  0.1798
  647TIP3    H223357   5.242   2.432   3.815  1.8028  0.7403 -1.0655
  648TIP3   OH223358   3.782   6.437  15.296 -0.1772 -0.5784  0.1001
  648TIP3    H123359   3.837   6.403  15.226  0.6236 -0.5705  0.7205
  648TIP3    H223360   3.837   6.432  15.375  0.1543  2.5862  0.1358
  649TIP3   OH223361   0.065   5.391   3.973  0.0007 -0.3312 -0.4389
  649TIP3    H123362   0.051   5.300   3.945 -1.0364 -0.0022 -1.0379
  649TIP3    H223363   0.032   5.394   4.063  1.1737 -0.8343  0.0182
  650TIP3   OH223364   1.369   5.043  16.986 -0.2033 -0.6416  0.1297
  650TIP3    H123365   1.374   5.087  17.071 -0.0241  1.7388 -1.0776
  650TIP3    H223366   1.291   5.080  16.944  0.8585 -0.2339 -1.5520
  651TIP3   OH223367   4.228   0.347  16.481  0.2466 -0.3831  0.2064
  651TIP3    H123368   4.213   0.276  16.544  1.2768 -1.1563 -0.4065
  651TIP3    H223369   4.151   0.346  16.425  0.0580 -0.7325  0.4708
  652TIP3   OH223370   2.023   0.249  13.814  0.4240  0.1063 -0.2888
  652TIP3    H123371   1.956   0.269  13.880 -0.3940 -0.6670 -0.8650
  652TIP3    H223372   2.052   0.160  13.836  1.6799  0.6582  0.3049
  653TIP3   OH223373   4.228   1.042   1.702 -0.7140  0.2091  0.7696
  653TIP3    H123374   4.258   1.045   1.611 -0.9107 -1.9760  0.6155
  653TIP3    H223375   4.212   1.134   1.725 -0.1339  0.8249 -1.2181
  654TIP3   OH223376   1.254   6.635   4.530 -0.3284  0.2667 -0.1133
  654TIP3    H123377   1.170   6.622   4.486  0.5005 -0.9858 -1.3683
  654TIP3    H223378   1.303   6.693   4.471  0.0345  0.2411  0.1606
  655TIP3   OH223379   6.600   1.262  13.533  0.3894 -0.3894 -0.5903
  655TIP3    H123380   6.670   1.208  13.571  1.6489  2.2879  0.9939
  655TIP3    H223381   6.645   1.320  13.472 -0.0569  2.9438  2.1333
  656TIP3   OH223382   4.635   2.626  13.121  0.5006 -0.6541  0.2198
  656TIP3    H123383   4.603   2.709  13.158  0.4707  0.1281 -1.4768
  656TIP3    H223384   4.730   2.633  13.126  0.4941 -1.8737  2.9054
  657TIP3   OH223385   1.868   6.702   4.784 -0.2508  0.1504 -0.1414
  657TIP3    H123386   1.877   6.620   4.833 -1.7206 -0.0530 -0.1897
  657TIP3    H223387   1.957   6.736   4.777  0.2820 -1.0996  0.4772
  658TIP3   OH223388   3.091   6.772   5.193  0.2102 -0.1545 -0.3707
  658TIP3    H123389   3.086   6.686   5.234 -1.0884  1.2562  2.5770
  658TIP3    H223390   3.151   6.822   5.248 -1.5860  1.7860 -0.0897
  659TIP3   OH223391   2.144   2.666   0.050  0.3263 -0.0133  0.0595
  659TIP3    H123392   2.128   2.689  -0.042  0.2959 -0.5337 -0.0650
  659TIP3    H223393   2.233   2.696   0.066  0.3529  0.0276 -0.1590
  660TIP3   OH223394   3.713   2.411   1.093  0.1038  0.4049 -0.2168
  660TIP3    H123395   3.759   2.350   1.151 -1.1793 -1.4121 -1.0750
  660TIP3    H223396   3.685   2.482   1.151  0.4863 -0.4527  1.0397
  661TIP3   OH223397   0.300   5.644  14.168 -0.4593 -0.2101 -0.1087
  661TIP3    H123398   0.223   5.684  14.128 -1.1473 -1.5632 -0.1559
  661TIP3    H223399   0.271   5.557  14.194  1.3340 -1.1290 -1.0744
  662TIP3   OH223400   2.051   3.413  15.667 -0.2457  0.0182 -0.4592
  662TIP3    H123401   1.969   3.364  15.668  0.0468 -0.4741  0.6483
  662TIP3    H223402   2.046   3.469  15.744  0.4948 -0.0878 -0.3303
  663TIP3   OH223403   0.864   1.650   5.135 -0.0825  0.0322 -0.5846
  663TIP3    H123404   0.812   1.726   5.161  0.7416  0.7226 -0.9270
  663TIP3    H223405   0.800   1.586   5.107 -0.7694  0.7971 -0.7972
  664TIP3   OH223406   6.662   1.752  13.357 -0.7233  0.1592 -0.7965
  664TIP3    H123407   6.588   1.713  13.309 -0.8245  0.8814 -1.2344
  664TIP3    H223408   6.685   1.830  13.306 -0.6832  0.8091  0.2000
  665TIP3   OH223409   3.385   1.680  13.454 -0.0592 -0.3870 -0.0974
  665TIP3    H123410   3.362   1.757  13.402 -0.8385 -0.1758  0.5516
  665TIP3    H223411   3.317   1.616  13.433  1.2523 -1.3268 -1.5452
  666TIP3   OH223412   6.400   3.680   4.339 -0.0908  0.2463 -0.2596
  666TIP3    H123413   6.428   3.635   4.419 -0.9344  1.7162  0.8978
  666TIP3    H223414   6.332   3.623   4.302 -0.5850  0.1605  0.7607
  667TIP3   OH223415   3.760   1.005  15.294  0.5992  0.1863 -0.0870
  667TIP3    H123416   3.703   0.961  15.231  0.3104  0.9050 -0.3316
  667TIP3    H223417   3.728   0.977  15.379 -0.7158  1.3026 -0.2014
  668TIP3   OH223418   2.358   3.582   4.739 -0.3198 -0.0351 -0.3762
  668TIP3    H123419   2.381   3.596   4.647  1.1109 -0.3700 -0.0824
  668TIP3    H223420   2.300   3.655   4.760 -0.9734 -0.1740 -1.6502
  669TIP3   OH223421   4.748   1.696   2.498 -0.0904  0.7140  0.5668
  669TIP3    H123422   4.721   1.755   2.427  0.9829 -0.6961 -1.0394
  669TIP3    H223423   4.667   1.676   2.544 -1.4025 -0.9658 -2.2904
  670TIP3   OH223424   4.373   1.653   5.175 -0.1224 -0.7530 -0.0357
  670TIP3    H123425   4.442   1.626   5.235 -0.1944 -0.3690  0.2161
  670TIP3    H223426   4.300   1.594   5.193 -1.3267  1.3962  2.5156
  671TIP3   OH223427   6.717   3.247  14.495 -0.2930 -0.0899  0.0614
  671TIP3    H123428   6.684   3.165  14.458 -0.9652  0.0107  0.4376
  671TIP3    H223429   6.785   3.220  14.556 -0.9072 -0.4010  0.6092
  672TIP3   OH223430   4.060   4.706  12.272 -0.5378 -0.1469 -0.5100
  672TIP3    H123431   4.141   4.683  12.317  1.4219  0.3525 -3.6386
  672TIP3    H223432   4.060   4.802  12.270  1.6891 -0.0944 -5.2614
  673TIP3   OH223433   3.605   0.178   2.389 -0.1304 -0.1460  0.0644
  673TIP3    H123434   3.681   0.232   2.413  0.2378 -0.8595  0.5311
  673TIP3    H223435   3.586   0.127   2.468 -0.1028 -1.1216 -0.5450
  674TIP3   OH223436   3.706   1.672   4.887  0.5734 -0.8295 -0.4410
  674TIP3    H123437   3.730   1.609   4.955  1.8103  0.4602  0.3594
  674TIP3    H223438   3.712   1.757   4.931  0.3090 -0.0585 -1.8738
  675TIP3   OH223439   3.604   5.090   6.530  0.3006  0.7552  0.0651
  675TIP3    H123440   3.540   5.146   6.486  0.7258  0.3822 -1.0323
  675TIP3    H223441   3.663   5.151   6.574  0.7373  1.1830 -1.0945
  676TIP3   OH223442   4.387   3.210   1.957 -0.2861  0.0808 -0.4874
  676TIP3    H123443   4.298   3.207   1.920  0.0387 -1.0001 -1.1905
  676TIP3    H223444   4.398   3.302   1.982 -1.6297  0.2141 -0.3274
  677TIP3   OH223445   3.490   3.985  16.963 -0.0462  0.0025  0.6276
  677TIP3    H123446   3.469   3.907  17.014 -3.0947  0.6521  0.4577
  677TIP3    H223447   3.496   3.954  16.873 -0.4244 -0.1694  0.6644
  678TIP3   OH223448   6.216   0.568  15.450 -0.1323 -0.8401 -0.6778
  678TIP3    H123449   6.180   0.480  15.460  0.1382 -0.8923 -0.1629
  678TIP3    H223450   6.185   0.615  15.528  0.4189 -0.7205 -0.5297
  679TIP3   OH223451   6.707   0.234  15.518 -0.4877 -1.2245  0.1900
  679TIP3    H123452   6.752   0.203  15.597  0.0487  1.3591  0.9142
  679TIP3    H223453   6.641   0.295  15.550  0.1191  0.3054 -1.3964
  680TIP3   OH223454   3.086   0.968  16.403  0.4956 -0.0585  0.1452
  680TIP3    H123455   3.164   0.979  16.458  0.8879  0.2389 -0.4664
  680TIP3    H223456   3.028   1.040  16.428  0.4892 -0.1794  0.4768
  681TIP3   OH223457   5.616   2.903  13.722 -0.0262  0.2561 -0.1573
  681TIP3    H123458   5.571   2.864  13.797 -0.0079 -0.2818 -0.4240
  681TIP3    H223459   5.550   2.903  13.652 -0.3503  1.6524  0.1343
  682TIP3   OH223460   4.303   0.021   1.919  0.0184  0.3510  0.7249
  682TIP3    H123461   4.240   0.031   1.848  2.7919  0.4258 -1.8446
  682TIP3    H223462   4.319   0.111   1.949 -0.0563  0.4639  0.4265
  683TIP3   OH223463   4.647   1.175  17.159 -0.0515 -0.1817  0.2046
  683TIP3    H123464   4.699   1.249  17.127 -1.9978  1.6650  1.2432
  683TIP3    H223465   4.683   1.157  17.246 -0.1001  0.0906  0.2854
  684TIP3   OH223466   3.262   1.838  13.261 -0.2029  0.0547 -0.2248
  684TIP3    H123467   3.305   1.910  13.307 -0.0404 -0.0849 -0.1616
  684TIP3    H223468   3.169   1.863  13.261 -0.1176  0.3830 -0.4158
  685TIP3   OH223469   0.538   1.726   0.917  0.3294 -0.0533  0.2630
  685TIP3    H123470   0.467   1.787   0.939  0.3428 -0.2891  0.9435
  685TIP3    H223471   0.559   1.747   0.825  0.7088  1.3521  0.6516
  686TIP3   OH223472   5.097   4.112  11.376  0.2787 -0.4638  0.5391
  686TIP3    H123473   5.185   4.137  11.403  0.5521  0.4538 -1.1442
  686TIP3    H223474   5.099   4.117  11.280 -1.4629 -0.9226  0.4635
  687TIP3   OH223475   0.302   1.915  12.100 -0.0918  0.1547  0.4029
  687TIP3    H123476   0.308   1.985  12.164  0.7364 -0.0219  0.5316
  687TIP3    H223477   0.283   1.959  12.017  0.0860  0.4982  0.5464
  688TIP3   OH223478   0.009   5.748  11.151 -0.2905  0.7743 -0.5299
  688TIP3    H123479   0.084   5.805  11.135 -0.1919  0.5098 -1.0218
  688TIP3    H223480  -0.022   5.773  11.238  0.3256  0.9323 -0.3534
  689TIP3   OH223481   0.541   1.724   3.116 -1.0113  0.0024  0.2956
  689TIP3    H123482   0.631   1.705   3.091 -0.4960  0.8232  1.4678
  689TIP3    H223483   0.487   1.681   3.050  0.2529 -0.1801 -0.6142
  690TIP3   OH223484   0.762   2.010   0.481  0.2665  0.5715  0.3476
  690TIP3    H123485   0.746   1.943   0.414 -0.7043 -0.6828  1.8075
  690TIP3    H223486   0.689   2.071   0.471 -1.8351 -1.4804  2.4959
  691TIP3   OH223487   0.680   6.259   3.178 -0.1051  0.3657 -0.5206
  691TIP3    H123488   0.612   6.239   3.114 -0.5354 -1.0951  0.3765
  691TIP3    H223489   0.752   6.295   3.126 -1.3312  1.3644 -1.5351
  692TIP3   OH223490   0.309   2.550   4.310  0.4449  0.3156  0.0094
  692TIP3    H123491   0.277   2.459   4.316  0.2233  0.5110  2.8091
  692TIP3    H223492   0.331   2.562   4.218  1.7164 -3.0139 -0.2041
  693TIP3   OH223493   1.406   0.285   2.750  0.2220 -0.1307 -0.4582
  693TIP3    H123494   1.489   0.260   2.708  0.8864  0.9180  0.2215
  693TIP3    H223495   1.364   0.344   2.687  0.9612  0.9977  0.0951
  694TIP3   OH223496   6.724   4.496  15.882 -0.1035 -0.4387  0.0851
  694TIP3    H123497   6.774   4.526  15.807 -1.1215 -1.0687 -0.8522
  694TIP3    H223498   6.644   4.549  15.881  0.0925 -0.1120  1.0044
  695TIP3   OH223499   2.561   2.268   2.962  0.4360 -0.1296 -0.6781
  695TIP3    H123500   2.477   2.284   2.919  0.9911  1.9998 -1.0108
  695TIP3    H223501   2.601   2.355   2.971  1.5209 -0.8140  1.6911
  696TIP3   OH223502   1.882   4.920   0.572  0.1095  0.2555 -0.3559
  696TIP3    H123503   1.898   4.957   0.485 -0.2898  0.8739 -0.1701
  696TIP3    H223504   1.812   4.974   0.609  2.1259  1.7706  1.4396
  697TIP3   OH223505   0.155   1.738  10.514 -0.7374  0.3260 -0.2561
  697TIP3    H123506   0.221   1.727  10.582 -0.0456  0.0119 -0.9690
  697TIP3    H223507   0.084   1.680  10.541 -0.2597 -0.1754 -0.0531
  698TIP3   OH223508   3.169   1.366  12.686 -0.1658  0.2720  0.3956
  698TIP3    H123509   3.198   1.445  12.640 -0.4384  0.2580  0.2002
  698TIP3    H223510   3.079   1.353  12.657 -0.3851  0.3458  1.0455
  699TIP3   OH223511   2.610   4.318   1.488 -0.1190  0.7600 -0.1166
  699TIP3    H123512   2.642   4.405   1.513  0.2128 -0.2885  3.4312
  699TIP3    H223513   2.689   4.271   1.460 -0.0196  1.0343 -0.3011
  700TIP3   OH223514   0.725   6.545  11.767  0.2821  0.2858 -0.5319
  700TIP3    H123515   0.639   6.568  11.731  0.1892  0.8399  0.0439
  700TIP3    H223516   0.758   6.477  11.708 -0.0370  0.9172 -1.4542
  701TIP3   OH223517   3.612   1.758  14.488  0.5561 -0.7524  0.3972
  701TIP3    H123518   3.518   1.745  14.484 -0.3528  4.0739  2.5947
  701TIP3    H223519   3.640   1.709  14.566 -0.5764  0.0052  1.2844
  702TIP3   OH223520   0.464   2.687   0.829  0.0347 -0.0766 -0.5721
  702TIP3    H123521   0.491   2.774   0.858  0.3310  0.5998 -2.7797
  702TIP3    H223522   0.535   2.658   0.771  0.3556 -2.1592  0.8334
  703TIP3   OH223523   6.516   5.146  13.669  0.4115  0.1609 -0.4005
  703TIP3    H123524   6.604   5.178  13.687  0.5308 -0.4078  0.0470
  703TIP3    H223525   6.474   5.217  13.620  0.9863  0.5949 -0.2707
  704TIP3   OH223526   4.269   2.645  15.647  0.3901  0.0710 -0.3416
  704TIP3    H123527   4.358   2.635  15.614  1.0077  0.9874  1.0339
  704TIP3    H223528   4.279   2.688  15.731 -1.3330 -0.2089  0.0224
  705TIP3   OH223529   1.521   2.751   3.412  0.3162 -0.3306  1.2919
  705TIP3    H123530   1.465   2.758   3.335 -0.8848 -2.9781  1.8488
  705TIP3    H223531   1.596   2.807   3.393 -0.9711  0.7105 -0.8781
  706TIP3   OH223532   5.601   5.228  16.204  0.1003  0.5873  0.1391
  706TIP3    H123533   5.696   5.230  16.196 -0.0519  0.4936 -1.7613
  706TIP3    H223534   5.581   5.139  16.230  0.5306  0.6189  0.5898
  707TIP3   OH223535   5.229   2.508   5.932  0.4085  0.3386  0.1745
  707TIP3    H123536   5.262   2.539   6.016  1.2824  0.7370 -0.3053
  707TIP3    H223537   5.166   2.439   5.954  0.0231  1.0014  1.1758
  708TIP3   OH223538   4.104   4.589  14.042 -0.5359  0.1709 -0.4811
  708TIP3    H123539   4.167   4.652  14.077 -1.2900  1.1373 -0.8615
  708TIP3    H223540   4.101   4.520  14.108 -0.9830  1.3473  0.7566
  709TIP3   OH223541   6.082   3.658  12.010 -0.2986 -0.1413  0.0024
  709TIP3    H123542   6.062   3.745  12.046 -0.1477  0.1567 -0.6247
  709TIP3    H223543   6.066   3.667  11.916  1.0567 -0.4015 -0.2646
  710TIP3   OH223544   1.811   5.949   5.554 -0.6066 -0.8408  0.4052
  710TIP3    H123545   1.746   5.890   5.591 -0.7642 -0.6297  0.4677
  710TIP3    H223546   1.831   6.010   5.626 -2.5294  0.9267 -0.5045
  711TIP3   OH223547   5.638   0.737  14.670 -0.2967  0.1437  0.3461
  711TIP3    H123548   5.713   0.692  14.633  0.5541  0.6363  1.4438
  711TIP3    H223549   5.641   0.826  14.633  0.9083  0.8289  2.0212
  712TIP3   OH223550   1.376   0.894   6.754  0.4857  0.2171  0.4890
  712TIP3    H123551   1.289   0.854   6.748  0.5019  0.2851 -0.2903
  712TIP3    H223552   1.394   0.898   6.847 -0.0398 -0.4705  0.6272
  713TIP3   OH223553   2.842   2.123   4.831  0.1262 -0.2952 -0.4752
  713TIP3    H123554   2.832   2.059   4.901  0.7201  0.2379  0.1058
  713TIP3    H223555   2.789   2.198   4.860 -1.0617 -0.7474 -1.4400
  714TIP3   OH223556   3.353   4.611  16.249 -0.0889  0.1732  0.2295
  714TIP3    H123557   3.435   4.648  16.216  0.5163 -1.2040  0.1411
  714TIP3    H223558   3.377   4.523  16.280 -1.5110 -0.1998  0.3146
  715TIP3   OH223559   5.438   5.847   2.728  0.1944 -0.0221 -0.4598
  715TIP3    H123560   5.387   5.854   2.808  0.1992  2.4467 -0.6276
  715TIP3    H223561   5.381   5.799   2.667 -1.4595  1.6029 -0.2392
  716TIP3   OH223562   5.254   2.302  13.726 -0.1620  0.0641 -0.0848
  716TIP3    H123563   5.327   2.342  13.677  0.5829  0.0215  0.9686
  716TIP3    H223564   5.176   2.333  13.681  0.5114 -0.0675 -1.3808
  717TIP3   OH223565   1.250   5.718  14.419  0.0963 -0.5267  0.3525
  717TIP3    H123566   1.179   5.653  14.423  1.3116 -1.8533  0.8383
  717TIP3    H223567   1.208   5.797  14.384 -1.8388 -0.9767  1.5884
  718TIP3   OH223568   0.475   3.882  15.455 -0.3232 -0.4869  0.3991
  718TIP3    H123569   0.540   3.868  15.524 -0.8818 -0.9423  0.8312
  718TIP3    H223570   0.452   3.794  15.425 -0.7196 -0.3243  0.2172
  719TIP3   OH223571   0.622   5.781   0.403  0.2641 -0.0911  0.1216
  719TIP3    H123572   0.556   5.795   0.335  2.1975  0.9042 -1.5792
  719TIP3    H223573   0.628   5.866   0.448 -0.5393 -0.5630  1.1590
  720TIP3   OH223574   2.752   1.303  16.375 -0.4056  0.0402 -0.3926
  720TIP3    H123575   2.793   1.239  16.433 -1.6507 -0.7966 -0.4316
  720TIP3    H223576   2.658   1.296  16.392 -0.7983 -0.1934 -2.4758
  721TIP3   OH223577   1.552   0.062   5.956  0.7016  0.2920  0.1289
  721TIP3    H123578   1.600  -0.006   6.002 -2.0621 -1.5491  0.4237
  721TIP3    H223579   1.549   0.033   5.865 -0.1506  0.1877  0.1822
  722TIP3   OH223580   5.589   5.617  15.107  0.4380 -0.0182  0.9390
  722TIP3    H123581   5.609   5.707  15.134 -0.5397  0.1951  0.9457
  722TIP3    H223582   5.515   5.591  15.162  0.8953 -0.9289  1.1340
  723TIP3   OH223583   3.984   2.579  16.579  0.0532 -0.5398  0.1269
  723TIP3    H123584   3.921   2.637  16.619  0.6257  0.2222 -0.0707
  723TIP3    H223585   3.942   2.549  16.498  0.3973  0.8914 -0.6017
  724TIP3   OH223586   0.927   4.848   6.661 -0.4904 -0.0128 -0.5239
  724TIP3    H123587   0.956   4.888   6.744 -1.0830  3.5313 -1.9304
  724TIP3    H223588   1.008   4.817   6.620  0.1648  0.8470  0.0911
  725TIP3   OH223589   0.388   6.091  16.071  0.3678 -0.3778  0.8131
  725TIP3    H123590   0.399   6.000  16.099 -1.2940 -0.5477  0.9932
  725TIP3    H223591   0.384   6.141  16.153  2.0602 -0.0396  0.6927
  726TIP3   OH223592   1.006   0.119  14.383 -0.5292 -1.0530  0.0055
  726TIP3    H123593   1.031   0.047  14.326 -0.3502  0.3689 -1.7645
  726TIP3    H223594   1.020   0.086  14.472 -0.9288 -3.3474 -0.7507
  727TIP3   OH223595   2.327   4.259   0.183 -0.0229  0.2676  0.4642
  727TIP3    H123596   2.343   4.324   0.115 -0.4014 -0.2267 -0.1054
  727TIP3    H223597   2.236   4.271   0.208  0.2959  0.8923  1.3693
  728TIP3   OH223598   3.957   1.522   1.811 -0.5588  0.1641  0.4659
  728TIP3    H123599   3.929   1.572   1.734  0.7635 -0.6215 -0.5472
  728TIP3    H223600   4.015   1.581   1.859 -0.2497  0.1421  0.1133
  729TIP3   OH223601   4.720   3.076   5.853  0.2685 -0.5538 -0.1547
  729TIP3    H123602   4.679   3.033   5.928  0.9346 -1.7566 -0.4803
  729TIP3    H223603   4.671   3.044   5.777  2.2532 -2.5769 -0.6173
  730TIP3   OH223604   0.774   4.356  12.316  0.3737 -0.8104 -0.2569
  730TIP3    H123605   0.762   4.263  12.335  0.5571 -0.9843 -0.9693
  730TIP3    H223606   0.699   4.399  12.357  0.3983 -1.2439  0.2557
  731TIP3   OH223607   5.284   4.661  12.357 -0.1384  0.2073  0.4921
  731TIP3    H123608   5.319   4.684  12.443 -0.6633  1.6578  0.3195
  731TIP3    H223609   5.350   4.690  12.295  0.1746 -0.7099  0.3858
  732TIP3   OH223610   3.132   6.491  17.047  0.2325  0.0419 -0.5561
  732TIP3    H123611   3.109   6.473  17.138 -0.0481  1.4977 -0.3136
  732TIP3    H223612   3.173   6.411  17.015 -0.6182 -0.8373  0.5414
  733TIP3   OH223613   1.010   4.588  11.725  0.0496  0.5198  0.4465
  733TIP3    H123614   0.986   4.505  11.685 -0.7589  0.5509  0.8494
  733TIP3    H223615   1.034   4.566  11.815  2.1263  0.4132 -0.1213
  734TIP3   OH223616   1.949   2.289   0.020 -0.2094 -0.8656 -0.6333
  734TIP3    H123617   2.020   2.340   0.058 -0.7555  0.2488 -1.0748
  734TIP3    H223618   1.971   2.285  -0.074 -1.8198  1.3791 -1.1614
  735TIP3   OH223619   3.999   5.754  13.566  0.5373 -0.5548  0.0656
  735TIP3    H123620   3.932   5.765  13.499 -0.7649  0.3839  1.4702
  735TIP3    H223621   4.072   5.809  13.537  0.8718 -1.9189 -1.6914
  736TIP3   OH223622   4.206   6.046   3.903  0.2545 -0.3006 -0.0185
  736TIP3    H123623   4.268   6.073   3.970  0.9371 -0.0323 -0.7445
  736TIP3    H223624   4.142   6.118   3.898 -0.2623 -0.6885  0.8985
  737TIP3   OH223625   1.966   2.759  16.086 -0.1400  0.1371 -0.2015
  737TIP3    H123626   1.988   2.676  16.127  0.8674  0.2341 -0.5364
  737TIP3    H223627   1.929   2.812  16.156 -0.7066 -0.5524  0.0312
  738TIP3   OH223628   2.536   4.302   1.197  0.0479  0.5781 -0.9124
  738TIP3    H123629   2.495   4.266   1.275  0.1231  0.1698 -1.0620
  738TIP3    H223630   2.630   4.292   1.213  0.0715  0.7711 -0.9254
  739TIP3   OH223631   3.668   0.817   3.796  0.6338 -0.3636  0.2176
  739TIP3    H123632   3.641   0.908   3.802  2.2041  0.1359 -0.0618
  739TIP3    H223633   3.628   0.774   3.871  2.4428  1.2303  2.1602
  740TIP3   OH223634   0.140   1.334   4.827 -0.3305 -0.2013  0.0165
  740TIP3    H123635   0.113   1.416   4.786 -0.9048 -0.4803 -0.1667
  740TIP3    H223636   0.059   1.284   4.836  0.1989 -1.2910 -1.1025
  741TIP3   OH223637   2.766   5.849  17.077  0.0156 -0.3083 -0.4133
  741TIP3    H123638   2.824   5.853  17.152  1.4203  0.3627 -1.5073
  741TIP3    H223639   2.685   5.890  17.107 -0.1660 -1.9163  1.3416
  742TIP3   OH223640   2.599   3.586   6.504 -0.5635  0.0977  0.2462
  742TIP3    H123641   2.588   3.681   6.506  0.7478  0.2586  0.8670
  742TIP3    H223642   2.520   3.552   6.546 -1.8835  0.8178 -1.6065
  743TIP3   OH223643   3.685   4.581   2.704 -0.2170  0.3597  0.2424
  743TIP3    H123644   3.608   4.531   2.730 -0.8058  1.5929  0.9093
  743TIP3    H223645   3.758   4.533   2.743 -1.0022  1.5864  3.4211
  744TIP3   OH223646   5.365   0.658   0.154 -0.3290  0.0372  0.4676
  744TIP3    H123647   5.328   0.667   0.242 -0.4627  0.2792  0.3853
  744TIP3    H223648   5.293   0.625   0.101 -0.0612 -0.7804  0.5954
  745TIP3   OH223649   2.713   1.286  13.194 -0.1987  0.0872 -0.3185
  745TIP3    H123650   2.794   1.318  13.153  0.4945  0.3451  1.2328
  745TIP3    H223651   2.657   1.262  13.120  0.7805  1.1744 -1.4382
  746TIP3   OH223652   2.709   2.537   3.044 -0.3788 -0.0315 -0.2386
  746TIP3    H123653   2.744   2.474   3.107 -1.3125 -1.1087 -0.7707
  746TIP3    H223654   2.650   2.593   3.095  0.8739  0.7602  0.3418
  747TIP3   OH223655   3.886   6.623   2.153  0.2410 -0.5679 -0.4432
  747TIP3    H123656   3.938   6.587   2.082  0.6216 -1.1293  0.1153
  747TIP3    H223657   3.864   6.547   2.207  0.0799 -0.1227  0.1181
  748TIP3   OH223658   6.515   0.656  16.350 -0.4032 -0.5662  0.8543
  748TIP3    H123659   6.424   0.643  16.374 -0.7759  0.6592  0.1431
  748TIP3    H223660   6.544   0.729  16.405 -0.4349  0.3539 -0.3214
  749TIP3   OH223661   6.457   6.654   5.932 -0.1810 -0.0558  0.1941
  749TIP3    H123662   6.451   6.603   6.013 -0.7087  1.7075  1.2731
  749TIP3    H223663   6.548   6.645   5.905  0.1245 -0.2490  1.2561
  750TIP3   OH223664   4.099   3.890   2.318 -0.3352  0.2087  0.2038
  750TIP3    H123665   4.013   3.931   2.312 -0.9598 -1.2750 -1.2710
  750TIP3    H223666   4.155   3.946   2.264 -0.2831  1.3245  1.3764
  751TIP3   OH223667   3.451   2.106   0.761 -0.1053 -0.1580 -0.6486
  751TIP3    H123668   3.506   2.123   0.837 -0.8522 -1.7540  0.2725
  751TIP3    H223669   3.512   2.088   0.690  0.6603  3.2581 -0.9759
  752TIP3   OH223670   4.724   1.548  12.115  0.4918  0.0944 -0.3446
  752TIP3    H123671   4.705   1.630  12.162  1.2694 -0.2116  0.5185
  752TIP3    H223672   4.672   1.554  12.035  2.7769  2.8378 -1.7774
  753TIP3   OH223673   4.048   4.728   1.639  0.1033  0.2270 -0.6031
  753TIP3    H123674   3.999   4.731   1.722  1.6513 -1.4411  0.4223
  753TIP3    H223675   4.140   4.736   1.666  0.6064 -0.0695 -2.2074
  754TIP3   OH223676   5.857   6.454  16.031 -0.1713  0.0608 -0.3575
  754TIP3    H123677   5.847   6.393  16.104  0.7600  0.8363  0.4342
  754TIP3    H223678   5.874   6.398  15.956 -0.4106 -0.7101  0.1529
  755TIP3   OH223679   1.031   6.281   4.552 -0.0126  0.1467 -0.1438
  755TIP3    H123680   1.090   6.249   4.620  0.3442 -0.6963 -0.8427
  755TIP3    H223681   0.949   6.234   4.568 -0.3367  0.9326  0.5101
  756TIP3   OH223682   4.913   3.485  10.796 -0.5480  0.2051  0.4496
  756TIP3    H123683   4.932   3.531  10.878 -0.5251  0.0657  0.5217
  756TIP3    H223684   4.871   3.551  10.741  0.3965  0.5973  0.1864
  757TIP3   OH223685   6.367   0.250  12.055 -0.1223  0.5292 -0.2853
  757TIP3    H123686   6.310   0.326  12.056  0.0326  0.6441 -0.1969
  757TIP3    H223687   6.331   0.193  11.986  0.5968  1.3080 -1.3075
  758TIP3   OH223688   4.025   6.626  12.461  1.0911 -0.6532  0.2451
  758TIP3    H123689   4.058   6.715  12.471 -2.6726  1.0335 -1.5420
  758TIP3    H223690   4.059   6.579  12.538  1.8149  2.7146  2.0667
  759TIP3   OH223691   3.956   1.927   2.015  0.0223  0.3502  0.3365
  759TIP3    H123692   3.900   1.958   1.943  0.6391  1.1292  0.1830
  759TIP3    H223693   3.894   1.895   2.081 -0.5622 -0.0856 -0.4084
  760TIP3   OH223694   5.494   5.767   6.359 -0.3507  0.4343 -0.5949
  760TIP3    H123695   5.481   5.708   6.433  0.8432 -0.4376 -1.0710
  760TIP3    H223696   5.468   5.853   6.392 -0.3648 -0.0450  0.6602
  761TIP3   OH223697   1.031   6.582   5.023  0.5821  0.7852 -0.3174
  761TIP3    H123698   1.098   6.649   5.036  1.4949 -0.4012  1.3218
  761TIP3    H223699   1.078   6.508   4.985  0.0954  0.1702  0.2615
  762TIP3   OH223700   5.128   3.707  12.212  0.1119 -0.2504  0.1898
  762TIP3    H123701   5.069   3.682  12.141  0.1437  0.4978 -0.1039
  762TIP3    H223702   5.165   3.791  12.184  0.4212 -0.1434  0.9137
  763TIP3   OH223703   5.294   1.818   2.811 -0.2994  0.4420  0.4560
  763TIP3    H123704   5.237   1.805   2.736 -1.2432 -0.3175  1.2768
  763TIP3    H223705   5.366   1.756   2.798  0.6241  1.7592 -0.8386
  764TIP3   OH223706   0.058   5.081  12.321  0.1823 -0.3107  0.4328
  764TIP3    H123707   0.015   5.097  12.405 -1.3460  0.5260 -0.4688
  764TIP3    H223708   0.062   5.167  12.280 -0.4535 -0.9235 -0.9574
  765TIP3   OH223709   1.919   5.747  17.042 -0.1169 -0.3096 -0.0032
  765TIP3    H123710   2.012   5.727  17.026 -0.0404 -2.6008  2.8501
  765TIP3    H223711   1.920   5.831  17.087  0.6106 -0.5162  0.3740
  766TIP3   OH223712   2.741   4.299   0.763  0.7667  0.9606 -0.2740
  766TIP3    H123713   2.773   4.312   0.673 -0.6041  1.6480 -0.6802
  766TIP3    H223714   2.704   4.211   0.763  0.7540  0.9661 -0.3770
  767TIP3   OH223715   5.259   1.495   3.282 -0.3687 -0.0463  0.5269
  767TIP3    H123716   5.293   1.554   3.349 -2.1401  0.2277  1.2047
  767TIP3    H223717   5.179   1.458   3.320  0.1919 -2.1541 -0.2760
  768TIP3   OH223718   3.427   5.457   2.420  0.6715  0.3956 -0.0411
  768TIP3    H123719   3.353   5.415   2.464 -0.3194  2.6775  0.5593
  768TIP3    H223720   3.418   5.432   2.329 -1.3690  1.3275 -0.1219
  769TIP3   OH223721   2.961   0.078   4.657  0.2169 -0.0941  0.2888
  769TIP3    H123722   2.885   0.130   4.630 -0.3220 -0.8341  0.3792
  769TIP3    H223723   2.948   0.061   4.750  0.2364 -0.6568  0.1908
  770TIP3   OH223724   1.803   5.386   3.860 -0.0575 -0.5248 -0.1880
  770TIP3    H123725   1.784   5.328   3.786  2.7937 -0.4957 -1.0107
  770TIP3    H223726   1.822   5.327   3.932  0.3921 -0.6032 -0.3673
  771TIP3   OH223727   0.277   2.277   3.523  0.5731  0.2511 -0.0139
  771TIP3    H123728   0.362   2.314   3.498  0.0173  1.8114  0.3274
  771TIP3    H223729   0.224   2.282   3.444  1.0132 -1.4054 -0.4282
  772TIP3   OH223730   5.543   3.739   6.067 -0.2118  0.1728  0.1851
  772TIP3    H123731   5.492   3.797   6.123 -0.4700 -0.5584  0.7157
  772TIP3    H223732   5.571   3.668   6.125  0.7629  0.1738 -0.2727
  773TIP3   OH223733   5.339   6.116  16.026 -0.0529 -0.1673  0.1213
  773TIP3    H123734   5.342   6.211  16.016 -1.3664 -0.3006 -1.6276
  773TIP3    H223735   5.307   6.103  16.116 -0.3170  1.0346  0.2129
  774TIP3   OH223736   0.899   2.255  11.796 -0.2650  0.3324  0.4136
  774TIP3    H123737   0.840   2.200  11.848 -0.9534  0.0940 -0.6087
  774TIP3    H223738   0.944   2.193  11.738 -1.6362  0.9004 -1.3110
  775TIP3   OH223739   6.505   5.757   0.251  0.2369 -0.3087 -0.3892
  775TIP3    H123740   6.430   5.704   0.224  0.6876  0.2210 -2.8279
  775TIP3    H223741   6.570   5.694   0.281  0.4216 -1.1221 -2.3828
  776TIP3   OH223742   6.720   1.223   4.180  0.2868  0.0674 -0.0488
  776TIP3    H123743   6.731   1.172   4.260  0.5809  1.2613  0.6687
  776TIP3    H223744   6.808   1.226   4.142  0.3325  0.3501  0.0851
  777TIP3   OH223745   3.812   3.093  13.102 -0.2234  0.5826  0.5227
  777TIP3    H123746   3.834   3.089  13.195  0.7843  0.1833  0.2698
  777TIP3    H223747   3.742   3.029  13.092 -1.4299  1.7529  1.2992
  778TIP3   OH223748   5.397   1.597  12.984 -0.1019 -0.0094 -0.3314
  778TIP3    H123749   5.439   1.611  13.069  1.4358 -0.0928 -1.0654
  778TIP3    H223750   5.307   1.572  13.005  0.0092  0.8828  1.2489
  779TIP3   OH223751   1.514   0.352   1.832 -0.1517  0.0727 -0.0689
  779TIP3    H123752   1.453   0.374   1.902 -1.2961  0.5435 -1.1883
  779TIP3    H223753   1.582   0.420   1.837 -0.1586  0.0289  0.6550
  780TIP3   OH223754   1.666   1.912   5.237 -0.1855 -0.1291  0.2903
  780TIP3    H123755   1.702   1.877   5.155 -1.2955  0.0661 -0.2907
  780TIP3    H223756   1.735   1.896   5.302  1.1827  0.7417 -0.9060
  781TIP3   OH223757   4.413   3.832   2.426  0.2006 -0.3979 -0.6447
  781TIP3    H123758   4.496   3.784   2.426 -0.7188 -2.1017  2.4298
  781TIP3    H223759   4.352   3.775   2.380 -0.4117 -1.3154  1.2806
  782TIP3   OH223760   4.984   3.053   2.510  0.3053 -0.5364 -0.1305
  782TIP3    H123761   4.991   2.965   2.474  0.9730 -0.9101  0.9003
  782TIP3    H223762   4.894   3.080   2.491  0.4595 -0.9559 -1.5248
  783TIP3   OH223763   3.903   3.794   3.956  0.3899  0.5630 -0.3326
  783TIP3    H123764   3.848   3.854   3.905 -0.6215  1.8175  2.1637
  783TIP3    H223765   3.969   3.851   3.996  0.1153 -0.1472  1.1441
  784TIP3   OH223766   4.566   2.086   0.289 -0.4408  0.4964 -0.1632
  784TIP3    H123767   4.617   2.016   0.331 -0.0969  1.4225  0.9990
  784TIP3    H223768   4.477   2.072   0.320  0.0239  1.9170  1.9316
  785TIP3   OH223769   2.178   3.756   4.430 -0.2478 -0.7516 -0.5340
  785TIP3    H123770   2.264   3.748   4.469  0.1878  1.2099 -1.0118
  785TIP3    H223771   2.122   3.790   4.500 -0.5359 -1.6292 -0.3379
  786TIP3   OH223772   2.296   6.051   3.692  0.0640  0.0062 -0.0889
  786TIP3    H123773   2.360   6.095   3.637  0.5156 -0.9245 -0.3155
  786TIP3    H223774   2.344   6.031   3.773 -0.8275  2.1412  1.0146
  787TIP3   OH223775   2.595   0.435  12.458  0.3405 -0.1213 -0.3959
  787TIP3    H123776   2.644   0.499  12.407  1.0964 -0.4751 -0.1175
  787TIP3    H223777   2.541   0.487  12.517 -0.0140  0.2791 -1.0711
  788TIP3   OH223778   4.319   1.941   5.150  0.2122  0.9672  0.8064
  788TIP3    H123779   4.334   1.847   5.145  2.4599  1.4100 -1.9456
  788TIP3    H223780   4.388   1.973   5.208  0.2429  1.0888  0.7023
  789TIP3   OH223781   2.464   3.633  15.775  0.2794  0.6451 -0.2277
  789TIP3    H123782   2.373   3.656  15.758  0.4442  0.1576 -1.8363
  789TIP3    H223783   2.474   3.544  15.740  1.3082  0.6071  0.1305
  790TIP3   OH223784   5.694   5.453   5.598  0.4374  0.4893  0.8906
  790TIP3    H123785   5.647   5.525   5.641 -0.1724  0.8797 -0.3823
  790TIP3    H223786   5.758   5.497   5.542 -1.6469  0.1778 -1.8475
  791TIP3   OH223787   4.566   6.443  14.531  0.2388 -0.1553  0.2898
  791TIP3    H123788   4.559   6.509  14.600  0.3440 -0.1057  0.2530
  791TIP3    H223789   4.551   6.492  14.450 -0.8743 -0.3903  0.3431
  792TIP3   OH223790   4.678   0.229   0.657  0.9336 -0.0415  0.6060
  792TIP3    H123791   4.605   0.269   0.611  1.6687  0.6524  0.0314
  792TIP3    H223792   4.639   0.192   0.736 -0.2927 -1.0646 -0.4639
  793TIP3   OH223793   2.641   0.624   2.974 -0.3822 -0.2589  0.3799
  793TIP3    H123794   2.555   0.664   2.969 -0.7515 -1.1544 -0.8983
  793TIP3    H223795   2.635   0.561   3.046 -0.9717 -0.7006 -0.0511
  794TIP3   OH223796   0.630   5.271   5.363 -0.0277 -0.2576 -0.3046
  794TIP3    H123797   0.701   5.206   5.363  2.2883  2.1557  0.4667
  794TIP3    H223798   0.579   5.250   5.441  1.6942 -0.1753  0.8847
  795TIP3   OH223799   5.061   1.581   3.845  0.0383 -0.0884 -0.3729
  795TIP3    H123800   5.093   1.671   3.845  0.1660 -0.1288 -0.9320
  795TIP3    H223801   5.136   1.528   3.871 -0.4634  0.1014  1.5012
  796TIP3   OH223802   1.449   1.042   1.533  0.5393 -0.9745  0.0482
  796TIP3    H123803   1.372   1.044   1.589  1.6037 -0.1453  1.4843
  796TIP3    H223804   1.418   1.073   1.448 -0.9986 -1.9276  0.2466
  797TIP3   OH223805   5.684   3.564  16.200  0.3848  0.3029 -0.2087
  797TIP3    H123806   5.772   3.552  16.237 -0.4375  0.3224  1.8004
  797TIP3    H223807   5.641   3.479  16.212 -0.6787  1.0050  1.0503
  798TIP3   OH223808   1.559   6.361  12.978 -0.6121 -0.3166 -0.2053
  798TIP3    H123809   1.506   6.415  12.919  0.8862 -0.0724 -1.3532
  798TIP3    H223810   1.523   6.379  13.065 -0.0450  2.7193 -0.5335
  799TIP3   OH223811   5.794   3.073  14.308 -0.2184  0.0811  0.3214
  799TIP3    H123812   5.789   3.000  14.246  1.4022 -0.3386  0.6372
  799TIP3    H223813   5.766   3.149  14.258  0.3293 -0.3788 -0.7150
  800TIP3   OH223814   6.254   0.952  13.405  0.2645 -0.3935  0.4861
  800TIP3    H123815   6.336   0.940  13.453  0.7979  1.0403 -0.0307
  800TIP3    H223816   6.198   1.002  13.465  0.2714 -0.1827  0.3187
  801TIP3   OH223817   5.031   0.097  15.160 -0.3117 -0.0899  0.3181
  801TIP3    H123818   5.102   0.157  15.182  0.0595  0.0431 -1.2097
  801TIP3    H223819   4.963   0.153  15.124  0.3781 -0.6493 -1.9391
  802TIP3   OH223820   5.744   1.794   1.164  0.2833  0.3711 -0.1272
  802TIP3    H123821   5.683   1.833   1.102 -1.4871  0.1472  1.4562
  802TIP3    H223822   5.807   1.746   1.109 -2.4882 -1.6326 -1.6610
  803TIP3   OH223823   4.423   5.397   5.290  0.3281 -0.5551 -0.3383
  803TIP3    H123824   4.447   5.411   5.199 -0.4830  1.0088 -0.3242
  803TIP3    H223825   4.500   5.426   5.339  0.3260 -0.2902 -0.4883
  804TIP3   OH223826   0.176   5.357   4.898  0.6589 -0.5080 -0.4407
  804TIP3    H123827   0.185   5.263   4.909 -1.8695 -0.6882  0.5779
  804TIP3    H223828   0.109   5.367   4.829  0.6145  0.5287 -0.2657
  805TIP3   OH223829   1.101   0.285  14.197  0.1583  0.5867 -0.5295
  805TIP3    H123830   1.067   0.230  14.267  0.3147  2.0473  0.7282
  805TIP3    H223831   1.064   0.372  14.215 -0.3520  0.8359 -2.6524
  806TIP3   OH223832   1.677   0.407  16.471  0.1017 -0.4099 -0.0619
  806TIP3    H123833   1.716   0.393  16.557  1.6754  0.4784 -0.6100
  806TIP3    H223834   1.590   0.442  16.490 -0.2364 -1.8696  1.1744
  807TIP3   OH223835   6.583   1.032   3.668  0.3074  0.2456 -0.2320
  807TIP3    H123836   6.581   1.010   3.761 -0.0001 -0.3633 -0.3789
  807TIP3    H223837   6.529   1.111   3.660  1.1273  0.8527  0.2487
  808TIP3   OH223838   1.536   3.199   4.269 -0.4015  0.2268  0.1006
  808TIP3    H123839   1.455   3.218   4.316 -1.2257 -0.1116 -1.1817
  808TIP3    H223840   1.569   3.119   4.309 -1.6538 -0.6465 -0.6159
  809TIP3   OH223841   1.491   0.842   0.122  0.1063  0.1326 -0.8612
  809TIP3    H123842   1.544   0.798   0.056  0.5549  1.3394 -1.3035
  809TIP3    H223843   1.402   0.813   0.104  0.5929 -2.0703  0.0133
  810TIP3   OH223844   2.311   6.712  16.611  0.3757  0.3017  0.4348
  810TIP3    H123845   2.323   6.671  16.697  0.6467 -1.4708 -0.4267
  810TIP3    H223846   2.217   6.720  16.601  0.2677 -1.4413  0.0045
  811TIP3   OH223847   3.023   3.394   6.408 -0.2182 -0.0876 -0.4558
  811TIP3    H123848   3.027   3.489   6.404 -0.3557 -0.1092 -1.2359
  811TIP3    H223849   3.113   3.367   6.426 -0.3467  0.2255  0.6521
  812TIP3   OH223850   5.962   5.272  14.837 -0.2589 -0.3388 -0.3374
  812TIP3    H123851   5.918   5.197  14.796 -0.6896 -0.9392  1.1954
  812TIP3    H223852   5.923   5.349  14.794 -0.2136 -0.9673 -1.5225
  813TIP3   OH223853   2.379   4.825  14.233 -0.1595 -0.1988  0.4065
  813TIP3    H123854   2.448   4.849  14.172 -0.6929 -0.9261 -0.5016
  813TIP3    H223855   2.412   4.852  14.319  1.1222 -0.2748 -0.0495
  814TIP3   OH223856   1.282   2.596  16.614  0.2427 -0.5272 -0.4521
  814TIP3    H123857   1.276   2.501  16.622  4.6247 -1.0192 -1.5698
  814TIP3    H223858   1.323   2.625  16.695 -0.1758  0.3100 -0.5282
  815TIP3   OH223859   4.739   0.163   1.972 -0.0100 -0.0496  0.6126
  815TIP3    H123860   4.689   0.082   1.962  1.2895 -0.9698  1.3406
  815TIP3    H223861   4.737   0.181   2.065 -0.4433  0.8620  0.4284
  816TIP3   OH223862   1.183   0.632  16.261 -0.4683 -0.4797 -0.3483
  816TIP3    H123863   1.174   0.599  16.172  1.9454 -1.6668 -0.2065
  816TIP3    H223864   1.147   0.720  16.258 -0.5297 -0.5599 -2.4636
  817TIP3   OH223865   0.165   0.787  13.462  0.0137  0.1842 -0.2417
  817TIP3    H123866   0.181   0.815  13.372  0.0175  1.6675  0.2224
  817TIP3    H223867   0.215   0.706  13.471  0.9845  0.6763 -1.2044
  818TIP3   OH223868   1.562   0.071   0.039 -0.1888  0.3457 -0.3568
  818TIP3    H123869   1.644   0.101  -0.000  0.3158  0.4780  0.7800
  818TIP3    H223870   1.578  -0.022   0.059  0.2022  0.7251  1.1658
  819TIP3   OH223871   3.640   4.424  12.788  0.5962  0.6842  0.4702
  819TIP3    H123872   3.718   4.442  12.841  1.1762  1.9494 -0.7834
  819TIP3    H223873   3.654   4.335  12.756  0.2719 -0.0731  2.3577
  820TIP3   OH223874   6.760   6.220   2.396  0.2639 -0.5274  0.5617
  820TIP3    H123875   6.675   6.180   2.412  1.0755 -2.5907 -0.1193
  820TIP3    H223876   6.820   6.146   2.387  2.1604  0.8846  1.1580
  821TIP3   OH223877   5.107   3.313  16.376  0.3936  0.7518 -0.1503
  821TIP3    H123878   5.103   3.384  16.440 -3.0808  0.5657 -0.0641
  821TIP3    H223879   5.054   3.243  16.414  0.5169 -0.3889 -1.9870
  822TIP3   OH223880   0.097   4.644   5.665 -0.1270  0.0003  0.0076
  822TIP3    H123881   0.010   4.678   5.689  0.6657  2.0046  0.1284
  822TIP3    H223882   0.147   4.645   5.747 -0.5408 -3.0436  0.3692
  823TIP3   OH223883   2.448   0.247  12.280  0.0927 -0.5822  0.5969
  823TIP3    H123884   2.422   0.330  12.319 -0.3774 -0.4806  0.0742
  823TIP3    H223885   2.495   0.201  12.350  0.8521  0.3538  0.7116
  824TIP3   OH223886   6.092   3.274  12.468 -0.1465  0.8393  0.2009
  824TIP3    H123887   6.173   3.317  12.498  1.1176 -0.9972 -0.4836
  824TIP3    H223888   6.086   3.195  12.522 -0.2815 -0.1846 -1.2927
  825TIP3   OH223889   4.189   2.561  16.195  0.1332 -0.0110 -0.1229
  825TIP3    H123890   4.101   2.548  16.160  0.0933  1.8558 -0.7540
  825TIP3    H223891   4.181   2.637  16.252  1.5509  0.8216 -1.0010
  826TIP3   OH223892   3.553   0.156  13.263 -0.5664  0.0568 -0.1884
  826TIP3    H123893   3.476   0.189  13.218 -0.2196  1.0969 -0.0180
  826TIP3    H223894   3.549   0.194  13.350  0.3580  0.4509 -0.3096
  827TIP3   OH223895   5.409   5.145   2.854  0.0709 -0.1413  0.1767
  827TIP3    H123896   5.328   5.098   2.830  2.4382 -2.4186 -3.9297
  827TIP3    H223897   5.409   5.222   2.797 -1.4225  2.3981  3.4975
  828TIP3   OH223898   0.201   4.188  12.689  0.1492  0.4367  0.5221
  828TIP3    H123899   0.202   4.274  12.645  0.3800 -0.5139 -1.3788
  828TIP3    H223900   0.108   4.167  12.697  0.1226  0.3215 -0.0916
  829TIP3   OH223901   3.914   5.972  16.803 -0.0565 -0.0794  0.1368
  829TIP3    H123902   3.939   6.046  16.748  0.8964 -0.6487 -0.2141
  829TIP3    H223903   3.944   5.996  16.891 -1.2902  0.6900  0.3591
  830TIP3   OH223904   4.699   5.093   5.116  0.0410  0.2976  0.4809
  830TIP3    H123905   4.764   5.045   5.168  0.1299 -0.9153 -0.7162
  830TIP3    H223906   4.616   5.049   5.136 -0.2751  1.2280  1.2595
  831TIP3   OH223907   4.332   2.664  10.949  0.1434 -0.1716  0.5716
  831TIP3    H123908   4.411   2.611  10.961  0.2198 -0.1150  0.3018
  831TIP3    H223909   4.321   2.670  10.854 -0.4617 -0.5983  0.6133
  832TIP3   OH223910   6.614   3.764   0.387  0.1795  0.4202 -0.2057
  832TIP3    H123911   6.609   3.767   0.482 -1.3591 -1.1561 -0.2223
  832TIP3    H223912   6.663   3.684   0.368  0.2552  0.5899 -0.7529
  833TIP3   OH223913   3.668   5.561  10.885 -0.0349 -0.0644 -0.1382
  833TIP3    H123914   3.727   5.634  10.863  0.9467 -0.7849  0.0618
  833TIP3    H223915   3.581   5.600  10.884  0.3453  0.8006 -1.4520
  834TIP3   OH223916   5.888   1.923  13.938 -0.3938  0.2829  0.0215
  834TIP3    H123917   5.953   1.855  13.920 -0.8594 -0.7906  2.2086
  834TIP3    H223918   5.806   1.887  13.905 -0.4784  0.1466  0.3718
  835TIP3   OH223919   0.627   1.275  13.228 -0.1558  0.5321  0.2145
  835TIP3    H123920   0.638   1.182  13.206 -0.1809  0.2944  1.2017
  835TIP3    H223921   0.703   1.317  13.188 -0.6609  0.2365 -1.0886
  836TIP3   OH223922   2.689   0.779   4.648 -0.0207 -0.0692  0.1372
  836TIP3    H123923   2.765   0.785   4.706 -0.0928  0.0277  0.2220
  836TIP3    H223924   2.726   0.773   4.560  0.0808  0.1872  0.1636
  837TIP3   OH223925   5.340   5.666   1.084 -0.2217  0.3483 -0.1576
  837TIP3    H123926   5.383   5.607   1.022 -0.4853 -1.0485  0.9556
  837TIP3    H223927   5.368   5.754   1.057  1.4911 -0.3787 -0.8608
  838TIP3   OH223928   4.822   4.551   0.932  0.0763  0.6124 -0.0446
  838TIP3    H123929   4.831   4.472   0.985 -0.7064 -1.0771 -2.3262
  838TIP3    H223930   4.887   4.540   0.862 -1.5971  0.8285 -1.6925
  839TIP3   OH223931   1.598   4.966  11.851 -0.2155 -0.4448 -0.5876
  839TIP3    H123932   1.507   4.996  11.848 -0.6932 -1.7902  0.1672
  839TIP3    H223933   1.592   4.873  11.871  1.4472  0.1291  2.8210
  840TIP3   OH223934   5.120   3.712   1.931 -0.2986 -0.1211  0.4118
  840TIP3    H123935   5.149   3.710   2.023  0.0599 -0.2686  0.2943
  840TIP3    H223936   5.157   3.633   1.892  0.2047  0.3514 -0.0622
  841TIP3   OH223937   0.158   2.760  10.720 -0.0133  0.3252 -0.0250
  841TIP3    H123938   0.138   2.732  10.631  1.6646 -0.9216 -0.0254
  841TIP3    H223939   0.249   2.735  10.734 -0.0422  1.1198  1.8116
  842TIP3   OH223940   4.788   3.992   5.775 -0.4326  0.3390  0.4202
  842TIP3    H123941   4.780   4.032   5.862  1.8791 -0.7105  1.1626
  842TIP3    H223942   4.814   3.901   5.792  0.5755  0.2622 -1.3808
  843TIP3   OH223943   6.150   2.073   3.833  0.2305  0.2998  0.2315
  843TIP3    H123944   6.081   2.011   3.855 -0.4332  0.6711 -0.7676
  843TIP3    H223945   6.205   2.076   3.912 -0.8771 -0.0131  1.0384
  844TIP3   OH223946   1.214   1.784  14.687  0.4167  0.3129 -0.1672
  844TIP3    H123947   1.187   1.774  14.778  2.3651 -0.3749  0.3638
  844TIP3    H223948   1.132   1.781  14.637 -0.6510  0.5281  1.5424
  845TIP3   OH223949   5.722   1.731  10.801  0.0430  0.2349  0.0048
  845TIP3    H123950   5.690   1.646  10.832 -0.8286  0.5972  0.1079
  845TIP3    H223951   5.734   1.782  10.881 -1.1820  0.8149 -0.1746
  846TIP3   OH223952   5.110   0.986  15.225 -0.4384 -0.0687  0.2007
  846TIP3    H123953   5.037   0.925  15.218  0.2687 -0.8295 -0.5031
  846TIP3    H223954   5.083   1.061  15.172 -1.2685  0.2114  0.9981
  847TIP3   OH223955   1.636   6.174   3.267  0.3896 -0.0158  0.0468
  847TIP3    H123956   1.648   6.084   3.236 -3.0805 -0.8257  0.8458
  847TIP3    H223957   1.638   6.167   3.363  0.1707  0.7698  0.1116
  848TIP3   OH223958   4.870   1.127   0.522 -0.2536  0.0982  0.5112
  848TIP3    H123959   4.913   1.043   0.532 -0.1866  0.1232  0.4253
  848TIP3    H223960   4.787   1.117   0.570 -1.1890 -0.6984 -1.2020
  849TIP3   OH223961   4.945   4.567  15.092  0.0271 -0.2083  0.3027
  849TIP3    H123962   4.899   4.627  15.033 -1.0697 -0.5679  0.7935
  849TIP3    H223963   4.876   4.512  15.130  0.9920 -1.7078 -0.0407
  850TIP3   OH223964   1.382   4.743  16.710  0.6928  0.1488 -0.0300
  850TIP3    H123965   1.300   4.790  16.704 -0.5395 -1.9691 -0.2879
  850TIP3    H223966   1.419   4.749  16.622  0.9997  1.4052  0.1787
  851TIP3   OH223967   0.540   4.532   1.423  0.0761  0.5036 -0.5935
  851TIP3    H123968   0.463   4.478   1.440  0.2736  0.6584  0.9074
  851TIP3    H223969   0.615   4.477   1.448  0.3198  1.1677  0.1544
  852TIP3   OH223970   1.555   1.538  11.065 -0.0748  0.3252 -0.2814
  852TIP3    H123971   1.595   1.625  11.056 -0.2196  0.2269 -2.0721
  852TIP3    H223972   1.478   1.541  11.009  0.5790 -1.3360 -1.3023
  853TIP3   OH223973   3.423   0.198  15.356 -0.8460  0.3997  0.1564
  853TIP3    H123974   3.425   0.167  15.446  2.2673  0.3505  0.1138
  853TIP3    H223975   3.432   0.293  15.362  1.0688  0.2442 -0.1579
  854TIP3   OH223976   5.709   6.740   0.703  0.5012 -0.1772 -0.1172
  854TIP3    H123977   5.651   6.684   0.651  1.6199  0.6699 -2.2910
  854TIP3    H223978   5.650   6.796   0.753 -0.5818 -0.6916 -0.8056
  855TIP3   OH223979   4.071   0.911   0.914 -0.3291 -0.2036 -0.0393
  855TIP3    H123980   4.115   0.905   1.000  1.5425  0.2349 -0.9370
  855TIP3    H223981   3.983   0.941   0.934 -0.4574 -1.7304  1.8963
  856TIP3   OH223982   3.239   6.253   1.251  0.3732 -0.1559  0.2275
  856TIP3    H123983   3.171   6.299   1.200 -0.3846 -0.5260  0.9046
  856TIP3    H223984   3.245   6.167   1.210 -0.0694 -0.3703  0.6047
  857TIP3   OH223985   4.497   1.614   4.094 -0.8732  0.7192 -0.1439
  857TIP3    H123986   4.485   1.657   4.010 -3.0749  1.0173  0.2663
  857TIP3    H223987   4.516   1.523   4.072 -1.0273  0.8856 -0.9853
  858TIP3   OH223988   1.302   6.669  10.937  0.2411 -0.2071  0.6168
  858TIP3    H123989   1.278   6.614  10.864  1.2805 -0.8995  0.7846
  858TIP3    H223990   1.221   6.680  10.988  0.3637 -2.8557  1.4272
  859TIP3   OH223991   4.450   3.356  15.282 -0.3813  0.0141  0.1123
  859TIP3    H123992   4.501   3.354  15.363  0.6579  1.1178 -0.4927
  859TIP3    H223993   4.450   3.448  15.257 -2.5599 -0.0071  0.0079
  860TIP3   OH223994   2.754   2.813  12.878  0.2284  0.7968 -0.1248
  860TIP3    H123995   2.733   2.801  12.786  2.1160 -0.1944 -0.4548
  860TIP3    H223996   2.719   2.899  12.900 -0.0224  1.1359 -1.8275
  861TIP3   OH223997   0.489   0.604   5.685 -0.1188 -0.2480 -0.0949
  861TIP3    H123998   0.453   0.690   5.663 -0.5428 -0.3645  0.1494
  861TIP3    H223999   0.421   0.542   5.661  0.7606 -0.6450 -1.6649
  862TIP3   OH224000   4.188   5.644   3.208 -0.3205 -0.1599  0.1392
  862TIP3    H124001   4.102   5.606   3.228 -0.8797  0.5609 -0.8146
  862TIP3    H224002   4.230   5.579   3.151  1.4124 -2.3682  3.7700
  863TIP3   OH224003   1.849   0.422  15.684  0.4737  0.1769 -0.2160
  863TIP3    H124004   1.929   0.374  15.660 -0.8079 -1.2925 -1.7007
  863TIP3    H224005   1.870   0.462  15.768  1.9109 -2.2891  0.6651
  864TIP3   OH224006   1.435   5.291  11.095  0.1425  0.3768  0.5450
  864TIP3    H124007   1.384   5.226  11.046  0.4310  0.9060 -0.4559
  864TIP3    H224008   1.523   5.253  11.100  0.0631  0.2295  0.8353
  865TIP3   OH224009   3.830   0.917  12.805 -0.2232 -0.3705 -0.0957
  865TIP3    H124010   3.874   0.833  12.789 -1.1304 -0.8387 -0.1897
  865TIP3    H224011   3.888   0.982  12.768  0.4343 -0.9731 -0.1375
  866TIP3   OH224012   5.461   3.515   1.124 -0.2932  0.3178  0.1356
  866TIP3    H124013   5.385   3.463   1.151  0.8199 -0.3276  2.1670
  866TIP3    H224014   5.491   3.555   1.205  1.9320  0.0304 -0.5278
  867TIP3   OH224015   4.043   6.477   0.226  0.2464 -0.1361  0.3442
  867TIP3    H124016   4.089   6.481   0.310  0.1414  0.2803  0.3821
  867TIP3    H224017   4.113   6.482   0.161  0.2148  1.2603  0.3948
  868TIP3   OH224018   6.680   3.415   1.739 -0.0641  0.0938  0.2327
  868TIP3    H124019   6.756   3.466   1.765 -0.0014  0.8624 -1.4341
  868TIP3    H224020   6.634   3.398   1.821  1.9191 -0.4444  1.2772
  869TIP3   OH224021   2.700   2.368   4.886 -0.1954 -0.7444 -0.8207
  869TIP3    H124022   2.645   2.396   4.959 -0.1593 -1.0245 -0.6872
  869TIP3    H224023   2.768   2.436   4.881 -0.0685 -0.8378 -0.4498
  870TIP3   OH224024   2.588   2.764   1.542 -0.2144 -0.5732 -0.2072
  870TIP3    H124025   2.564   2.777   1.634  0.6834 -0.8203  0.0602
  870TIP3    H224026   2.683   2.758   1.542 -0.2068 -0.5393 -1.1629
  871TIP3   OH224027   5.234   4.702  11.613  0.3903  0.3609  0.1117
  871TIP3    H124028   5.143   4.687  11.639  0.3583  0.0258 -0.1893
  871TIP3    H224029   5.278   4.732  11.693 -0.3515  2.1184 -0.1179
  872TIP3   OH224030   0.807   3.056  11.683  0.3588  0.4989  0.1888
  872TIP3    H124031   0.870   2.990  11.654  1.2282  0.1776  2.6846
  872TIP3    H224032   0.860   3.122  11.728 -1.1556 -0.3856  3.4158
  873TIP3   OH224033   1.774   2.952  15.535  0.3328 -0.1314  0.1539
  873TIP3    H124034   1.769   2.889  15.462 -0.4116 -2.1253  1.8799
  873TIP3    H224035   1.685   2.988  15.541 -0.0697 -1.2956  1.2184
  874TIP3   OH224036   3.673   1.955   3.185  0.1780  0.3691 -0.3022
  874TIP3    H124037   3.720   1.989   3.109 -1.8733  1.4539 -1.1415
  874TIP3    H224038   3.608   2.022   3.204  0.9209  0.2786  2.6955
  875TIP3   OH224039   0.966   5.577  14.711  0.5326  0.5472 -0.6820
  875TIP3    H124040   0.964   5.630  14.632 -0.5592  1.4091 -0.0973
  875TIP3    H224041   0.889   5.521  14.704  2.0784 -1.5092 -1.6434
  876TIP3   OH224042   6.474   2.452   0.310  0.2098 -0.3270  0.2480
  876TIP3    H124043   6.468   2.535   0.263  2.0402 -0.5524 -0.4298
  876TIP3    H224044   6.566   2.426   0.302 -0.3889 -2.5710  0.1712
  877TIP3   OH224045   2.168   2.112   5.492 -0.0473  0.3609  0.2889
  877TIP3    H124046   2.139   2.040   5.548  0.4468  0.4330  0.6502
  877TIP3    H224047   2.106   2.113   5.420  0.8871 -1.4818 -0.5758
  878TIP3   OH224048   4.071   4.810   5.873 -0.0075  0.1583  0.3425
  878TIP3    H124049   4.141   4.864   5.837 -0.3392  1.0385  0.9923
  878TIP3    H224050   4.096   4.795   5.964 -0.4200  0.0781  0.4476
  879TIP3   OH224051   0.474   0.180   4.097  0.2214 -0.3793 -0.5031
  879TIP3    H124052   0.493   0.181   4.191  0.9323 -1.6643 -0.6315
  879TIP3    H224053   0.424   0.099   4.084 -1.2795  0.5862 -0.9756
  880TIP3   OH224054   0.430   1.997   5.194  0.1608 -0.3203 -0.5186
  880TIP3    H124055   0.384   2.081   5.199  1.2522  0.2455  0.0306
  880TIP3    H224056   0.499   2.010   5.130  1.5188 -0.2117  0.9297
  881TIP3   OH224057   1.730   1.240   5.814  0.1400 -0.0334  0.3078
  881TIP3    H124058   1.656   1.200   5.860 -1.0696  0.4220 -1.2045
  881TIP3    H224059   1.806   1.188   5.841 -1.3005 -3.0387 -1.1973
  882TIP3   OH224060   5.069   1.524   1.244 -0.2141  0.4832  0.3840
  882TIP3    H124061   5.013   1.568   1.308 -0.6536  3.1230 -1.7168
  882TIP3    H224062   5.153   1.570   1.251  0.6329 -1.1364  1.0632
  883TIP3   OH224063   3.584   5.560   3.207  0.4919 -0.0941 -0.3212
  883TIP3    H124064   3.592   5.465   3.208  0.0022 -0.1322 -0.0185
  883TIP3    H224065   3.597   5.584   3.115 -0.4030 -0.5418 -0.5687
  884TIP3   OH224066   4.053   0.161  11.401 -0.2002 -0.6614  0.3554
  884TIP3    H124067   4.136   0.207  11.391  0.0915 -1.0575  0.8795
  884TIP3    H224068   3.986   0.228  11.385  0.2125 -0.5863 -1.1379
  885TIP3   OH224069   1.913   4.102   0.550  0.0661 -0.0391  0.2753
  885TIP3    H124070   1.896   4.111   0.456  2.9376 -0.5622 -0.3508
  885TIP3    H224071   1.921   4.191   0.582  0.1877  0.1186 -0.1981
  886TIP3   OH224072   3.170   2.106  16.605  0.2539 -0.0026  0.0435
  886TIP3    H124073   3.174   2.123  16.699  1.1246  0.4347 -0.0703
  886TIP3    H224074   3.236   2.164  16.567 -0.9618  0.7328 -0.9649
  887TIP3   OH224075   1.696   4.193  13.902  0.1881  0.0960 -0.0198
  887TIP3    H124076   1.754   4.163  13.972  1.2259  1.9268 -0.0553
  887TIP3    H224077   1.740   4.167  13.821 -0.0657 -0.3375 -0.0190
  888TIP3   OH224078   6.786   4.027   1.179  0.1938 -0.0956  0.4704
  888TIP3    H124079   6.702   4.068   1.198 -0.6088 -2.5433  2.4030
  888TIP3    H224080   6.770   3.933   1.185  2.5511 -0.6792 -1.4199
  889TIP3   OH224081   6.511   0.465   4.439 -0.5662 -0.9137  0.4594
  889TIP3    H124082   6.418   0.446   4.426 -1.6829  3.1999  1.7189
  889TIP3    H224083   6.525   0.458   4.533 -0.2858  1.1542  0.5927
  890TIP3   OH224084   6.601   5.497   0.686 -0.3668 -0.4246 -0.0754
  890TIP3    H124085   6.569   5.569   0.631  0.2449  0.5785  0.8789
  890TIP3    H224086   6.611   5.424   0.625 -2.9938 -0.3360 -0.6818
  891TIP3   OH224087   6.444   1.121   0.591 -0.1771  0.0426 -0.6049
  891TIP3    H124088   6.534   1.110   0.621  0.0137  0.2869 -1.0812
  891TIP3    H224089   6.452   1.158   0.503 -0.7190 -1.5632 -1.3521
  892TIP3   OH224090   0.061   3.170  13.398 -0.6689  0.4892 -0.1248
  892TIP3    H124091   0.074   3.082  13.364 -1.8380 -0.3487  1.5227
  892TIP3    H224092   0.006   3.213  13.332 -0.5607 -0.1880 -0.6655
  893TIP3   OH224093   3.330   4.064  10.762 -0.1100  0.0682 -0.0202
  893TIP3    H124094   3.244   4.023  10.748 -1.1876  2.3024 -0.2003
  893TIP3    H224095   3.390   4.011  10.711 -1.6435 -0.6117 -1.1718
  894TIP3   OH224096   3.519   1.069  10.578 -0.1754  0.6320 -0.5039
  894TIP3    H124097   3.550   0.979  10.570  2.9014  1.8115 -2.7793
  894TIP3    H224098   3.527   1.089  10.671  0.1035 -1.0836 -0.1377
  895TIP3   OH224099   2.405   6.104  14.503  0.0402  0.1697  0.2514
  895TIP3    H124100   2.425   6.057  14.584 -0.1522 -0.2941  0.0277
  895TIP3    H224101   2.491   6.121  14.464  0.2019  1.3693  1.0969
  896TIP3   OH224102   2.646   1.802   2.935  0.6273 -0.1880  0.2109
  896TIP3    H124103   2.690   1.763   2.860  1.0078  0.0204  0.3255
  896TIP3    H224104   2.568   1.844   2.898  1.1464  0.4535 -0.1555
  897TIP3   OH224105   3.332   4.133   1.201  0.3584 -0.3534  0.3292
  897TIP3    H124106   3.337   4.102   1.291 -0.2203 -2.0652 -0.2190
  897TIP3    H224107   3.267   4.203   1.203 -2.2191 -2.6644  0.6357
  898TIP3   OH224108   5.899   5.883  12.273 -0.0161 -0.4956  0.0443
  898TIP3    H124109   5.872   5.958  12.327 -1.1558  0.4158 -1.7114
  898TIP3    H224110   5.913   5.812  12.335 -1.7852  0.3842  1.5087
  899TIP3   OH224111   6.110   4.710  14.883 -0.8585  0.0931 -0.5798
  899TIP3    H124112   6.153   4.691  14.967 -0.9083 -0.3839 -0.6577
  899TIP3    H224113   6.060   4.631  14.864 -2.7131  1.0749  0.0810
  900TIP3   OH224114   3.094   2.159  17.233  0.1395  0.3089 -0.6828
  900TIP3    H124115   3.061   2.103  17.304  0.5864 -0.1475 -0.8264
  900TIP3    H224116   3.102   2.099  17.159  1.2608  0.4263 -0.6531
  901TIP3   OH224117   6.425   2.616   4.855  0.0354  0.2676  0.0658
  901TIP3    H124118   6.518   2.604   4.835  0.4541 -0.3090  2.2234
  901TIP3    H224119   6.394   2.529   4.878 -0.9475  0.5307 -0.2453
  902TIP3   OH224120   6.133   2.437  16.643  0.0313  0.4285 -0.0932
  902TIP3    H124121   6.175   2.481  16.717 -0.9011  1.0173  0.0866
  902TIP3    H224122   6.047   2.477  16.636 -1.3353 -2.2011  0.8273
  903TIP3   OH224123   5.285   2.492   3.423  0.3037  0.4085  0.2938
  903TIP3    H124124   5.326   2.576   3.401  1.9136 -0.3368  0.3817
  903TIP3    H224125   5.306   2.479   3.515 -0.1197 -0.0023  0.3303
  904TIP3   OH224126   5.420   0.659  14.156  0.6595  0.3009 -0.0546
  904TIP3    H124127   5.427   0.736  14.213 -1.4259  0.7295 -0.3422
  904TIP3    H224128   5.375   0.691  14.077 -0.7045 -1.3025  0.0426
  905TIP3   OH224129   2.570   5.997   1.307  0.3212  0.2156  0.3231
  905TIP3    H124130   2.642   6.052   1.274 -1.2898  1.9127 -0.4337
  905TIP3    H224131   2.502   6.058   1.333 -0.1240 -1.2934  2.9188
  906TIP3   OH224132   3.371   4.685  12.979 -0.3547  0.4915 -0.2772
  906TIP3    H124133   3.408   4.633  13.050 -0.4459 -0.1129 -0.6719
  906TIP3    H224134   3.422   4.766  12.979 -0.1220  0.3448  0.2482
  907TIP3   OH224135   0.903   4.682   3.851 -0.4386  0.4940  0.0520
  907TIP3    H124136   0.813   4.675   3.821 -0.3293  0.2399 -0.2251
  907TIP3    H224137   0.901   4.652   3.942 -0.6308  0.4775  0.0426
  908TIP3   OH224138   5.586   1.612  14.184  0.0376  0.4114  0.0513
  908TIP3    H124139   5.571   1.706  14.170  2.7366  0.6384 -1.6068
  908TIP3    H224140   5.663   1.608  14.240  0.2372 -0.8555 -0.3040
  909TIP3   OH224141   4.600   0.311  17.181 -0.1424 -0.0072 -0.0899
  909TIP3    H124142   4.650   0.384  17.145 -0.0072  0.0882  0.2925
  909TIP3    H224143   4.508   0.335  17.167 -0.0726 -0.8697 -2.1760
  910TIP3   OH224144   4.499   0.952  16.619 -0.0462  0.4832  0.2253
  910TIP3    H124145   4.547   1.026  16.655  1.1303 -0.8921  1.5272
  910TIP3    H224146   4.561   0.909  16.560 -0.7074  0.5232 -0.4984
  911TIP3   OH224147   5.255   3.305   3.598 -0.3828  0.2300  0.2202
  911TIP3    H124148   5.213   3.366   3.659  1.9175  0.2481  1.8501
  911TIP3    H224149   5.314   3.360   3.547 -0.9755 -0.0762 -0.7970
  912TIP3   OH224150   0.163   3.276  10.842 -0.2202  0.3339 -0.3396
  912TIP3    H124151   0.076   3.309  10.819  0.4789  1.1208 -1.8662
  912TIP3    H224152   0.159   3.183  10.820 -0.4680  0.5036 -1.0330
  913TIP3   OH224153   0.867   3.945   4.287 -0.0324  0.2491  0.2012
  913TIP3    H124154   0.891   3.863   4.330  0.9769 -0.5997 -1.9152
  913TIP3    H224155   0.942   4.002   4.302  0.8388 -0.4498 -1.4349
  914TIP3   OH224156   1.223   4.952  13.550 -0.3685 -0.2755 -0.2054
  914TIP3    H124157   1.200   4.861  13.535  1.1077 -0.5649 -0.7389
  914TIP3    H224158   1.253   4.984  13.465 -1.5388  0.9119 -0.1888
  915TIP3   OH224159   4.883   0.631   3.213 -0.3738 -0.5151 -0.1795
  915TIP3    H124160   4.970   0.600   3.238 -0.3418 -0.0370  0.3208
  915TIP3    H224161   4.839   0.648   3.297 -1.0663 -1.0744 -0.4209
  916TIP3   OH224162   4.928   4.167  13.962  0.2731 -0.4723  0.2054
  916TIP3    H124163   4.946   4.088  14.014 -0.9143 -0.6209  0.4200
  916TIP3    H224164   4.847   4.201  14.000  1.6409  1.7655  1.1811
  917TIP3   OH224165   3.887   4.968   5.727  0.1834  0.4033 -0.0916
  917TIP3    H124166   3.944   4.936   5.796 -0.8031 -0.1335  0.4898
  917TIP3    H224167   3.925   4.934   5.646  0.5854 -0.1001  0.3068
  918TIP3   OH224168   5.139   3.381   0.795 -0.1190 -0.0934  0.4341
  918TIP3    H124169   5.052   3.382   0.756  0.7990  0.9760 -1.6480
  918TIP3    H224170   5.182   3.459   0.760  1.0848  0.3457  2.8274
  919TIP3   OH224171   6.716   2.727  12.827 -0.0480 -0.6954  0.3929
  919TIP3    H124172   6.775   2.711  12.900  1.1553  0.0379 -0.4078
  919TIP3    H224173   6.752   2.676  12.755 -0.0829  0.1562 -0.2421
  920TIP3   OH224174   3.789   2.435  12.021  0.1714  0.1023 -0.0269
  920TIP3    H124175   3.852   2.444  11.950  1.2751  1.6906  1.1096
  920TIP3    H224176   3.719   2.497  12.000  0.2364  0.1811 -0.0133
  921TIP3   OH224177   6.500   5.672  16.137 -0.1894 -0.0077  0.1287
  921TIP3    H124178   6.522   5.585  16.104  1.3672  1.4124 -2.8170
  921TIP3    H224179   6.416   5.693  16.096 -0.2641  0.0831  0.3307
  922TIP3   OH224180   1.490   5.127   1.556 -0.0791 -0.3849  0.0530
  922TIP3    H124181   1.463   5.141   1.647  0.8342  1.1386  0.1000
  922TIP3    H224182   1.479   5.033   1.542 -0.1726 -0.6381  1.7487
  923TIP3   OH224183   1.725   2.953   1.127  0.0987 -0.6335  0.1230
  923TIP3    H124184   1.669   2.960   1.204 -0.1896  0.0151 -0.1421
  923TIP3    H224185   1.685   2.885   1.073 -0.8478  0.3369 -0.4078
  924TIP3   OH224186   6.521   2.485  15.378  0.1258 -0.4134 -0.0683
  924TIP3    H124187   6.506   2.466  15.471 -1.1199  1.2770  0.1168
  924TIP3    H224188   6.436   2.518  15.347  0.8725  0.1829 -1.5108
  925TIP3   OH224189   6.653   1.090   4.459 -0.4197 -0.7848 -0.0463
  925TIP3    H124190   6.571   1.122   4.423  0.0711 -0.5288 -0.9358
  925TIP3    H224191   6.646   1.108   4.553 -0.4640  1.2355 -0.4225
  926TIP3   OH224192   1.804   5.564  14.603  0.2895  0.8001 -1.0655
  926TIP3    H124193   1.784   5.602  14.518 -2.3152  0.4142 -0.6623
  926TIP3    H224194   1.729   5.588  14.658  1.6289  0.4948  0.9311
  927TIP3   OH224195   2.477   0.555  16.688  0.5508  0.3542  0.1395
  927TIP3    H124196   2.558   0.528  16.644 -1.3791 -2.2003 -2.0243
  927TIP3    H224197   2.426   0.600  16.620 -0.5958  0.3887  0.9957
  928TIP3   OH224198   3.436   1.104  15.537  0.4635  0.0123 -0.8064
  928TIP3    H124199   3.450   1.132  15.447  0.4822 -1.0543 -1.1521
  928TIP3    H224200   3.402   1.014  15.529 -1.7540  0.7180  0.1666
  929TIP3   OH224201   5.839   3.305   2.317 -0.3987  0.2659 -0.0786
  929TIP3    H124202   5.862   3.279   2.228 -0.3295  0.3981 -0.1006
  929TIP3    H224203   5.803   3.226   2.357  0.3299 -0.0089  0.0352
  930TIP3   OH224204   5.388   1.163   2.450  0.0414 -0.6705 -0.4061
  930TIP3    H124205   5.363   1.208   2.370  1.7363  1.0871  0.0355
  930TIP3    H224206   5.310   1.169   2.506  0.2230  1.6927 -0.3638
  931TIP3   OH224207   3.720   3.420  12.704  1.2315 -0.1939 -0.1931
  931TIP3    H124208   3.785   3.367  12.660  1.0019 -0.7515  0.1358
  931TIP3    H224209   3.637   3.374  12.690  1.0590 -0.0245  0.2545
  932TIP3   OH224210   4.860   5.044   4.424  0.1964  0.2677 -0.0142
  932TIP3    H124211   4.902   4.965   4.390 -0.3760 -0.2795  0.5350
  932TIP3    H224212   4.807   5.076   4.351 -0.7966 -0.7383  0.2462
  933TIP3   OH224213   4.470   2.037   5.356 -0.4738  0.4016 -0.5774
  933TIP3    H124214   4.438   1.979   5.426 -0.6360  0.2832 -0.7496
  933TIP3    H224215   4.433   2.123   5.377 -1.8532  0.0304 -1.4016
  934TIP3   OH224216   5.743   6.543   5.227 -0.0356  0.3003 -0.0734
  934TIP3    H124217   5.671   6.574   5.284 -1.6340 -1.7749 -0.9078
  934TIP3    H224218   5.711   6.460   5.191  1.4313  1.0035 -3.1125
  935TIP3   OH224219   0.817   1.203   2.856  0.3778 -0.4420 -0.0950
  935TIP3    H124220   0.840   1.202   2.948 -1.5477  0.5496  0.4264
  935TIP3    H224221   0.838   1.291   2.826  1.6245 -0.9616 -0.7831
  936TIP3   OH224222   5.249   3.088   5.207  0.1692 -0.1361  0.6303
  936TIP3    H124223   5.334   3.131   5.212 -1.0604  2.9446 -2.2947
  936TIP3    H224224   5.243   3.057   5.116 -1.0367 -2.0920  1.3459
  937TIP3   OH224225   5.691   5.589  14.481  0.4922 -0.4651  0.5998
  937TIP3    H124226   5.759   5.600  14.415  0.5604 -0.6464  0.6405
  937TIP3    H224227   5.705   5.502  14.516 -0.0991 -0.7135  0.2218
  938TIP3   OH224228   5.970   2.868   0.439 -0.2025 -0.0282 -0.0879
  938TIP3    H124229   5.958   2.915   0.357  1.0865  1.5131  0.5950
  938TIP3    H224230   5.997   2.935   0.502 -2.0364 -1.0213  1.8239
  939TIP3   OH224231   4.853   6.709   0.754 -0.9775  0.0404  0.0871
  939TIP3    H124232   4.864   6.620   0.720 -1.0523 -0.3190  1.0013
  939TIP3    H224233   4.932   6.725   0.806 -1.6704 -0.0708  1.1915
  940TIP3   OH224234   2.363   0.777  12.887 -0.3038  0.1752  0.6494
  940TIP3    H124235   2.272   0.748  12.897 -0.8665  1.7468  0.2489
  940TIP3    H224236   2.413   0.719  12.944 -1.1597 -2.6480 -1.3373
  941TIP3   OH224237   3.012   5.502  15.524 -0.1697 -0.2238  0.1574
  941TIP3    H124238   2.964   5.469  15.449 -0.4681 -0.3697  0.4126
  941TIP3    H224239   2.999   5.597  15.521  1.6071 -0.0054 -1.2113
  942TIP3   OH224240   1.787   1.081   6.172 -0.6466  0.4306 -0.4444
  942TIP3    H124241   1.819   1.107   6.258  0.7752 -1.0854 -0.4822
  942TIP3    H224242   1.839   1.132   6.110  0.3286 -0.5825 -0.4629
  943TIP3   OH224243   1.759   1.904  16.535  0.3521 -0.3563  0.8327
  943TIP3    H124244   1.756   1.813  16.504  2.6629  0.2977 -1.5587
  943TIP3    H224245   1.668   1.926  16.553 -0.5370 -2.4034 -0.8709
  944TIP3   OH224246   2.347   3.379  15.626  0.0019  0.4328 -0.1009
  944TIP3    H124247   2.269   3.388  15.681  1.1308  2.0412  1.2782
  944TIP3    H224248   2.353   3.285  15.608 -1.3201  0.0954  1.1452
  945TIP3   OH224249   2.687   2.753   5.155  0.1968 -0.9750  0.4012
  945TIP3    H124250   2.754   2.686   5.151  1.3687  0.1990  0.1215
  945TIP3    H224251   2.735   2.836   5.154 -1.2451 -0.1168  0.2252
  946TIP3   OH224252   6.180   4.753  17.141  0.2276 -0.0926  0.6198
  946TIP3    H124253   6.108   4.691  17.125 -1.0840  1.2285  1.2670
  946TIP3    H224254   6.246   4.730  17.076 -1.0110 -0.9810 -0.3606
  947TIP3   OH224255   1.201   0.682  16.970 -0.1577 -0.0331  0.4126
  947TIP3    H124256   1.200   0.746  16.899 -0.3409  1.0305  1.3789
  947TIP3    H224257   1.285   0.637  16.960 -0.1721  0.1164 -0.4528
  948TIP3   OH224258   2.400   4.997  12.560 -0.1472  0.3534 -0.1195
  948TIP3    H124259   2.325   4.987  12.502  0.2422  1.4910 -0.8232
  948TIP3    H224260   2.442   4.911  12.560 -0.3028  0.2780 -1.2963
  949TIP3   OH224261   2.200   5.760   3.868  0.1107 -0.6538 -0.0365
  949TIP3    H124262   2.147   5.829   3.909 -2.3516 -1.4368 -1.7912
  949TIP3    H224263   2.224   5.795   3.782  1.4577 -0.7959  0.2646
  950TIP3   OH224264   1.309   2.366   1.732 -0.1228 -0.3854 -0.2108
  950TIP3    H124265   1.401   2.341   1.743 -0.5152 -2.7006 -1.8244
  950TIP3    H224266   1.273   2.363   1.821  0.7091 -2.1392  0.0883
  951TIP3   OH224267   5.015   0.185  14.613  0.6702  0.3058  0.2246
  951TIP3    H124268   5.040   0.217  14.700 -0.0777  0.7752  0.2747
  951TIP3    H224269   4.971   0.259  14.572 -0.7165 -0.5216  0.1846
  952TIP3   OH224270   2.098   4.684   2.958  0.0856  0.1699  0.0889
  952TIP3    H124271   2.035   4.684   3.030 -3.0031 -3.4131 -2.4283
  952TIP3    H224272   2.064   4.749   2.896 -0.6408 -1.0283 -0.8008
  953TIP3   OH224273   1.325   6.426   1.428 -0.7217  0.2769 -0.8310
  953TIP3    H124274   1.307   6.368   1.354 -1.4367  1.9971 -2.0348
  953TIP3    H224275   1.417   6.450   1.417 -0.3487 -0.7960 -0.1827
  954TIP3   OH224276   3.433   1.630  11.772 -0.7061  0.1343  0.6887
  954TIP3    H124277   3.415   1.682  11.850 -1.0846  1.9956 -0.5823
  954TIP3    H224278   3.523   1.651  11.749 -1.3325  1.4519 -0.6844
  955TIP3   OH224279   5.076   0.821   4.294  0.3691  0.3026  0.2824
  955TIP3    H124280   5.065   0.916   4.301 -1.0501  0.2262 -0.6361
  955TIP3    H224281   5.104   0.806   4.203 -0.1108 -0.2091  0.2143
  956TIP3   OH224282   0.682   3.054  11.968  0.0309  0.1857 -0.0376
  956TIP3    H124283   0.664   3.062  11.875  0.5451 -0.3595 -0.1827
  956TIP3    H224284   0.775   3.034  11.974  0.4876  2.4318  0.7062
  957TIP3   OH224285   3.467   2.374  15.918 -0.4551 -0.1422  0.3542
  957TIP3    H124286   3.503   2.297  15.875  0.2524  0.0829  0.5328
  957TIP3    H224287   3.405   2.411  15.854  2.6114  1.7695 -1.6759
  958TIP3   OH224288   4.487   3.283  11.230 -0.1555  0.5826  0.3385
  958TIP3    H124289   4.503   3.242  11.315  1.0576  0.8568  0.2627
  958TIP3    H224290   4.416   3.345  11.246 -1.3669 -0.8840  0.6653
  959TIP3   OH224291   6.407   4.183  11.385 -0.2093  0.0147  0.3304
  959TIP3    H124292   6.323   4.202  11.343  0.7077 -0.9918 -2.0382
  959TIP3    H224293   6.424   4.091  11.365  1.4526  0.1914  0.8244
  960TIP3   OH224294   1.045   3.338  15.860 -0.1441 -0.0571  0.9445
  960TIP3    H124295   1.064   3.245  15.876  0.7808  0.3460  2.2588
  960TIP3    H224296   1.111   3.365  15.796  0.7437  0.1335  1.9186
  961TIP3   OH224297   1.563   4.586  14.358 -0.0659 -0.6105  0.8584
  961TIP3    H124298   1.645   4.636  14.364 -0.2882  0.0511 -1.2139
  961TIP3    H224299   1.590   4.498  14.332  0.1532 -1.0346  2.4582
  962TIP3   OH224300   6.574   3.061  14.741  0.3156  0.5601 -0.3841
  962TIP3    H124301   6.639   2.996  14.715  0.4454  0.8122 -0.6936
  962TIP3    H224302   6.490   3.021  14.718  0.4194  0.7114 -1.0413
  963TIP3   OH224303   5.429   0.326  11.608  0.2744  0.0447  0.0456
  963TIP3    H124304   5.468   0.240  11.596  0.4139  0.4385 -2.4761
  963TIP3    H224305   5.361   0.312  11.675  0.1602 -2.0417 -0.4821
  964TIP3   OH224306   6.266   6.275  12.744 -0.3932 -0.8910 -0.2270
  964TIP3    H124307   6.195   6.287  12.807  1.4977  2.6551  1.3495
  964TIP3    H224308   6.346   6.281  12.796  1.2458  2.6759 -2.9383
  965TIP3   OH224309   0.662   0.303   0.807 -0.2287  0.1908  0.3128
  965TIP3    H124310   0.698   0.318   0.720 -1.4870 -1.2164 -0.4936
  965TIP3    H224311   0.643   0.209   0.809 -0.3121  0.2256  2.0702
  966TIP3   OH224312   1.774   3.320  14.561  0.5084  0.0583  0.1813
  966TIP3    H124313   1.793   3.298  14.470 -0.6539  1.0689 -0.3144
  966TIP3    H224314   1.850   3.372  14.589 -0.6094  2.5572 -1.2432
  967TIP3   OH224315   6.145   4.884  15.510  0.2250  0.8997  0.3976
  967TIP3    H124316   6.132   4.979  15.500  0.2009  0.6742 -1.8580
  967TIP3    H224317   6.065   4.845  15.475  0.3843  0.0345  0.9954
  968TIP3   OH224318   5.628   1.239  13.716  0.7216 -0.0125  0.5520
  968TIP3    H124319   5.672   1.232  13.631  0.6331 -0.8920  0.5728
  968TIP3    H224320   5.676   1.178  13.773  0.5307  0.2718  1.0214
  969TIP3   OH224321   3.735   6.023  10.783  0.4523 -0.0911  0.0081
  969TIP3    H124322   3.682   5.993  10.857 -0.5571  1.4997 -0.0505
  969TIP3    H224323   3.824   6.000  10.807  0.2804  1.4488  2.2677
  970TIP3   OH224324   1.925   5.386  16.236  0.6734 -0.1103 -0.8977
  970TIP3    H124325   1.927   5.329  16.160 -1.3619 -3.4653  1.4430
  970TIP3    H224326   2.009   5.371  16.280  1.1494  0.5893 -1.5390
  971TIP3   OH224327   2.652   2.147   5.231 -0.2503  0.6198  0.4929
  971TIP3    H124328   2.689   2.139   5.143 -0.0576 -1.1601  0.7171
  971TIP3    H224329   2.570   2.196   5.219 -0.7049 -0.4378 -0.8234
  972TIP3   OH224330   5.368   5.164   0.180 -0.3076 -0.2200  0.4070
  972TIP3    H124331   5.426   5.209   0.117 -3.4993  3.6352 -0.0018
  972TIP3    H224332   5.393   5.201   0.265 -2.5809  2.1054  0.1315
  973TIP3   OH224333   1.446   6.119   3.091  0.1474 -0.1226  0.3364
  973TIP3    H124334   1.509   6.088   3.026  0.2327 -0.6357  0.6639
  973TIP3    H224335   1.499   6.161   3.158  0.2220 -1.4794  1.1299
  974TIP3   OH224336   0.167   3.829   0.851  0.0954 -0.2171 -0.1136
  974TIP3    H124337   0.200   3.861   0.767  0.7100  2.5654  1.1325
  974TIP3    H224338   0.245   3.799   0.898 -0.1030 -0.7188 -0.1041
  975TIP3   OH224339   1.848   3.350   3.170  0.8281 -0.2082 -0.3096
  975TIP3    H124340   1.808   3.266   3.148 -1.8398  0.4842  1.7020
  975TIP3    H224341   1.892   3.377   3.089 -3.1533 -0.8201 -2.8267
  976TIP3   OH224342   4.919   3.795  12.478 -0.7188 -0.0733 -0.1408
  976TIP3    H124343   4.956   3.715  12.440 -0.3631 -0.3223  0.7202
  976TIP3    H224344   4.994   3.839  12.518 -1.0913  0.1939  0.2573
  977TIP3   OH224345   2.640   2.398   6.638 -0.0564 -0.6453  0.1931
  977TIP3    H124346   2.646   2.445   6.555 -0.2837 -1.1856 -0.1318
  977TIP3    H224347   2.711   2.435   6.692 -0.2043  0.0327 -0.0672
  978TIP3   OH224348   3.865   5.165   2.570 -0.5753  0.4374  0.0600
  978TIP3    H124349   3.774   5.195   2.574  0.0815  2.3238  1.8989
  978TIP3    H224350   3.894   5.164   2.661  1.3236  0.1426 -0.5314
  979TIP3   OH224351   1.946   1.003   4.761  0.1398 -0.1099  0.4164
  979TIP3    H124352   1.957   1.097   4.751 -0.6623 -0.0254  0.2677
  979TIP3    H224353   1.859   0.992   4.799  0.4999 -0.7620  1.0794
  980TIP3   OH224354   1.835   3.978   2.287 -0.0733 -0.3882 -0.0913
  980TIP3    H124355   1.741   3.992   2.275  0.0881  1.8961  1.0391
  980TIP3    H224356   1.872   3.992   2.200 -0.7288 -0.8409 -0.4488
  981TIP3   OH224357   3.004   2.047   5.812 -0.1177 -0.1013  0.0968
  981TIP3    H124358   3.016   1.967   5.762  0.6071 -0.4415  0.8092
  981TIP3    H224359   3.091   2.087   5.815 -0.2258  0.0969  0.7676
  982TIP3   OH224360   5.792   2.522   0.675  0.5808 -0.0824 -0.3187
  982TIP3    H124361   5.778   2.500   0.584  2.1089  0.1901 -0.6294
  982TIP3    H224362   5.843   2.450   0.711  1.4056  0.5955 -0.1060
  983TIP3   OH224363   4.027   0.122   1.328  0.6910  0.1070  0.1475
  983TIP3    H124364   4.047   0.052   1.266  0.2623  0.8383 -0.8244
  983TIP3    H224365   4.104   0.179   1.327  0.2597  0.6775 -0.4845
  984TIP3   OH224366   0.621   2.006  12.051  0.7888  0.0054  0.2578
  984TIP3    H124367   0.594   2.057  12.127  2.3968 -0.4100  1.1393
  984TIP3    H224368   0.707   2.041  12.029 -0.4907  1.4987 -2.6345
  985TIP3   OH224369   1.224   5.965  11.892 -0.3017 -0.1188  0.3959
  985TIP3    H124370   1.273   5.999  11.967 -0.9064  0.4865  0.5170
  985TIP3    H224371   1.197   5.877  11.919 -1.0745  0.3394  1.1558
  986TIP3   OH224372   3.728   6.682  12.621 -0.1690 -0.1058  0.4157
  986TIP3    H124373   3.710   6.648  12.709 -0.5860 -0.9200  0.0247
  986TIP3    H224374   3.711   6.608  12.563  0.1848  0.4046 -0.3465
  987TIP3   OH224375   2.203   4.066  14.605  0.3343  0.0339  0.2777
  987TIP3    H124376   2.139   4.093  14.539 -0.9906 -0.5494  1.2879
  987TIP3    H224377   2.152   4.014  14.668  0.8296  3.3939  3.6205
  988TIP3   OH224378   0.085   1.341   1.625  0.1508  0.2015 -0.0394
  988TIP3    H124379   0.174   1.350   1.591  0.3073  1.3963  0.6863
  988TIP3    H224380   0.095   1.293   1.707  0.2612  1.3734  0.6434
  989TIP3   OH224381   3.700   5.907   1.777 -0.1017 -0.5298  0.3258
  989TIP3    H124382   3.715   5.947   1.691 -0.0036 -0.3450  0.4276
  989TIP3    H224383   3.703   5.981   1.838 -0.1472 -0.6641  0.4898
  990TIP3   OH224384   6.431   4.237  13.768 -0.5110 -0.2410 -0.4273
  990TIP3    H124385   6.487   4.257  13.692  0.4291  0.8890  0.5367
  990TIP3    H224386   6.465   4.154  13.802 -0.8472 -0.6808 -1.1584
  991TIP3   OH224387   3.833   0.387  15.144 -0.1602 -0.0886  0.0450
  991TIP3    H124388   3.863   0.459  15.200 -0.4289  1.2328 -1.4934
  991TIP3    H224389   3.887   0.393  15.065  0.0811 -1.8257  0.0522
  992TIP3   OH224390   5.344   2.561  14.861  0.5619 -0.2070  0.3194
  992TIP3    H124391   5.324   2.470  14.883 -0.3084 -0.2256 -0.5375
  992TIP3    H224392   5.301   2.612  14.930  1.4882 -0.4533  1.1001
  993TIP3   OH224393   4.227   6.261   1.829 -0.4764 -0.6208  0.1608
  993TIP3    H124394   4.284   6.206   1.776 -0.3750  0.1415 -0.5328
  993TIP3    H224395   4.207   6.336   1.773 -0.3996  0.1732  1.1714
  994TIP3   OH224396   5.184   0.186  11.741 -0.0562  0.0968 -0.3602
  994TIP3    H124397   5.147   0.190  11.653 -0.9859 -0.4647 -0.0099
  994TIP3    H224398   5.201   0.093  11.756  2.4874  0.4434 -0.8919
  995TIP3   OH224399   6.426   0.569   2.699 -0.2886 -0.8771  0.4365
  995TIP3    H124400   6.460   0.648   2.740 -0.1821  0.3595 -1.9055
  995TIP3    H224401   6.500   0.509   2.696 -0.2150 -0.8494  1.7017
  996TIP3   OH224402   4.271   5.873  11.249  0.2720 -0.4393  0.0470
  996TIP3    H124403   4.297   5.956  11.209 -0.9145  0.0246  0.2118
  996TIP3    H224404   4.203   5.839  11.191  0.9969 -1.4564 -0.1979
  997TIP3   OH224405   5.612   2.038   3.626  0.0448  0.0436 -0.0391
  997TIP3    H124406   5.534   2.014   3.577 -0.3622  0.5128  0.3723
  997TIP3    H224407   5.682   2.042   3.561  0.3390 -3.1304 -0.0153
  998TIP3   OH224408   0.758   5.954   2.381 -0.0884  0.4978  0.4741
  998TIP3    H124409   0.783   6.046   2.371  0.6327  0.0056 -3.2337
  998TIP3    H224410   0.672   5.948   2.338 -0.0557 -0.5828  0.5423
  999TIP3   OH224411   4.681   2.498  16.201  0.3211  0.2426 -0.4939
  999TIP3    H124412   4.628   2.442  16.257  0.1257  0.0345 -0.8841
  999TIP3    H224413   4.627   2.515  16.124  0.7521  0.1637 -0.8193
 1000TIP3   OH224414   0.583   2.178   2.025  0.0053 -0.4648  0.4145
 1000TIP3    H124415   0.521   2.116   1.986 -1.9958  1.0463  1.0756
 1000TIP3    H224416   0.583   2.157   2.119  0.6484 -0.5826  0.3919
 1001TIP3   OH224417   3.277   1.296  11.368 -0.5101 -0.4948  0.3656
 1001TIP3    H124418   3.281   1.324  11.277 -0.4964 -0.1984  0.4562
 1001TIP3    H224419   3.365   1.265  11.388  0.4606  2.6623  1.2983
 1002TIP3   OH224420   3.223   5.105   4.278 -0.0781  0.0900 -0.1372
 1002TIP3    H124421   3.155   5.050   4.317 -0.3628 -0.1051 -0.9009
 1002TIP3    H224422   3.241   5.065   4.193  1.9559 -0.6505  0.6007
 1003TIP3   OH224423   4.755   2.931  15.947 -0.2795  0.1881  0.2376
 1003TIP3    H124424   4.666   2.928  15.983  0.3553  0.5565  1.8732
 1003TIP3    H224425   4.811   2.897  16.017  0.8170 -0.5148 -0.9602
 1004TIP3   OH224426   0.347   2.760  12.764 -0.3506  0.7297  0.0563
 1004TIP3    H124427   0.339   2.789  12.673  1.3591  1.5610  0.1558
 1004TIP3    H224428   0.321   2.668  12.761  0.6692  0.4587 -1.4749
 1005TIP3   OH224429   0.235   5.571  17.009  0.1784  0.7207  0.4090
 1005TIP3    H124430   0.146   5.568  17.043 -0.0406  2.6218  0.0388
 1005TIP3    H224431   0.279   5.638  17.062  0.6037  1.7518 -1.2329
 1006TIP3   OH224432   0.826   2.728   1.314  0.5126  0.2909  0.0607
 1006TIP3    H124433   0.842   2.647   1.363  0.2734  0.0199 -0.3104
 1006TIP3    H224434   0.731   2.738   1.314  0.5072  0.2624 -0.3962
 1007TIP3   OH224435   0.543   5.524  16.118  0.0903  0.3472 -0.0565
 1007TIP3    H124436   0.515   5.610  16.089  0.0263  0.6676  0.9507
 1007TIP3    H224437   0.637   5.522  16.099 -0.0139  0.4323 -0.5781
 1008TIP3   OH224438   3.232   0.015   1.946  0.1364 -0.7110 -0.6125
 1008TIP3    H124439   3.266  -0.055   1.890  0.4486 -0.5054 -0.6823
 1008TIP3    H224440   3.247   0.095   1.896 -1.3735 -0.7149 -1.0774
 1009TIP3   OH224441   3.018   5.767   4.835  0.2599 -0.4386 -0.0686
 1009TIP3    H124442   2.997   5.852   4.796  0.8845  0.3664  1.2888
 1009TIP3    H224443   2.934   5.721   4.839  0.0964 -0.3338 -1.8336
 1010TIP3   OH224444   4.882   3.861   3.191 -0.1823  0.3240  0.1323
 1010TIP3    H124445   4.790   3.837   3.205 -0.0545 -1.0874 -1.3755
 1010TIP3    H224446   4.901   3.834   3.102  2.1331 -0.7844  0.9225
 1011TIP3   OH224447   2.965   0.620   5.241 -0.4065  0.5970 -0.6178
 1011TIP3    H124448   2.947   0.579   5.156  0.8244  0.4668 -0.8125
 1011TIP3    H224449   2.953   0.714   5.225 -1.5937  0.4625 -0.5749
 1012TIP3   OH224450   2.581   2.127   2.178  0.1995  0.0566 -0.3321
 1012TIP3    H124451   2.670   2.156   2.198  0.5129 -1.3380  0.3615
 1012TIP3    H224452   2.593   2.037   2.146 -0.6064  1.0570 -3.6229
 1013TIP3   OH224453   6.645   5.235   5.527 -0.3690  0.2149  0.6140
 1013TIP3    H124454   6.686   5.320   5.518 -0.9203  0.4720  0.5164
 1013TIP3    H224455   6.589   5.243   5.605 -1.0455  0.2036  0.1365
 1014TIP3   OH224456   4.762   2.307   5.357 -0.5196  0.2940 -0.1255
 1014TIP3    H124457   4.774   2.212   5.349 -0.9579  0.2038  0.2390
 1014TIP3    H224458   4.717   2.332   5.276 -1.8943 -0.0774  0.5040
 1015TIP3   OH224459   4.524   2.392  13.158  0.2369 -0.1513  0.9554
 1015TIP3    H124460   4.439   2.418  13.124  0.4057 -1.3646 -0.4241
 1015TIP3    H224461   4.574   2.474  13.162 -0.7802  0.4651  1.1751
 1016TIP3   OH224462   4.737   4.070   1.369 -0.1618  0.7011 -0.6960
 1016TIP3    H124463   4.678   4.029   1.305  0.1671 -1.2109  0.1981
 1016TIP3    H224464   4.683   4.080   1.448  0.0830  0.9601 -0.5598
 1017TIP3   OH224465   5.636   3.337  10.783  0.0878  0.3857  0.3504
 1017TIP3    H124466   5.661   3.330  10.691  0.2097 -0.7039  0.4644
 1017TIP3    H224467   5.603   3.427  10.791  1.2825  0.9109 -0.4544
 1018TIP3   OH224468   2.708   0.289  14.938  0.1141  0.1610  0.2317
 1018TIP3    H124469   2.699   0.255  14.849  0.4720 -3.0573  1.3522
 1018TIP3    H224470   2.622   0.276  14.978  0.3232  0.3365  0.7441
 1019TIP3   OH224471   6.206   5.962   5.806  0.4797  0.0695 -0.4535
 1019TIP3    H124472   6.178   6.004   5.887  0.9407  0.3822 -0.4507
 1019TIP3    H224473   6.263   5.891   5.835  0.1863 -0.1773 -0.4815
 1020TIP3   OH224474   5.094   3.212  17.234 -0.1819  0.3439  0.2163
 1020TIP3    H124475   5.172   3.213  17.289  0.4880  0.8395 -0.7202
 1020TIP3    H224476   5.027   3.171  17.288  0.9628 -0.9157  0.7186
 1021TIP3   OH224477   2.478   3.253  12.821 -0.6359  0.2975  0.6979
 1021TIP3    H124478   2.418   3.193  12.777 -0.3971 -0.2780  1.1397
 1021TIP3    H224479   2.482   3.330  12.764  0.5935 -0.9088 -0.8896
 1022TIP3   OH224480   4.199   3.869   1.528  0.3496 -0.3135  0.1406
 1022TIP3    H124481   4.108   3.861   1.499  0.7128  1.4187 -1.6356
 1022TIP3    H224482   4.237   3.783   1.513 -0.4050 -0.4133 -1.3163
 1023TIP3   OH224483   6.691   3.671   3.245  0.2612 -0.0235 -0.4706
 1023TIP3    H124484   6.763   3.735   3.240  0.1777 -0.0288 -1.8566
 1023TIP3    H224485   6.614   3.724   3.262  0.0714  0.3586 -2.3635
 1024TIP3   OH224486   4.188   0.502  13.395  0.3996 -0.6338 -0.2730
 1024TIP3    H124487   4.264   0.479  13.342  1.2101  1.8035 -0.1838
 1024TIP3    H224488   4.136   0.559  13.339 -1.4285 -2.3007 -0.3513
 1025TIP3   OH224489   5.505   4.337   3.461 -0.0509 -0.5212  0.5941
 1025TIP3    H124490   5.489   4.262   3.404 -0.5791 -0.8352  1.1543
 1025TIP3    H224491   5.506   4.412   3.402 -2.5125 -0.6182  0.3974
 1026TIP3   OH224492   4.180   1.210  17.227  0.0114  0.3240 -0.5005
 1026TIP3    H124493   4.246   1.192  17.159 -0.1323 -0.2741 -0.4803
 1026TIP3    H224494   4.223   1.273  17.285 -0.0429  1.2407 -1.4275
 1027TIP3   OH224495   6.082   4.941   4.626 -0.0368  0.0786  0.1054
 1027TIP3    H124496   6.022   4.867   4.619  0.5051 -0.2249 -1.6169
 1027TIP3    H224497   6.114   4.937   4.716 -2.1952 -0.0544  0.8764
 1028TIP3   OH224498   6.564   3.222   2.813 -0.6818  0.3483  0.2460
 1028TIP3    H124499   6.559   3.267   2.898  2.3390  3.0717 -0.8898
 1028TIP3    H224500   6.625   3.150   2.827 -0.2361  0.7586  0.4546
 1029TIP3   OH224501   4.089   3.818   6.557  0.3855 -0.0234  0.5802
 1029TIP3    H124502   4.181   3.844   6.558  0.2459  0.4925  0.3398
 1029TIP3    H224503   4.071   3.798   6.465  0.4070 -0.6559  0.7154
 1030TIP3   OH224504   6.182   0.906  16.385 -0.2339 -0.3268 -0.7043
 1030TIP3    H124505   6.186   0.873  16.475 -0.9752 -0.9315 -0.8867
 1030TIP3    H224506   6.224   0.992  16.389  0.5345 -0.7381  0.0372
 1031TIP3   OH224507   5.368   1.890  12.960 -1.1344 -0.0315 -0.4692
 1031TIP3    H124508   5.281   1.913  12.928 -1.2116  0.6309  0.1925
 1031TIP3    H224509   5.364   1.795  12.974 -1.2561 -0.2444 -1.9125
 1032TIP3   OH224510   2.738   2.065   3.026 -0.6538 -0.0160  0.1843
 1032TIP3    H124511   2.673   2.132   3.006  0.9215  0.9617 -1.9289
 1032TIP3    H224512   2.708   1.987   2.980  0.1590  0.7258 -1.6671
 1033TIP3   OH224513   4.996   4.339  15.759  0.3600 -0.3072  0.0754
 1033TIP3    H124514   4.966   4.302  15.842 -1.2881  2.7300  0.9343
 1033TIP3    H224515   4.927   4.316  15.696 -1.1243  1.8972  0.8080
 1034TIP3   OH224516   1.412   1.701   1.735 -0.0672  0.9361  0.2703
 1034TIP3    H124517   1.496   1.734   1.768  0.7286 -0.2797 -0.4588
 1034TIP3    H224518   1.357   1.693   1.812  0.2672  2.3958  0.6624
 1035TIP3   OH224519   5.674   5.561  16.625 -0.0314 -0.0535  0.3749
 1035TIP3    H124520   5.689   5.636  16.567  0.1919 -0.9729 -0.7888
 1035TIP3    H224521   5.670   5.486  16.565 -0.3592 -0.9506  1.5157
 1036TIP3   OH224522   3.673   5.817   6.282 -0.0926 -0.1661 -0.7175
 1036TIP3    H124523   3.691   5.910   6.264 -0.0506 -0.0886 -0.2820
 1036TIP3    H224524   3.611   5.819   6.355 -2.3469 -0.4117 -2.5615
 1037TIP3   OH224525   4.640   0.880  11.472 -0.0829  0.6968  0.1622
 1037TIP3    H124526   4.609   0.828  11.398  0.3543  1.1371 -0.3389
 1037TIP3    H224527   4.721   0.921  11.440  0.5317  0.2645  1.1507
 1038TIP3   OH224528   2.214   4.111   5.413  0.1767 -0.4511 -0.0118
 1038TIP3    H124529   2.282   4.092   5.479 -0.3734  0.6876  0.8948
 1038TIP3    H224530   2.262   4.151   5.341  0.6060 -0.5208  0.2305
 1039TIP3   OH224531   4.714   4.363  13.999  0.3156  0.0333  0.3905
 1039TIP3    H124532   4.666   4.414  14.064 -1.4822 -1.0671 -0.0354
 1039TIP3    H224533   4.755   4.428  13.943 -0.1862  1.0037  1.1342
 1040TIP3   OH224534   3.899   2.525  10.937 -0.1172  0.1915  0.0568
 1040TIP3    H124535   3.935   2.508  10.850  2.3207  0.5595  0.9745
 1040TIP3    H224536   3.975   2.529  10.995 -1.6334  0.8723  2.0646
 1041TIP3   OH224537   6.770   5.043   2.518 -0.4432  0.0615  0.1464
 1041TIP3    H124538   6.787   5.025   2.611  0.0574  0.8638  0.2127
 1041TIP3    H224539   6.678   5.069   2.515 -0.6527 -0.6483  0.3182
 1042TIP3   OH224540   6.583   5.907   3.492 -0.3476  0.0165 -0.1007
 1042TIP3    H124541   6.675   5.925   3.507  0.0330 -0.6858 -1.5240
 1042TIP3    H224542   6.542   5.994   3.488  0.2438  0.3287  0.4555
 1043TIP3   OH224543   3.592   2.959  11.338 -0.7196  0.4324  0.5688
 1043TIP3    H124544   3.523   3.017  11.306 -0.2720  0.7267  0.1214
 1043TIP3    H224545   3.649   3.016  11.389 -1.4389 -0.0388  1.9277
 1044TIP3   OH224546   3.241   1.319  16.345  0.3855  0.4888  0.2295
 1044TIP3    H124547   3.271   1.304  16.255 -0.3193 -0.2876  0.1187
 1044TIP3    H224548   3.241   1.233  16.385  0.6376  0.8257  0.9655
 1045TIP3   OH224549   4.882   6.127  10.748  0.0205  0.0549  0.5426
 1045TIP3    H124550   4.904   6.062  10.680 -0.6781 -0.5971  0.9318
 1045TIP3    H224551   4.787   6.120  10.759  0.0309  0.6743  1.0667
 1046TIP3   OH224552   5.545   6.251   4.608  0.3972 -0.0159 -0.9786
 1046TIP3    H124553   5.636   6.277   4.614 -0.0560  1.1028  1.7678
 1046TIP3    H224554   5.504   6.317   4.552  0.2854  2.4761  1.9011
 1047TIP3   OH224555   5.802   6.049  17.147  0.5228 -0.6827 -0.1788
 1047TIP3    H124556   5.866   6.007  17.205  0.8706 -1.1130 -0.8645
 1047TIP3    H224557   5.826   6.019  17.060 -0.3870 -0.5480 -0.4820
 1048TIP3   OH224558   3.988   2.037  14.995  0.1487 -0.1529 -0.5127
 1048TIP3    H124559   3.970   2.112  15.052  1.1821 -0.4191  0.1934
 1048TIP3    H224560   3.917   1.975  15.013 -0.6283  0.5922 -0.9902
 1049TIP3   OH224561   3.354   1.308  12.048  0.6978  0.1303  0.2848
 1049TIP3    H124562   3.349   1.220  12.086  2.1553 -0.2890 -0.4476
 1049TIP3    H224563   3.406   1.358  12.111  2.0674 -0.2373 -0.5312
 1050TIP3   OH224564   3.911   2.789   5.925  0.3387 -0.5720 -0.5466
 1050TIP3    H124565   3.852   2.795   6.000  0.7333 -1.8326 -0.1169
 1050TIP3    H224566   3.998   2.774   5.964  0.4963 -1.5405 -1.2376
 1051TIP3   OH224567   2.389   4.414  14.030  0.6769 -0.6812  0.8257
 1051TIP3    H124568   2.417   4.458  13.950  1.9468  0.1207  1.7063
 1051TIP3    H224569   2.361   4.485  14.088  1.1590 -1.1455  1.6331
 1052TIP3   OH224570   4.126   1.191  13.298  0.2424  0.8093  0.1576
 1052TIP3    H124571   4.124   1.285  13.281 -1.4469  1.1140  1.9090
 1052TIP3    H224572   4.217   1.173  13.321  0.7375  1.8658 -0.8896
 1053TIP3   OH224573   6.295   3.113   3.093  0.8100  0.2706  0.0143
 1053TIP3    H124574   6.366   3.172   3.069  0.8524  0.6145  0.9519
 1053TIP3    H224575   6.321   3.028   3.059  2.0285  0.2426  0.9964
 1054TIP3   OH224576   6.320   6.546   3.358 -0.4338  0.3318  0.0847
 1054TIP3    H124577   6.259   6.577   3.291  0.2674  1.6611  0.0347
 1054TIP3    H224578   6.285   6.581   3.440 -0.8757 -0.6604  0.3251
 1055TIP3   OH224579   0.881   6.389   1.161 -0.2142 -0.6912  0.3269
 1055TIP3    H124580   0.835   6.401   1.078  0.3932 -1.3109 -0.1062
 1055TIP3    H224581   0.895   6.478   1.194  0.7827 -0.3677 -0.9280
 1056TIP3   OH224582   4.633   6.056  14.245  0.4008 -0.0396 -0.4388
 1056TIP3    H124583   4.634   5.966  14.277  2.5592 -0.0625 -0.4862
 1056TIP3    H224584   4.605   6.049  14.154 -0.8456 -0.5070 -0.0213
 1057TIP3   OH224585   6.063   4.685  16.472  0.1082  0.6101 -0.1162
 1057TIP3    H124586   6.018   4.698  16.389 -2.1383 -0.1213  0.9507
 1057TIP3    H224587   6.156   4.689  16.450 -0.4547  0.1719 -2.6877
 1058TIP3   OH224588   5.209   5.433  11.283  0.0825  0.0400  0.2175
 1058TIP3    H124589   5.269   5.507  11.283  0.9033 -0.5926  1.4179
 1058TIP3    H224590   5.224   5.390  11.199  0.4729  0.5486  0.0225
 1059TIP3   OH224591   1.451   1.060   1.870  0.1186  0.4849 -0.2939
 1059TIP3    H124592   1.356   1.071   1.874 -0.0958 -0.2014 -2.8681
 1059TIP3    H224593   1.484   1.140   1.829  0.6822  0.7419  0.6277
 1060TIP3   OH224594   1.699   3.610   2.927 -0.3348 -0.3901  0.5589
 1060TIP3    H124595   1.670   3.678   2.866  2.6058  1.3764  1.0187
 1060TIP3    H224596   1.751   3.551   2.873 -0.2300 -0.4877  0.7680
 1061TIP3   OH224597   5.399   2.340   5.585 -0.7748  0.1780 -0.2461
 1061TIP3    H124598   5.415   2.434   5.594 -0.7636  0.0230  1.4764
 1061TIP3    H224599   5.307   2.329   5.606 -0.4738 -0.3573  0.8096
 1062TIP3   OH224600   0.017   3.004   3.604  0.3030 -0.0916  0.1514
 1062TIP3    H124601  -0.033   3.084   3.621  1.4866  0.2980  1.8215
 1062TIP3    H224602  -0.044   2.933   3.624 -0.2973  0.3712 -0.0093
 1063TIP3   OH224603   6.603   1.260   2.481  0.0700 -0.5041 -0.0205
 1063TIP3    H124604   6.678   1.227   2.431  0.3508  0.3217 -0.1524
 1063TIP3    H224605   6.528   1.212   2.445  0.4583 -0.9397 -0.2612
 1064TIP3   OH224606   0.392   1.971  12.777  0.4548  0.2429 -0.0237
 1064TIP3    H124607   0.346   1.978  12.861  2.3720 -2.2070  1.2859
 1064TIP3    H224608   0.419   2.061  12.757 -1.7525  1.1565  0.9602
 1065TIP3   OH224609   3.438   6.171  14.134 -0.1427  0.0569 -0.2719
 1065TIP3    H124610   3.506   6.218  14.183 -0.5216 -1.2087  1.5110
 1065TIP3    H224611   3.457   6.191  14.042  2.8646 -0.5912  0.1549
 1066TIP3   OH224612   5.578   2.406   6.722 -0.1975 -0.1560  0.2037
 1066TIP3    H124613   5.609   2.316   6.734  1.6015  0.7173  2.4631
 1066TIP3    H224614   5.651   2.451   6.681 -1.2670  0.1793 -1.3506
 1067TIP3   OH224615   5.280   0.028   2.598  0.0299 -0.0596  0.2533
 1067TIP3    H124616   5.226  -0.050   2.605  0.9062 -0.6487  0.4673
 1067TIP3    H224617   5.227   0.089   2.546 -0.6011 -0.8324 -0.0173
 1068TIP3   OH224618   1.791   1.050  12.564  0.0956  0.5761 -0.3002
 1068TIP3    H124619   1.862   1.114  12.577 -0.0981  0.8425 -0.5437
 1068TIP3    H224620   1.803   0.987  12.635  0.8333  0.3844 -0.5898
 1069TIP3   OH224621   5.586   0.744   0.013  0.4917  0.0333  0.1355
 1069TIP3    H124622   5.619   0.822   0.058  1.2278 -0.8957  1.2221
 1069TIP3    H224623   5.501   0.727   0.053  0.9082 -0.4761  0.8169
 1070TIP3   OH224624   0.963   1.064   3.083  0.4004 -0.1151 -0.6026
 1070TIP3    H124625   1.056   1.049   3.064 -0.0660 -2.0458 -1.3924
 1070TIP3    H224626   0.962   1.148   3.131  2.7705 -1.1344  1.3306
 1071TIP3   OH224627   2.782   2.465  14.485 -0.6598  0.1846  0.0517
 1071TIP3    H124628   2.825   2.549  14.466 -1.6740  0.9200  0.9412
 1071TIP3    H224629   2.745   2.438  14.401  1.0693 -0.2025 -0.6146
 1072TIP3   OH224630   3.388   5.974  13.163 -0.4003  0.0514 -0.6533
 1072TIP3    H124631   3.306   5.941  13.199 -0.7692  0.8275 -0.7674
 1072TIP3    H224632   3.451   5.903  13.176 -0.0390  0.9902  3.2241
 1073TIP3   OH224633   1.028   3.391  11.067  0.5707 -0.4840  0.5652
 1073TIP3    H124634   0.956   3.331  11.083 -0.6344  1.4830  2.7717
 1073TIP3    H224635   1.030   3.402  10.972 -0.5265 -2.3581  0.3187
 1074TIP3   OH224636   2.402   3.006   0.797 -0.1781 -0.1549 -0.0510
 1074TIP3    H124637   2.347   3.084   0.791 -0.2224 -0.2126 -0.4074
 1074TIP3    H224638   2.468   3.018   0.729 -0.3703 -0.5734 -0.3147
 1075TIP3   OH224639   1.942   4.888  15.937  0.0584  0.3859 -0.5708
 1075TIP3    H124640   2.004   4.955  15.907 -0.4079  0.8901 -0.4144
 1075TIP3    H224641   1.997   4.817  15.970  0.5408  1.3753  0.7402
 1076TIP3   OH224642   3.395   5.933   1.666 -0.0284  0.4338 -0.5985
 1076TIP3    H124643   3.476   5.912   1.713  0.7175  0.1143 -2.0083
 1076TIP3    H224644   3.397   5.878   1.588 -1.5379  0.5471 -0.7340
 1077TIP3   OH224645   1.057   5.634   6.456  0.8806 -0.3959 -0.2785
 1077TIP3    H124646   1.084   5.651   6.546 -0.7475 -0.4854  0.2374
 1077TIP3    H224647   1.115   5.564   6.426 -1.1133 -3.1392  2.0297
 1078TIP3   OH224648   5.529   3.433   2.339 -0.9554  0.1707 -0.1050
 1078TIP3    H124649   5.607   3.385   2.366 -2.1013 -0.7080  1.7276
 1078TIP3    H224650   5.547   3.524   2.363 -0.7874 -0.1484  1.0142
 1079TIP3   OH224651   1.314   4.113   0.573  0.2810 -1.0722  0.2237
 1079TIP3    H124652   1.318   4.177   0.644  0.1617 -1.3874  0.5175
 1079TIP3    H224653   1.398   4.121   0.528  0.7574 -1.5666  1.0140
 1080TIP3   OH224654   3.741   0.582  10.726 -0.6214 -0.1021 -0.0728
 1080TIP3    H124655   3.730   0.514  10.659  0.5680 -0.2797 -0.0963
 1080TIP3    H224656   3.756   0.532  10.807  0.4123  0.1378 -0.1189
 1081TIP3   OH224657   2.196   2.630  11.022 -0.1127  0.4255 -0.3436
 1081TIP3    H124658   2.267   2.624  11.087 -0.1755  1.2697 -0.1933
 1081TIP3    H224659   2.202   2.548  10.973  0.3337  0.0514  0.3227
 1082TIP3   OH224660   2.805   3.085  12.561 -0.1431  0.2445  0.4219
 1082TIP3    H124661   2.718   3.121  12.576 -0.8448  0.0464 -2.7556
 1082TIP3    H224662   2.863   3.138  12.616 -2.3586 -0.3811  3.4908
 1083TIP3   OH224663   0.672   0.853   2.206 -0.5053 -0.1578 -0.7064
 1083TIP3    H124664   0.725   0.931   2.227 -0.4271 -0.6188  0.8909
 1083TIP3    H224665   0.583   0.886   2.199 -0.4122  0.1423 -0.5001
 1084TIP3   OH224666   1.451   6.783  11.307 -0.1313  0.2046 -0.1462
 1084TIP3    H124667   1.454   6.824  11.394  0.5732  2.4970 -1.2076
 1084TIP3    H224668   1.362   6.802  11.275  1.3657  4.3532 -2.1750
 1085TIP3   OH224669   1.270   2.759  14.384  0.1496 -0.7737  0.3323
 1085TIP3    H124670   1.305   2.675  14.353  0.9903 -0.3914  0.2186
 1085TIP3    H224671   1.268   2.750  14.480 -0.8121 -1.3214  0.2695
 1086TIP3   OH224672   5.027   0.164   3.815 -0.5879  0.2382 -0.1772
 1086TIP3    H124673   5.065   0.248   3.789 -0.8745  0.7910  1.1381
 1086TIP3    H224674   5.097   0.100   3.797  0.4693  1.0584  0.8921
 1087TIP3   OH224675   3.410   3.645  12.245  0.1084  0.5134 -0.0062
 1087TIP3    H124676   3.402   3.717  12.308  0.5868  1.3600 -0.8936
 1087TIP3    H224677   3.500   3.652  12.213  0.1772 -0.5284 -0.0460
 1088TIP3   OH224678   6.319   0.697   5.021  0.8721 -0.5114  0.1151
 1088TIP3    H124679   6.231   0.665   5.036  0.8015 -1.4034 -1.9834
 1088TIP3    H224680   6.314   0.744   4.938  3.2280 -4.4292 -2.4487
 1089TIP3   OH224681   0.676   4.708   4.804 -0.3571  0.5540  0.2433
 1089TIP3    H124682   0.607   4.644   4.792  0.0482  0.4574 -1.7909
 1089TIP3    H224683   0.649   4.759   4.880 -2.7217  0.5943 -0.6010
 1090TIP3   OH224684   1.627   3.397   5.874  0.1109  0.1454 -0.5198
 1090TIP3    H124685   1.592   3.486   5.876 -0.9062 -0.1505 -3.3320
 1090TIP3    H224686   1.550   3.340   5.882  0.3284 -0.4772 -2.6137
 1091TIP3   OH224687   2.227   2.857  16.645 -0.2183  0.1020 -0.2365
 1091TIP3    H124688   2.196   2.941  16.678 -0.9513 -0.6512  1.0634
 1091TIP3    H224689   2.203   2.794  16.714 -0.9330 -1.3830 -1.8027
 1092TIP3   OH224690   6.486   2.966   5.171  0.1517  0.0024 -0.1290
 1092TIP3    H124691   6.402   2.993   5.209  0.2725 -0.1280  0.2348
 1092TIP3    H224692   6.463   2.917   5.092 -0.0897  0.7071 -0.4976
 1093TIP3   OH224693   0.971   3.199  12.856  1.0082  0.5134  0.3433
 1093TIP3    H124694   0.883   3.171  12.831  0.7836  1.4713  0.0563
 1093TIP3    H224695   0.983   3.162  12.944 -0.2202  1.5271  0.9656
 1094TIP3   OH224696   3.205   4.349   0.528 -0.1039 -0.0894  0.1099
 1094TIP3    H124697   3.276   4.308   0.576 -0.5468 -0.7798  0.1844
 1094TIP3    H224698   3.247   4.414   0.472  0.6600 -1.0650 -0.4533
 1095TIP3   OH224699   5.893   1.683   1.680  0.0703  0.5050  0.1803
 1095TIP3    H124700   5.974   1.642   1.709 -1.1531 -1.9177  0.2695
 1095TIP3    H224701   5.860   1.727   1.759 -0.5739 -1.6536  1.1543
 1096TIP3   OH224702   2.865   6.776   2.587  0.2611  0.3987 -0.1355
 1096TIP3    H124703   2.808   6.851   2.570  0.7172  0.6928 -0.4112
 1096TIP3    H224704   2.949   6.816   2.613 -0.0155 -0.0331  1.4512
 1097TIP3   OH224705   4.413   0.056  13.473 -0.4986 -0.0630 -0.5464
 1097TIP3    H124706   4.351   0.039  13.401 -1.2488 -0.3954  0.1667
 1097TIP3    H224707   4.438  -0.032  13.503 -0.1499  0.0775 -0.4294
 1098TIP3   OH224708   3.550   5.848   6.529  0.3415 -0.1439  0.7795
 1098TIP3    H124709   3.461   5.881   6.516  0.6777  0.2104 -0.7762
 1098TIP3    H224710   3.592   5.913   6.586 -0.4271 -0.3863  1.6332
 1099TIP3   OH224711   1.531   2.483   0.923  0.1244  0.4634  0.4974
 1099TIP3    H124712   1.616   2.441   0.934 -0.1575 -0.3072 -0.2771
 1099TIP3    H224713   1.529   2.510   0.832  0.1266  1.7928  0.8777
 1100TIP3   OH224714   1.797   3.597   0.038  0.0827 -0.4707  0.4236
 1100TIP3    H124715   1.827   3.547  -0.038 -0.5624 -0.1059 -0.0766
 1100TIP3    H224716   1.844   3.680   0.032 -1.2062  0.2118 -0.5197
 1101TIP3   OH224717   2.257   2.444  15.564 -0.4291  0.8779 -1.1778
 1101TIP3    H124718   2.282   2.522  15.614  2.0609 -0.1338 -0.7585
 1101TIP3    H224719   2.323   2.378  15.588 -1.2054 -0.6875 -3.1906
 1102TIP3   OH224720   3.206   1.249  14.733  0.2066 -0.1439 -0.5729
 1102TIP3    H124721   3.114   1.222  14.734  0.3684 -0.7136  1.8358
 1102TIP3    H224722   3.243   1.203  14.658 -0.5706 -3.1971  0.8291
 1103TIP3   OH224723   2.314   6.310   3.518 -0.0074  0.1647 -0.3029
 1103TIP3    H124724   2.304   6.352   3.604  1.9564 -0.8935  0.4595
 1103TIP3    H224725   2.303   6.382   3.455 -0.5734  1.1078  0.8472
 1104TIP3   OH224726   4.861   4.914   3.748  0.3071 -0.0560  0.1458
 1104TIP3    H124727   4.813   4.929   3.666  0.2530 -0.2214  0.1465
 1104TIP3    H224728   4.942   4.965   3.738  0.3410 -0.1441 -0.0482
 1105TIP3   OH224729   0.045   2.048   3.632 -0.0194  0.2211  0.5037
 1105TIP3    H124730  -0.030   2.063   3.574  0.7520  0.7861 -0.3595
 1105TIP3    H224731   0.084   2.134   3.644  0.9462 -0.1880  0.3352
 1106TIP3   OH224732   2.581   3.813  15.038 -0.5117  0.3903  0.2183
 1106TIP3    H124733   2.612   3.892  14.993 -0.0113  0.0083 -0.1017
 1106TIP3    H224734   2.654   3.752  15.033 -1.6920 -0.9403 -1.5660
 1107TIP3   OH224735   3.803   0.636   0.422 -0.6844 -0.1996  0.7561
 1107TIP3    H124736   3.838   0.601   0.504 -1.5703 -0.5145  1.0097
 1107TIP3    H224737   3.879   0.671   0.376 -0.1550 -0.1581  1.6475
 1108TIP3   OH224738   4.395   3.089   6.046  0.2687  0.0450  0.1402
 1108TIP3    H124739   4.306   3.076   6.079 -0.0864  1.9136 -0.0616
 1108TIP3    H224740   4.430   3.161   6.098  0.1701  2.1526 -2.6085
 1109TIP3   OH224741   3.846   2.270   0.675  0.8567 -0.3802  0.2344
 1109TIP3    H124742   3.765   2.273   0.625  0.9168 -3.2497 -0.1585
 1109TIP3    H224743   3.856   2.358   0.711 -2.1159  0.1649 -0.1581
 1110TIP3   OH224744   0.081   5.570  11.914 -0.1631 -0.0301 -0.2500
 1110TIP3    H124745   0.157   5.574  11.971 -0.8506 -0.4138  0.6969
 1110TIP3    H224746   0.110   5.516  11.840  1.6384  2.8102 -1.6881
 1111TIP3   OH224747   4.571   6.199   0.964  0.0633  0.1266 -0.3766
 1111TIP3    H124748   4.506   6.134   0.936  1.6811 -1.1764 -1.1577
 1111TIP3    H224749   4.646   6.185   0.906  1.0331  1.6571  0.4754
 1112TIP3   OH224750   3.248   4.401   3.115 -0.2851  0.1782  0.6582
 1112TIP3    H124751   3.219   4.332   3.175 -1.9783  0.1962 -0.0888
 1112TIP3    H224752   3.219   4.482   3.156 -3.3553  0.0837 -1.0877
 1113TIP3   OH224753   0.162   4.867   0.369  0.2878 -0.4761  0.5360
 1113TIP3    H124754   0.141   4.813   0.445 -1.9049  0.2516  0.4863
 1113TIP3    H224755   0.258   4.871   0.368  0.4024 -2.0247  2.1552
 1114TIP3   OH224756   1.185   4.600   2.361  0.2702 -0.3326  0.5673
 1114TIP3    H124757   1.262   4.618   2.308  0.3121 -1.5575  0.2183
 1114TIP3    H224758   1.207   4.522   2.412  0.1027  0.6139  2.1347
 1115TIP3   OH224759   4.704   1.816  12.826 -0.1482 -0.0248  0.3954
 1115TIP3    H124760   4.793   1.831  12.856 -0.5345 -0.5783  1.8817
 1115TIP3    H224761   4.698   1.722  12.810 -0.0241  0.2282 -1.2123
 1116TIP3   OH224762   0.594   6.627   3.291  0.6170  0.2152 -0.0198
 1116TIP3    H124763   0.514   6.659   3.249  1.3472  1.4393 -0.5008
 1116TIP3    H224764   0.585   6.531   3.291  0.7664  0.1590 -3.3472
 1117TIP3   OH224765   5.427   2.422   1.014  0.0801  0.2852  0.2320
 1117TIP3    H124766   5.441   2.396   0.923 -0.5209 -0.9771  0.4781
 1117TIP3    H224767   5.511   2.458   1.042 -0.4076  2.8237 -1.4904
 1118TIP3   OH224768   0.672   5.839   0.063  0.4284  0.1469 -0.1567
 1118TIP3    H124769   0.718   5.918   0.035  0.8009 -0.0413 -0.0905
 1118TIP3    H224770   0.742   5.774   0.073  0.1325 -0.1725 -0.1555
 1119TIP3   OH224771   2.724   4.081   5.572  0.6671 -0.3802 -0.1828
 1119TIP3    H124772   2.672   4.060   5.494 -1.8421  3.1811  0.4350
 1119TIP3    H224773   2.675   4.043   5.645 -1.1026  2.7516  0.3701
 1120TIP3   OH224774   0.263   6.441   4.961 -0.0743  0.3155  0.9284
 1120TIP3    H124775   0.279   6.356   4.921 -0.3208  0.8002 -0.2130
 1120TIP3    H224776   0.308   6.503   4.904  0.5872  0.8973  2.0756
 1121TIP3   OH224777   2.369   6.406  14.031 -0.1151 -0.1294  0.6316
 1121TIP3    H124778   2.283   6.384  13.996 -0.1037 -0.4891  0.8316
 1121TIP3    H224779   2.371   6.366  14.118 -0.2186  0.9248  1.1258
 1122TIP3   OH224780   0.359   2.751   3.675  0.5956 -0.4094  0.1575
 1122TIP3    H124781   0.445   2.778   3.641 -0.0357  1.2723 -0.1231
 1122TIP3    H224782   0.318   2.832   3.703 -1.1287 -1.1417 -0.1994
 1123TIP3   OH224783   4.868   0.826  15.228 -0.3553 -0.1940 -0.4583
 1123TIP3    H124784   4.783   0.790  15.256 -0.4024 -0.2427 -0.6673
 1123TIP3    H224785   4.889   0.779  15.148 -0.0539 -0.2945 -0.3214
 1124TIP3   OH224786   4.359   2.755  13.598  0.3834 -0.7695 -0.2197
 1124TIP3    H124787   4.275   2.763  13.645  0.2668 -0.1859 -0.5162
 1124TIP3    H224788   4.341   2.694  13.526 -0.4067  1.0677 -1.6302
 1125TIP3   OH224789   2.689   5.713   6.607  0.0552 -0.4174  0.3291
 1125TIP3    H124790   2.757   5.671   6.659  1.5925  1.5635 -0.0182
 1125TIP3    H224791   2.669   5.794   6.654 -0.8654 -0.1670 -0.4577
 1126TIP3   OH224792   0.074   5.308  12.168 -0.3819  0.6763 -0.1265
 1126TIP3    H124793   0.026   5.391  12.175  1.7433  1.8738  0.7399
 1126TIP3    H224794   0.105   5.306  12.077 -1.3789  0.2847 -0.4607
 1127TIP3   OH224795   2.081   1.494   0.370  0.2565  0.2774  0.6461
 1127TIP3    H124796   2.113   1.426   0.311 -1.2955  0.0826  0.0212
 1127TIP3    H224797   1.992   1.467   0.393 -0.2761  1.9407  0.6192
 1128TIP3   OH224798   5.558   6.754  10.571 -0.5903  0.3012  0.3615
 1128TIP3    H124799   5.557   6.687  10.638 -3.3039  0.2204  0.2846
 1128TIP3    H224800   5.560   6.837  10.620  0.8692  0.2055  0.4770
 1129TIP3   OH224801   3.310   2.504  11.847  0.6010  0.5592  0.4140
 1129TIP3    H124802   3.266   2.529  11.766 -0.0987  0.6107  0.8091
 1129TIP3    H224803   3.306   2.582  11.902  0.0278  0.1636  0.9450
 1130TIP3   OH224804   3.921   0.991   1.233 -0.2035 -0.9455 -0.1728
 1130TIP3    H124805   3.825   0.993   1.226 -0.1115 -2.0730 -2.1154
 1130TIP3    H224806   3.951   1.017   1.146  1.2828 -0.0760  0.5866
 1131TIP3   OH224807   5.399   4.605  15.804 -0.1638  0.1753 -0.4371
 1131TIP3    H124808   5.364   4.529  15.850 -1.5553 -0.7115 -2.8712
 1131TIP3    H224809   5.494   4.595  15.810 -0.3230 -2.2704 -1.5481
 1132TIP3   OH224810   3.125   3.722   2.674  0.6599  0.1239  0.5383
 1132TIP3    H124811   3.050   3.740   2.617  1.2786  0.4827 -0.1675
 1132TIP3    H224812   3.086   3.709   2.761 -0.3676 -1.1110 -0.0786
 1133TIP3   OH224813   6.264   6.588  16.625  0.8079  0.9462  0.3028
 1133TIP3    H124814   6.239   6.644  16.551 -2.3534 -0.5703  0.1419
 1133TIP3    H224815   6.207   6.615  16.696  0.7758 -0.5519  0.8659
 1134TIP3   OH224816   4.272   2.668   3.742 -0.2670 -0.2030 -0.5809
 1134TIP3    H124817   4.276   2.664   3.646 -1.1080  1.0034 -0.6698
 1134TIP3    H224818   4.236   2.755   3.761 -1.0395 -0.8189  0.8101
 1135TIP3   OH224819   4.039   1.050   0.651  0.2026  0.0731 -0.3172
 1135TIP3    H124820   4.116   1.035   0.596 -0.2849 -0.3715 -0.8793
 1135TIP3    H224821   4.051   0.991   0.725  0.3999  0.0014 -0.4060
 1136TIP3   OH224822   6.486   3.440   1.939 -0.4297  0.1423 -0.1687
 1136TIP3    H124823   6.442   3.517   1.903  1.1191 -0.1468 -2.7742
 1136TIP3    H224824   6.430   3.366   1.914 -0.1173  0.0829 -0.6885
 1137TIP3   OH224825   1.483   6.723   4.927 -0.5113  0.3193 -0.2093
 1137TIP3    H124826   1.537   6.786   4.974  0.9874  0.9140 -2.6529
 1137TIP3    H224827   1.427   6.776   4.870 -0.7874 -0.4691 -0.6786
 1138TIP3   OH224828   6.563   6.416  15.232  0.1679  0.4848  0.0005
 1138TIP3    H124829   6.582   6.355  15.303  0.0419  0.7295  0.2486
 1138TIP3    H224830   6.634   6.481  15.238 -1.3311  2.0528  1.6608
 1139TIP3   OH224831   0.669   2.193  15.754 -0.5898  0.1520  0.3251
 1139TIP3    H124832   0.573   2.196  15.757 -0.5896 -0.6356  1.2685
 1139TIP3    H224833   0.697   2.273  15.798 -0.8113  0.2972  0.2030
 1140TIP3   OH224834   0.135   3.557   6.652 -0.1359 -0.3402  0.2383
 1140TIP3    H124835   0.094   3.494   6.593 -0.8847  1.4215 -1.1498
 1140TIP3    H224836   0.137   3.639   6.603 -0.6523  1.1358  2.5782
 1141TIP3   OH224837   6.408   5.482   2.503 -0.4873 -0.1943 -0.1347
 1141TIP3    H124838   6.433   5.527   2.423  0.3114 -1.5053 -0.6450
 1141TIP3    H224839   6.418   5.547   2.572  1.3861  0.2006 -0.7465
 1142TIP3   OH224840   4.270   6.530   3.110 -0.6943 -0.2248  0.5832
 1142TIP3    H124841   4.239   6.444   3.135 -0.4217 -0.7838 -0.9276
 1142TIP3    H224842   4.365   6.526   3.121 -0.4800 -0.7456 -1.2260
 1143TIP3   OH224843   1.157   1.497  14.816 -0.0618 -0.1703  0.3274
 1143TIP3    H124844   1.253   1.493  14.810 -0.0937  1.0470 -1.0453
 1143TIP3    H224845   1.138   1.584  14.850 -0.7482  0.1673 -0.9007
 1144TIP3   OH224846   5.704   5.710  17.231 -0.0658 -0.2403  0.2880
 1144TIP3    H124847   5.649   5.670  17.299 -1.4091  2.8954  1.1294
 1144TIP3    H224848   5.648   5.714  17.154 -0.0170  0.2728  0.2807
 1145TIP3   OH224849   0.906   4.437  15.754 -0.1274 -0.0661 -0.1519
 1145TIP3    H124850   0.840   4.389  15.704  1.0610 -1.6256 -0.2439
 1145TIP3    H224851   0.882   4.529  15.742 -0.9884 -0.5007 -2.0087
 1146TIP3   OH224852   0.005   0.409  13.536  0.3324 -0.2122 -0.1665
 1146TIP3    H124853  -0.021   0.409  13.628  0.6342  0.9497 -0.0835
 1146TIP3    H224854  -0.045   0.480  13.497 -1.2624 -1.9010 -1.3211
 1147TIP3   OH224855   4.937   2.952  12.190  0.9930 -0.1112  0.0414
 1147TIP3    H124856   5.016   2.910  12.157  0.6438 -1.0626  0.3952
 1147TIP3    H224857   4.873   2.881  12.197  0.6723  0.2921  1.5289
 1148TIP3   OH224858   5.025   4.990  12.219  0.0962  0.2416 -0.1124
 1148TIP3    H124859   5.100   4.950  12.173 -0.0503  2.7902 -2.7020
 1148TIP3    H224860   4.951   4.975  12.160 -0.5567  1.5454  0.3646
 1149TIP3   OH224861   5.965   0.792   2.478 -0.2016 -0.5667 -0.4153
 1149TIP3    H124862   6.033   0.815   2.541 -1.9750  4.3288 -0.0377
 1149TIP3    H224863   6.013   0.769   2.399  1.9505  0.0094  0.6685
 1150TIP3   OH224864   0.008   4.484  16.713  0.5700  0.3410 -0.0535
 1150TIP3    H124865  -0.021   4.504  16.802 -0.8184  0.8945 -0.6207
 1150TIP3    H224866   0.099   4.514  16.710  0.5011  0.6807  1.0559
 1151TIP3   OH224867   4.675   3.696   3.630  0.4464 -0.2544 -0.2476
 1151TIP3    H124868   4.610   3.744   3.579  0.0856  0.1905  0.6293
 1151TIP3    H224869   4.698   3.621   3.575 -0.4694 -0.1661 -0.7574
 1152TIP3   OH224870   4.358   0.515   2.578 -0.3567  0.5798  0.3837
 1152TIP3    H124871   4.391   0.476   2.659 -2.0675 -3.1973 -0.6018
 1152TIP3    H224872   4.263   0.514   2.587 -0.5879 -0.1317 -1.7087
 1153TIP3   OH224873   5.387   6.088   1.349 -0.4842 -0.4460  0.3147
 1153TIP3    H124874   5.354   6.167   1.305  1.1831 -0.0958 -0.3574
 1153TIP3    H224875   5.418   6.032   1.277 -1.4271 -1.6269  0.8012
 1154TIP3   OH224876   1.472   4.104  15.426  0.0097 -0.1314  0.1295
 1154TIP3    H124877   1.383   4.127  15.401  1.0073  3.2581 -0.6307
 1154TIP3    H224878   1.484   4.146  15.511  0.6794 -1.1293  0.5352
 1155TIP3   OH224879   1.991   1.739   4.138  0.6702 -0.5637 -0.9683
 1155TIP3    H124880   1.949   1.663   4.098 -0.9351 -1.0887  1.6294
 1155TIP3    H224881   2.077   1.707   4.166  0.2287 -1.2629 -0.4086
 1156TIP3   OH224882   5.636   5.106   1.407 -0.2037  0.4426  0.1810
 1156TIP3    H124883   5.629   5.018   1.444 -0.6201 -0.0363 -1.0127
 1156TIP3    H224884   5.692   5.153   1.468  0.2940 -0.7504  0.6591
 1157TIP3   OH224885   6.255   6.744   4.408  0.1811  0.1238 -0.1903
 1157TIP3    H124886   6.237   6.729   4.500 -2.2322  1.7453 -0.3297
 1157TIP3    H224887   6.331   6.801   4.407  0.2459  0.0626  0.7943
 1158TIP3   OH224888   5.182   0.693   2.224 -0.0764 -0.3539  0.0812
 1158TIP3    H124889   5.140   0.712   2.308  0.1069  1.4829 -0.2421
 1158TIP3    H224890   5.267   0.735   2.229  0.6989 -1.8245 -0.3200
 1159TIP3   OH224891   3.390   4.703  14.278  0.6715  0.0700 -0.1159
 1159TIP3    H124892   3.315   4.740  14.323  0.6259 -0.3167  0.1244
 1159TIP3    H224893   3.454   4.774  14.276  0.9752 -0.1482  1.2600
 1160TIP3   OH224894   4.764   5.751  13.887 -0.3562  0.1010  0.1481
 1160TIP3    H124895   4.709   5.673  13.885 -1.9721  1.2580 -1.9293
 1160TIP3    H224896   4.703   5.824  13.898  1.1916  1.0588  2.7809
 1161TIP3   OH224897   6.288   3.044  10.675  0.5255 -0.2946  0.2319
 1161TIP3    H124898   6.347   3.116  10.699  0.0507 -0.1058  0.8273
 1161TIP3    H224899   6.210   3.087  10.642 -0.3442 -0.5081  1.9623
 1162TIP3   OH224900   5.169   3.510   3.774  0.3059 -0.0178  0.5908
 1162TIP3    H124901   5.110   3.584   3.760  0.7496  0.2981  0.3675
 1162TIP3    H224902   5.223   3.537   3.848 -0.6644 -0.8321  1.6130
 1163TIP3   OH224903   6.671   3.717   2.694 -0.1267 -0.7646  0.1593
 1163TIP3    H124904   6.743   3.774   2.666 -1.2223  0.9574  0.7296
 1163TIP3    H224905   6.610   3.719   2.620 -0.1654 -1.2121  0.1795
 1164TIP3   OH224906   0.835   1.555  11.295 -0.0410 -0.4858  0.2735
 1164TIP3    H124907   0.843   1.539  11.201 -1.7563  1.2678 -0.2169
 1164TIP3    H224908   0.804   1.472  11.331  0.2361 -1.0587 -0.7862
 1165TIP3   OH224909   5.342   6.164  12.204  0.3098 -0.0224 -0.0407
 1165TIP3    H124910   5.348   6.146  12.110 -0.0909  1.9798 -0.4836
 1165TIP3    H224911   5.303   6.251  12.209  1.7229  0.5446  1.9322
 1166TIP3   OH224912   3.039   2.263   1.498 -0.0290 -0.2852  0.3142
 1166TIP3    H124913   3.041   2.358   1.504  0.5612 -0.2553 -0.3467
 1166TIP3    H224914   3.109   2.241   1.437 -0.8668 -1.0697 -0.3751
 1167TIP3   OH224915   3.986   0.090  12.080  0.0122  0.3418  0.3581
 1167TIP3    H124916   4.041   0.017  12.049 -0.5813 -0.3901  1.0139
 1167TIP3    H224917   3.929   0.051  12.146 -0.3757  1.3899  0.6545
 1168TIP3   OH224918   4.258   1.109  15.669  0.2288 -0.3760 -0.3117
 1168TIP3    H124919   4.246   1.044  15.600 -0.1650  0.6449 -1.2164
 1168TIP3    H224920   4.171   1.122  15.705 -0.2065  1.6659 -1.9951
 1169TIP3   OH224921   2.272   0.673  12.548  0.2997  0.0380 -0.1066
 1169TIP3    H124922   2.288   0.624  12.467  0.8405  1.4519 -0.8917
 1169TIP3    H224923   2.332   0.748  12.542 -1.1052  1.2443  0.6570
 1170TIP3   OH224924   2.734   5.169  16.155 -0.8677  0.0372 -0.7256
 1170TIP3    H124925   2.729   5.161  16.250  1.7744  0.9816 -0.4529
 1170TIP3    H224926   2.739   5.263  16.139 -0.3099 -0.1570 -1.7254
 1171TIP3   OH224927   4.443   6.232   5.148 -0.2870 -0.5873  0.3341
 1171TIP3    H124928   4.454   6.141   5.177 -1.1745  0.0370  2.7556
 1171TIP3    H224929   4.408   6.278   5.225 -1.0565  1.5459 -1.2283
 1172TIP3   OH224930   6.442   1.674   0.848 -0.0118 -0.1374 -0.3046
 1172TIP3    H124931   6.459   1.654   0.755 -1.7039  1.2700 -0.9389
 1172TIP3    H224932   6.481   1.601   0.895  0.3501 -1.1902 -2.1684
 1173TIP3   OH224933   2.984   1.887  12.282  0.3854 -0.1416 -0.0018
 1173TIP3    H124934   2.962   1.795  12.293  1.2663 -0.3142  0.3431
 1173TIP3    H224935   3.075   1.894  12.309  0.5885  0.6706 -0.8435
 1174TIP3   OH224936   3.165   4.038  13.431  0.1254 -0.1005 -0.1911
 1174TIP3    H124937   3.185   3.959  13.480 -0.7279  0.3903  0.9739
 1174TIP3    H224938   3.213   4.107  13.476 -1.8122  0.5963  0.8702
 1175TIP3   OH224939   1.806   2.510   4.473 -0.0606  0.6001  0.4332
 1175TIP3    H124940   1.804   2.488   4.566  0.5118 -0.9897  0.0743
 1175TIP3    H224941   1.898   2.505   4.448 -0.4037 -0.9186 -0.6557
 1176TIP3   OH224942   6.766   0.452  11.423  0.4092 -0.1028  0.6468
 1176TIP3    H124943   6.701   0.385  11.442  0.8704  0.1114  3.2037
 1176TIP3    H224944   6.754   0.517  11.492  1.5224  1.2811 -0.4403
 1177TIP3   OH224945   0.369   4.836  13.359 -0.6618 -0.2096 -0.2175
 1177TIP3    H124946   0.286   4.798  13.334 -0.3832 -0.4003 -0.8592
 1177TIP3    H224947   0.409   4.771  13.417 -0.2522 -0.8281 -1.1912
 1178TIP3   OH224948   6.448   2.198   2.367  0.0122 -0.2064 -0.3318
 1178TIP3    H124949   6.469   2.241   2.284 -0.2536  0.4612 -0.0570
 1178TIP3    H224950   6.483   2.256   2.434 -0.4576 -0.3552  0.0483
 1179TIP3   OH224951   1.996   6.423  16.578 -0.4133 -0.4086 -0.4415
 1179TIP3    H124952   1.943   6.438  16.656 -1.6945  1.1044 -1.5604
 1179TIP3    H224953   2.045   6.343  16.596  0.9172  1.0354  2.7738
 1180TIP3   OH224954   0.065   0.794   4.525  0.2785 -0.4166  0.4093
 1180TIP3    H124955  -0.020   0.783   4.483  1.7368  0.1084 -2.8188
 1180TIP3    H224956   0.085   0.707   4.562 -1.3484 -0.7071  0.6404
 1181TIP3   OH224957   6.106   1.055  14.406 -0.8980  0.5320  0.1464
 1181TIP3    H124958   6.096   0.996  14.481 -1.0984  1.8299  1.1795
 1181TIP3    H224959   6.065   1.010  14.333 -2.3769  0.0377  1.2667
 1182TIP3   OH224960   6.381   6.004   0.175  0.3097  0.2826 -0.2256
 1182TIP3    H124961   6.373   5.924   0.226 -0.4526  0.1495 -0.5537
 1182TIP3    H224962   6.393   5.975   0.085 -0.0315  0.5273 -0.3543
 1183TIP3   OH224963   5.029   3.009  16.490 -0.4275  0.0206 -0.2354
 1183TIP3    H124964   4.956   3.024  16.550  1.4595  0.4835  1.9858
 1183TIP3    H224965   5.001   2.934  16.438 -2.9937  0.9320 -0.2777
 1184TIP3   OH224966   2.466   6.285  15.316  0.5317  0.1760  0.6641
 1184TIP3    H124967   2.469   6.368  15.364 -3.0471 -0.4581  2.1314
 1184TIP3    H224968   2.448   6.220  15.383  0.7067 -1.4470 -0.8399
 1185TIP3   OH224969   2.630   4.366   4.030 -0.3755  0.1291 -0.2224
 1185TIP3    H124970   2.682   4.353   4.109 -0.3620 -1.3516 -0.4579
 1185TIP3    H224971   2.569   4.292   4.029 -0.2250  0.0054 -1.7052
 1186TIP3   OH224972   5.051   4.863  17.098 -0.0637 -0.0599  0.3679
 1186TIP3    H124973   4.959   4.876  17.123 -0.0321 -0.0148  0.4608
 1186TIP3    H224974   5.100   4.888  17.176 -0.0063 -0.8654  0.5913
 1187TIP3   OH224975   6.271   0.262  16.416 -0.8257 -0.1380  0.4416
 1187TIP3    H124976   6.254   0.301  16.502 -0.0649 -0.3805  0.7090
 1187TIP3    H224977   6.352   0.303  16.387 -1.7762  0.9423 -0.7740
 1188TIP3   OH224978   2.858   1.714   5.094  0.0696  0.3588  0.4044
 1188TIP3    H124979   2.851   1.736   5.001  0.7725 -0.3699  0.1772
 1188TIP3    H224980   2.947   1.740   5.118  0.3230 -0.6350  0.5595
 1189TIP3   OH224981   5.486   6.641   2.536  0.6483  0.2120  0.4167
 1189TIP3    H124982   5.524   6.669   2.453  0.4607 -2.0139 -0.4401
 1189TIP3    H224983   5.424   6.710   2.558  0.8557  0.9308 -1.1767
 1190TIP3   OH224984   6.549   0.452   5.821  0.4906  0.0424 -0.2406
 1190TIP3    H124985   6.512   0.536   5.797 -0.1858 -0.1510  0.1184
 1190TIP3    H224986   6.625   0.474   5.875 -0.7558  0.4072  1.4024
 1191TIP3   OH224987   5.747   2.192   5.182  0.1971  0.1897  0.0753
 1191TIP3    H124988   5.706   2.243   5.252  1.2269  1.3237 -0.1259
 1191TIP3    H224989   5.790   2.120   5.228 -1.0141 -0.3402  0.3941
 1192TIP3   OH224990   5.354   3.600  13.876 -0.2918 -0.0845 -0.1033
 1192TIP3    H124991   5.402   3.526  13.840 -0.2846 -0.0301 -0.2070
 1192TIP3    H224992   5.415   3.642  13.936  1.5453  2.7990 -3.7381
 1193TIP3   OH224993   1.612   2.726   0.564 -0.3871 -0.3546 -0.2364
 1193TIP3    H124994   1.576   2.644   0.596 -2.6664  0.0288 -1.7355
 1193TIP3    H224995   1.662   2.703   0.486 -0.8691 -0.3433 -0.5483
 1194TIP3   OH224996   6.031   3.708   2.947 -0.1201  0.4522  0.0947
 1194TIP3    H124997   6.052   3.705   2.854 -0.3284 -0.0973  0.0623
 1194TIP3    H224998   6.045   3.618   2.977 -1.3857  0.3165  0.2949
 1195TIP3   OH224999   4.984   3.222  14.340 -0.1933 -0.5847 -0.0778
 1195TIP3    H125000   4.899   3.191  14.369 -0.4273 -1.0403 -1.2375
 1195TIP3    H225001   5.030   3.144  14.311 -0.8709  0.1012 -3.2150
 1196TIP3   OH225002   6.137   6.316  16.089 -0.4771 -0.2138  0.2139
 1196TIP3    H125003   6.118   6.409  16.106 -3.6776 -0.4176 -1.8726
 1196TIP3    H225004   6.099   6.270  16.164  2.4784  0.2292  2.0297
 1197TIP3   OH225005   0.372   4.969   3.287  0.1234 -0.3131  0.1190
 1197TIP3    H125006   0.314   5.043   3.267 -0.8288 -1.2846 -0.7850
 1197TIP3    H225007   0.444   5.008   3.337  0.7000  1.5761 -2.1252
 1198TIP3   OH225008   1.331   3.732   5.597  0.0990 -0.4489 -0.4397
 1198TIP3    H125009   1.419   3.706   5.625  0.0426  0.6536  0.8232
 1198TIP3    H225010   1.279   3.730   5.678 -0.7213  0.1886 -0.9459
 1199TIP3   OH225011   1.871   1.674  12.872 -0.2596  0.0492  0.1271
 1199TIP3    H125012   1.842   1.604  12.813 -1.5427  0.3580  0.3803
 1199TIP3    H225013   1.947   1.637  12.918  0.9085 -0.1113 -1.8784
 1200TIP3   OH225014   4.870   1.598  12.718  0.1642 -0.2484 -0.5153
 1200TIP3    H125015   4.863   1.522  12.777  0.1092 -0.4683 -0.8048
 1200TIP3    H225016   4.877   1.560  12.631 -0.8295  0.0979 -0.7510
 1201TIP3   OH225017   0.867   4.854   4.679  0.1030 -0.3268 -0.0860
 1201TIP3    H125018   0.952   4.844   4.721 -0.1884 -1.0675  0.3271
 1201TIP3    H225019   0.807   4.803   4.733 -1.1761  2.5180  1.3060
 1202TIP3   OH225020   1.168   3.698  12.629 -0.3181 -0.5069 -0.0573
 1202TIP3    H125021   1.187   3.623  12.572 -1.0786 -0.6044 -0.2002
 1202TIP3    H225022   1.080   3.679  12.663 -0.4287  0.2310  0.0617
 1203TIP3   OH225023   6.033   1.328   0.445 -0.0863  0.2028  0.6120
 1203TIP3    H125024   6.076   1.392   0.389  2.9545 -2.5167 -0.3329
 1203TIP3    H225025   6.007   1.257   0.386  1.6494 -1.9479  2.3431
 1204TIP3   OH225026   0.747   3.660  12.904 -0.5473  0.2006  0.0078
 1204TIP3    H125027   0.674   3.722  12.907 -1.1205 -0.5078  0.8541
 1204TIP3    H225028   0.714   3.581  12.946  1.0829  0.2625  1.4576
 1205TIP3   OH225029   5.567   4.049  17.118  0.4588  0.0713 -0.0638
 1205TIP3    H125030   5.567   3.978  17.054  0.6313  1.2837 -1.4395
 1205TIP3    H225031   5.510   4.116  17.079 -1.3334 -0.1168  2.1463
 1206TIP3   OH225032   2.901   2.132   0.759 -0.1247  0.6529  0.2537
 1206TIP3    H125033   2.883   2.221   0.729 -0.5577  0.6533  0.5114
 1206TIP3    H225034   2.953   2.093   0.688 -0.0749  1.0541  0.0661
 1207TIP3   OH225035   0.189   5.277  14.938  0.1643  0.3166 -0.1277
 1207TIP3    H125036   0.229   5.349  14.985  0.4229  1.2328 -1.7258
 1207TIP3    H225037   0.155   5.219  15.007  2.0197  0.7566  1.1967
 1208TIP3   OH225038   4.298   2.578   4.937  0.6892  0.5939  0.8281
 1208TIP3    H125039   4.286   2.503   4.996 -0.7004 -1.2304 -1.6488
 1208TIP3    H225040   4.371   2.551   4.880  0.2022  1.1261 -0.0523
 1209TIP3   OH225041   3.026   0.342  15.579  0.3659 -0.6989 -0.9469
 1209TIP3    H125042   3.090   0.281  15.617  3.4919  1.3796 -2.5706
 1209TIP3    H225043   3.028   0.322  15.485 -0.9530 -0.2027 -1.0905
 1210TIP3   OH225044   4.201   3.701  16.232 -0.2621  0.3089  0.1043
 1210TIP3    H125045   4.235   3.612  16.222 -0.7538  0.2004 -0.6391
 1210TIP3    H225046   4.228   3.747  16.152  0.8966  1.1322  0.9454
 1211TIP3   OH225047   6.328   2.828   4.996  1.0124  0.2286  0.7611
 1211TIP3    H125048   6.340   2.750   4.941 -0.1392 -0.2968  1.2266
 1211TIP3    H225049   6.272   2.797   5.068 -0.0488  1.6779  0.5617
 1212TIP3   OH225050   6.591   5.557  17.218 -0.8898  0.3877 -0.2381
 1212TIP3    H125051   6.631   5.494  17.278 -1.1826  0.4525  0.0346
 1212TIP3    H225052   6.499   5.560  17.246 -0.7933  1.2203 -0.0010
 1213TIP3   OH225053   5.675   0.684  14.321  0.1621  0.0166 -0.2276
 1213TIP3    H125054   5.734   0.759  14.324  0.1763  0.0699 -1.6692
 1213TIP3    H225055   5.612   0.706  14.253 -0.3318 -0.9188 -0.0757
 1214TIP3   OH225056   6.487   5.676  15.485  0.3360 -0.6781 -0.3077
 1214TIP3    H125057   6.515   5.764  15.508  1.0920 -0.6031 -1.4397
 1214TIP3    H225058   6.464   5.635  15.568  0.5898  0.3759  0.2870
 1215TIP3   OH225059   1.179   2.477   2.085  0.0480  0.0181 -0.4395
 1215TIP3    H125060   1.181   2.381   2.078 -2.6988 -0.2864  1.8921
 1215TIP3    H225061   1.162   2.508   1.996 -0.6755 -1.7481 -0.9300
 1216TIP3   OH225062   0.317   0.910  16.630  0.2397  0.3638  0.0076
 1216TIP3    H125063   0.254   0.971  16.592 -0.3590  1.4452  2.6380
 1216TIP3    H225064   0.397   0.961  16.640  1.1235 -0.5792 -1.8808
 1217TIP3   OH225065   1.141   3.229   4.767 -0.3778 -0.4934  0.1903
 1217TIP3    H125066   1.148   3.189   4.854 -0.0178  0.7829  0.7652
 1217TIP3    H225067   1.231   3.232   4.735 -0.5133 -0.9739 -0.2243
 1218TIP3   OH225068   3.597   5.029   0.357  0.0031 -0.4340  0.1207
 1218TIP3    H125069   3.659   4.996   0.422 -0.3637 -0.5147  0.4323
 1218TIP3    H225070   3.560   4.950   0.317  0.3564 -0.3819 -0.3088
 1219TIP3   OH225071   0.391   1.799   4.953  0.1602 -0.1162 -0.0650
 1219TIP3    H125072   0.349   1.846   5.025  0.1647  0.9374 -0.7444
 1219TIP3    H225073   0.405   1.711   4.988  1.3999  0.7450  1.7066
 1220TIP3   OH225074   5.742   1.496   2.524 -0.0189  0.0735 -0.5838
 1220TIP3    H125075   5.816   1.509   2.464  0.1141 -0.2991 -0.5091
 1220TIP3    H225076   5.679   1.563   2.500  0.2174  0.2025 -0.8544
 1221TIP3   OH225077   4.431   5.768   2.222  0.1427  0.3034 -0.8789
 1221TIP3    H125078   4.514   5.724   2.203 -0.6009 -0.6046 -2.1575
 1221TIP3    H225079   4.453   5.861   2.227  1.1321  0.1357 -1.9207
 1222TIP3   OH225080   5.628   0.120   5.477  0.4039 -0.4025 -0.1427
 1222TIP3    H125081   5.635   0.153   5.567  2.7228 -0.5944 -0.2120
 1222TIP3    H225082   5.694   0.169   5.428 -0.0081 -1.1512 -1.4730
 1223TIP3   OH225083   5.079   1.564   5.105 -0.3101  0.0420  0.2286
 1223TIP3    H125084   5.174   1.550   5.099  0.0203  1.7741  1.0998
 1223TIP3    H225085   5.070   1.640   5.163 -2.2267  0.0220 -0.0253
 1224TIP3   OH225086   5.131   2.752  11.156  0.3019  0.1905  0.2784
 1224TIP3    H125087   5.119   2.833  11.106 -1.1498 -0.2997 -0.1715
 1224TIP3    H225088   5.101   2.682  11.098 -0.8713 -0.4415  1.6084
 1225TIP3   OH225089   1.809   1.444  16.051  0.1501  0.2405  0.0313
 1225TIP3    H125090   1.827   1.534  16.079 -0.1157  0.0415  0.8619
 1225TIP3    H225091   1.756   1.454  15.972  0.8806  0.8159 -0.3866
 1226TIP3   OH225092   0.828   1.996  15.629 -0.4818  0.0044  0.6135
 1226TIP3    H125093   0.823   2.043  15.545 -1.5070 -0.1688  0.5764
 1226TIP3    H225094   0.783   2.053  15.691  0.1412  0.0573  1.0261
 1227TIP3   OH225095   4.004   6.060  12.766 -0.0548  0.0227 -0.5106
 1227TIP3    H125096   3.947   6.043  12.691  1.3010  0.4402 -1.6576
 1227TIP3    H225097   4.022   5.974  12.803  0.8918 -0.3580 -1.8756
 1228TIP3   OH225098   2.109   3.338  11.886 -0.1014 -0.3329  0.5297
 1228TIP3    H125099   2.199   3.361  11.860  1.3106 -2.2336  3.5104
 1228TIP3    H225100   2.067   3.422  11.901  1.0154  0.6029 -1.3625
 1229TIP3   OH225101   0.637   3.234  13.726  0.6540 -0.2438 -0.7776
 1229TIP3    H125102   0.673   3.288  13.796  1.2860 -1.3936 -0.1918
 1229TIP3    H225103   0.680   3.149  13.737 -1.0668 -1.1721 -1.0523
 1230TIP3   OH225104   1.258   3.314  10.730  0.8318  0.3640 -1.0856
 1230TIP3    H125105   1.339   3.300  10.681  0.5356 -1.8079 -1.0251
 1230TIP3    H225106   1.227   3.226  10.751  0.1086  1.2132  1.6606
 1231TIP3   OH225107   6.362   1.914  12.357  0.2374 -0.1624  0.5885
 1231TIP3    H125108   6.307   1.992  12.360 -1.3702 -1.2714  0.8628
 1231TIP3    H225109   6.451   1.947  12.360 -0.4327  1.6274  1.6365
 1232TIP3   OH225110   0.567   1.188   5.796 -0.0794 -0.9799 -0.0735
 1232TIP3    H125111   0.661   1.173   5.793 -0.0844 -1.3313  1.2755
 1232TIP3    H225112   0.536   1.134   5.869 -1.0046  0.8164  0.9066
 1233TIP3   OH225113   5.744   1.308   5.408 -0.3965  0.0760  0.0624
 1233TIP3    H125114   5.780   1.327   5.495  0.7472  0.3124 -0.4532
 1233TIP3    H225115   5.775   1.220   5.388 -0.7325 -0.0120 -0.0729
 1234TIP3   OH225116   0.708   2.085   2.483  0.5442  0.6083  0.2794
 1234TIP3    H125117   0.643   2.106   2.550  0.8174 -0.5678  0.9110
 1234TIP3    H225118   0.656   2.065   2.405  0.1606 -0.1961  0.7447
 1235TIP3   OH225119   5.629   5.582   2.307  0.2599  0.3271  0.0142
 1235TIP3    H125120   5.691   5.558   2.239  0.9087 -0.1374  0.7540
 1235TIP3    H225121   5.545   5.589   2.262  0.3265 -1.8842 -0.5221
 1236TIP3   OH225122   4.289   2.592   5.565  0.2536  0.6821 -0.2389
 1236TIP3    H125123   4.372   2.579   5.519  0.8734 -3.4361  1.8236
 1236TIP3    H225124   4.223   2.593   5.496  1.6123 -0.7194 -1.5982
 1237TIP3   OH225125   0.604   4.538   2.718  0.1061 -0.1782 -0.4607
 1237TIP3    H125126   0.670   4.556   2.785  0.4733  1.9081 -1.3643
 1237TIP3    H225127   0.622   4.600   2.648 -1.5521 -0.9543 -1.6212
 1238TIP3   OH225128   2.092   6.736   1.475  0.1136 -0.5775  0.3723
 1238TIP3    H125129   2.049   6.660   1.437 -1.9665 -0.7608  2.9798
 1238TIP3    H225130   2.026   6.777   1.531  1.1165  3.2669 -1.0668
 1239TIP3   OH225131   0.205   0.798  14.418 -0.0764  0.5097 -0.4532
 1239TIP3    H125132   0.290   0.754  14.415  0.0345  0.6789  0.0622
 1239TIP3    H225133   0.185   0.804  14.512 -0.2688  1.2033 -0.5330
 1240TIP3   OH225134   0.762   0.363   1.228  0.7585  0.1326  0.1393
 1240TIP3    H125135   0.799   0.389   1.144  0.1863  1.6880  0.3578
 1240TIP3    H225136   0.685   0.419   1.239  2.4457  1.9818  3.0355
 1241TIP3   OH225137   2.775   2.025   0.458  0.0523 -0.0813  0.0646
 1241TIP3    H125138   2.714   2.001   0.528  0.7901 -1.3046  0.3109
 1241TIP3    H225139   2.726   2.010   0.377 -0.5084  0.4981  0.2875
 1242TIP3   OH225140   1.083   4.584  15.552 -0.2956  0.0673 -0.2631
 1242TIP3    H125141   1.066   4.497  15.518  1.2518 -0.7436  0.9595
 1242TIP3    H225142   1.108   4.570  15.644  2.5469  1.5202 -0.7410
 1243TIP3   OH225143   2.622   5.118  14.858  0.2313  0.3677 -0.0544
 1243TIP3    H125144   2.626   5.076  14.772 -0.5457  1.1417 -0.4742
 1243TIP3    H225145   2.536   5.159  14.861  0.2491  0.3275  1.1068
 1244TIP3   OH225146   5.178   2.413  13.961  0.4421 -0.7172  0.4987
 1244TIP3    H125147   5.216   2.346  13.904 -1.2011 -0.1331 -1.3283
 1244TIP3    H225148   5.084   2.408  13.944  0.1344  0.7848  1.7330
 1245TIP3   OH225149   1.021   6.566  14.841 -0.6144 -0.3796  0.1390
 1245TIP3    H125150   0.957   6.596  14.777 -0.0557 -1.6866 -1.0548
 1245TIP3    H225151   1.104   6.602  14.811 -0.4644 -0.3746  0.5516
 1246TIP3   OH225152   0.110   3.430   6.403  0.2276  0.5067 -0.1823
 1246TIP3    H125153   0.189   3.383   6.430  0.7007  0.9746 -0.7398
 1246TIP3    H225154   0.142   3.503   6.350 -0.5843  0.5742 -0.5958
 1247TIP3   OH225155   1.704   0.562  12.316 -0.1657 -0.5481 -0.5220
 1247TIP3    H125156   1.712   0.494  12.249 -4.0148 -2.0624  0.4210
 1247TIP3    H225157   1.657   0.633  12.273  1.0802  0.2336 -0.6054
 1248TIP3   OH225158   5.756   6.095  15.938  0.5353 -0.8780  0.3580
 1248TIP3    H125159   5.810   6.169  15.910 -1.2813  0.0995 -0.6111
 1248TIP3    H225160   5.728   6.054  15.857 -0.0039 -1.5021  0.8556
 1249TIP3   OH225161   2.277   3.936   4.063 -0.4147 -0.0151 -0.2956
 1249TIP3    H125162   2.197   3.927   4.114 -0.1357  1.2524  0.3991
 1249TIP3    H225163   2.267   3.874   3.991 -0.9054 -1.6795  1.1648
 1250TIP3   OH225164   5.007   3.190  12.111  0.5983 -0.7977  0.1869
 1250TIP3    H125165   4.945   3.242  12.162  0.0149 -0.7539 -0.5681
 1250TIP3    H225166   4.975   3.100  12.119 -1.7754 -0.3521 -3.2917
 1251TIP3   OH225167   5.157   0.435  15.636 -0.5996 -0.0960 -0.0419
 1251TIP3    H125168   5.180   0.507  15.695  2.9165 -0.2057 -1.1397
 1251TIP3    H225169   5.173   0.356  15.688  1.1032 -0.1577 -0.6158
 1252TIP3   OH225170   0.385   2.050   6.349 -0.2225  0.1629 -0.1817
 1252TIP3    H125171   0.457   2.059   6.287  1.3489 -0.0926  1.5845
 1252TIP3    H225172   0.337   2.132   6.342  2.7067  2.1200  1.7005
 1253TIP3   OH225173   3.862   5.435   1.247 -0.0552  0.0495  0.2507
 1253TIP3    H125174   3.769   5.427   1.266 -0.0669  0.5376  0.3918
 1253TIP3    H225175   3.885   5.525   1.271  0.1704  0.3436 -1.0129
 1254TIP3   OH225176   5.577   1.118   5.681  0.3013 -0.5549 -0.4721
 1254TIP3    H125177   5.609   1.204   5.710  1.0934 -0.5672 -1.2869
 1254TIP3    H225178   5.507   1.138   5.619  1.2454 -0.4621 -1.5359
 1255TIP3   OH225179   4.098   1.476   2.103  0.0262 -0.8971  0.2546
 1255TIP3    H125180   4.183   1.493   2.061  1.1196 -2.5484  1.7122
 1255TIP3    H225181   4.120   1.426   2.182 -2.3309 -1.5428  0.5375
 1256TIP3   OH225182   4.240   3.295  14.167  0.2632  0.2418  0.5297
 1256TIP3    H125183   4.239   3.388  14.191  0.9095  0.1258  1.0318
 1256TIP3    H225184   4.187   3.290  14.088  0.1471  1.0290  0.5518
 1257TIP3   OH225185   1.401   5.759   5.543  0.3667 -0.1951 -0.0116
 1257TIP3    H125186   1.426   5.850   5.532 -0.8821  0.1002 -0.5252
 1257TIP3    H225187   1.310   5.755   5.512 -0.6060 -0.9674  2.7659
 1258TIP3   OH225188   3.412   4.492   5.594 -0.2220  0.2638 -0.2054
 1258TIP3    H125189   3.464   4.430   5.543 -0.7450 -0.7260  0.4238
 1258TIP3    H225190   3.402   4.568   5.538  0.3686 -0.2596 -1.0312
 1259TIP3   OH225191   1.538   5.570   2.110  0.4117 -0.4041  0.2628
 1259TIP3    H125192   1.543   5.650   2.058  1.9219 -0.1881  0.7213
 1259TIP3    H225193   1.446   5.563   2.135  0.1962  0.9506 -0.1294
 1260TIP3   OH225194   6.353   4.815  16.888 -0.2003 -0.6631  0.1284
 1260TIP3    H125195   6.335   4.898  16.844 -1.7683 -1.7440 -1.3248
 1260TIP3    H225196   6.441   4.791  16.861  0.5289  0.8323  1.0890
 1261TIP3   OH225197   3.951   4.413  13.434 -0.0212 -0.5747 -0.1538
 1261TIP3    H125198   3.957   4.508  13.439 -1.0167 -0.4486 -1.2686
 1261TIP3    H225199   3.985   4.391  13.348  1.7202 -1.3768  0.7130
 1262TIP3   OH225200   1.578   4.442   2.753  0.2021 -0.3003  0.3847
 1262TIP3    H125201   1.570   4.348   2.742  0.3507 -0.2319 -0.3227
 1262TIP3    H225202   1.667   4.462   2.724  0.0043  0.1274  0.0643
 1263TIP3   OH225203   3.679   6.475  10.579  0.6500 -0.1368 -0.3430
 1263TIP3    H125204   3.664   6.570  10.578  1.9248  0.1204  1.3316
 1263TIP3    H225205   3.774   6.466  10.572  0.7034 -1.1964  1.3755
 1264TIP3   OH225206   3.921   0.739   3.814  0.2152 -0.0406  0.1678
 1264TIP3    H125207   3.830   0.767   3.812  0.1347 -0.3518 -1.3939
 1264TIP3    H225208   3.919   0.649   3.846 -0.0057  0.0578  0.4247
 1265TIP3   OH225209   4.402   3.913  17.151 -0.5437 -0.0334 -0.0261
 1265TIP3    H125210   4.410   3.945  17.061 -0.8729 -1.8400 -0.7105
 1265TIP3    H225211   4.455   3.833  17.154 -1.9626 -0.9713  0.8906
 1266TIP3   OH225212   3.489   4.742  14.723 -0.0733 -0.2551  0.2303
 1266TIP3    H125213   3.516   4.672  14.664  1.3846 -0.9896  1.7406
 1266TIP3    H225214   3.413   4.707  14.769 -0.3819 -0.2022 -0.2418
 1267TIP3   OH225215   4.125   5.420   0.539 -0.3681 -0.1086  0.2214
 1267TIP3    H125216   4.138   5.426   0.444 -1.9474  0.7140  0.0353
 1267TIP3    H225217   4.166   5.499   0.574 -1.3589  0.5068  0.0260
 1268TIP3   OH225218   1.747   5.887  14.745  0.6246  0.2391  0.8410
 1268TIP3    H125219   1.688   5.812  14.738  0.3167  0.6397 -1.2861
 1268TIP3    H225220   1.834   5.848  14.758  0.3634 -0.4621  0.4855
 1269TIP3   OH225221   6.727   6.479  11.383  0.3045  0.1303  0.3245
 1269TIP3    H125222   6.659   6.490  11.449  0.7056  1.3615  0.5427
 1269TIP3    H225223   6.729   6.563  11.337  0.7720 -0.3518 -0.5529
 1270TIP3   OH225224   2.802   5.754   5.709  0.3502  0.5481  0.3830
 1270TIP3    H125225   2.715   5.717   5.697  0.5861  0.4704 -1.1236
 1270TIP3    H225226   2.797   5.798   5.794 -0.9257 -0.0871  0.6550
 1271TIP3   OH225227   3.214   1.836  10.885 -0.7025  0.3078 -0.2114
 1271TIP3    H125228   3.122   1.824  10.907 -0.9511 -0.0495 -1.4043
 1271TIP3    H225229   3.238   1.919  10.926 -0.6390 -1.1572  2.9064
 1272TIP3   OH225230   2.010   6.498  14.132 -0.7901  0.2838 -0.3701
 1272TIP3    H125231   2.011   6.427  14.067  1.2081  0.8743 -1.0406
 1272TIP3    H225232   1.944   6.559  14.100 -2.8236 -1.4545  0.4293
 1273TIP3   OH225233   1.678   6.501   0.474 -0.1635  0.3803  0.0532
 1273TIP3    H125234   1.678   6.592   0.443 -1.5336  0.0727 -0.8660
 1273TIP3    H225235   1.587   6.473   0.469  0.1253 -0.8046  1.0902
 1274TIP3   OH225236   6.603   4.693   1.307  0.1886 -0.2486  0.0735
 1274TIP3    H125237   6.621   4.747   1.230 -1.3581  0.1683 -0.0213
 1274TIP3    H225238   6.620   4.751   1.381  1.3522 -0.5461  0.0467
 1275TIP3   OH225239   0.427   6.145   1.076  0.2708 -0.1438 -0.0624
 1275TIP3    H125240   0.479   6.225   1.074 -0.4514  0.3418  0.0595
 1275TIP3    H225241   0.395   6.135   0.986  1.7430 -1.2394 -0.4833
 1276TIP3   OH225242   1.640   2.108   2.050 -0.4512 -0.2899 -0.1718
 1276TIP3    H125243   1.637   2.184   2.108  0.4682 -0.6313  0.3254
 1276TIP3    H225244   1.648   2.033   2.109 -0.3868 -0.7076 -0.7077
 1277TIP3   OH225245   6.349   1.340  16.823  0.2144  0.6511  0.3914
 1277TIP3    H125246   6.402   1.333  16.903  1.6513  1.5265 -0.4652
 1277TIP3    H225247   6.381   1.419  16.780 -0.3286  0.0042 -1.2235
 1278TIP3   OH225248   1.577   3.700   0.625 -0.2330  0.1375  0.5423
 1278TIP3    H125249   1.627   3.782   0.617 -1.6720  0.9575 -0.3629
 1278TIP3    H225250   1.642   3.635   0.651  0.9176  1.5987  1.4287
 1279TIP3   OH225251   2.205   0.673   0.427  0.1281 -0.7104  0.5049
 1279TIP3    H125252   2.148   0.659   0.352  1.1801 -1.6343 -0.1364
 1279TIP3    H225253   2.201   0.768   0.443 -0.0691 -0.5005 -0.7319
 1280TIP3   OH225254   0.799   4.863  17.036  0.3242 -0.3259  0.0179
 1280TIP3    H125255   0.753   4.796  17.086  0.5138 -0.7856 -0.4221
 1280TIP3    H225256   0.741   4.939  17.038 -0.4951 -0.9344 -0.6322
 1281TIP3   OH225257   5.292   4.180   5.560 -0.1074 -0.5605  0.0809
 1281TIP3    H125258   5.300   4.212   5.470 -0.5773  0.7655  0.5010
 1281TIP3    H225259   5.219   4.117   5.557  0.8978 -1.7198 -0.7698
 1282TIP3   OH225260   4.012   2.522  16.988  0.1248  0.5160  0.4125
 1282TIP3    H125261   4.023   2.535  17.082 -1.6797 -3.2261  1.2302
 1282TIP3    H225262   3.921   2.544  16.971  0.5743  1.6700 -0.5955
 1283TIP3   OH225263   3.401   2.526  12.300  0.5011  0.0335  0.1277
 1283TIP3    H125264   3.490   2.491  12.307  0.6058  0.2221 -0.2668
 1283TIP3    H225265   3.412   2.611  12.259  0.1782  0.2521  0.4915
 1284TIP3   OH225266   5.156   1.405  11.030 -0.3822  0.6165 -0.1164
 1284TIP3    H125267   5.137   1.312  11.015 -0.8147  0.7358 -0.3330
 1284TIP3    H225268   5.251   1.411  11.025 -0.2891  0.0183  0.8899
 1285TIP3   OH225269   0.308   1.916  12.509  0.0413 -0.2823  0.0844
 1285TIP3    H125270   0.235   1.856  12.527  0.6768 -1.1846 -0.2728
 1285TIP3    H225271   0.349   1.930  12.594 -2.0396  2.2481  0.7292
 1286TIP3   OH225272   0.589   5.894  16.997  1.0000  0.0567 -0.3353
 1286TIP3    H125273   0.566   5.949  17.072  0.1793 -0.4707 -0.2017
 1286TIP3    H225274   0.658   5.943  16.952  2.5439 -0.2945  1.5922
 1287TIP3   OH225275   0.740   4.151   0.039  0.7339 -0.0844 -0.0470
 1287TIP3    H125276   0.689   4.227   0.068 -1.1575 -1.6921  1.0047
 1287TIP3    H225277   0.804   4.137   0.109 -0.9060 -1.2464  1.2810
 1288TIP3   OH225278   6.578   0.297   5.226 -0.4894  0.2682 -0.6986
 1288TIP3    H125279   6.542   0.218   5.268  0.8146  0.6843  1.2659
 1288TIP3    H225280   6.501   0.349   5.202 -1.2816 -0.2677  0.6390
 1289TIP3   OH225281   3.387   3.956   3.592 -0.5229 -0.2451 -0.0121
 1289TIP3    H125282   3.434   4.037   3.613  0.0409 -1.0751  2.0783
 1289TIP3    H225283   3.441   3.887   3.631 -1.8755 -1.4776 -0.3098
 1290TIP3   OH225284   0.182   0.246  16.771  0.0451  0.1913  0.1943
 1290TIP3    H125285   0.164   0.293  16.853 -0.5830  1.7881 -0.8239
 1290TIP3    H225286   0.098   0.206  16.748 -0.8226  2.8991 -1.5985
 1291TIP3   OH225287   1.628   4.292   3.394  0.6839 -0.1535 -0.2256
 1291TIP3    H125288   1.661   4.364   3.447  0.3187  0.3173 -0.6333
 1291TIP3    H225289   1.614   4.220   3.456  1.2761  0.0460  0.1442
 1292TIP3   OH225290   6.762   6.140  12.084 -0.2938  0.2008  0.3264
 1292TIP3    H125291   6.680   6.171  12.045 -0.7866 -1.3421  0.0949
 1292TIP3    H225292   6.793   6.214  12.136 -2.0791  0.6412  0.8056
 1293TIP3   OH225293   5.678   5.704   6.649 -0.0160 -0.0393  0.3649
 1293TIP3    H125294   5.597   5.659   6.625 -0.2818  0.8959 -0.5398
 1293TIP3    H225295   5.653   5.763   6.720 -0.0658  0.0331  0.2875
 1294TIP3   OH225296   6.031   0.834   3.252  0.0598 -0.2045  0.3969
 1294TIP3    H125297   6.036   0.768   3.321 -1.9373  0.4576  1.2069
 1294TIP3    H225298   6.097   0.899   3.276 -0.5546 -0.0314  1.6491
 1295TIP3   OH225299   0.499   4.010  16.713 -0.0883  0.1044 -0.3847
 1295TIP3    H125300   0.433   3.985  16.778  0.2980  0.4321  0.1326
 1295TIP3    H225301   0.531   4.095  16.742  0.0907  0.2495 -0.9990
 1296TIP3   OH225302   2.210   5.373  10.873 -0.1227  0.4661 -0.1506
 1296TIP3    H125303   2.265   5.450  10.860  0.7014 -0.1225 -0.1752
 1296TIP3    H225304   2.139   5.383  10.809  0.0426  1.1464 -0.2270
 1297TIP3   OH225305   3.037   4.708   5.787  0.0390  0.0585 -0.1867
 1297TIP3    H125306   2.992   4.775   5.735 -1.4826 -1.1114 -0.3992
 1297TIP3    H225307   3.130   4.728   5.775 -0.3384  0.8688 -1.9530
 1298TIP3   OH225308   4.134   5.232   5.791  0.3913 -0.5645 -0.4486
 1298TIP3    H125309   4.215   5.215   5.742 -0.0349  0.2029 -1.4366
 1298TIP3    H225310   4.134   5.166   5.860  0.5745 -2.2347 -2.0039
 1299TIP3   OH225311   0.836   5.858  13.608  0.3944  0.0838 -0.2329
 1299TIP3    H125312   0.849   5.848  13.514 -0.3309 -0.4293 -0.2872
 1299TIP3    H225313   0.825   5.769  13.641 -0.6873  0.3276  0.1248
 1300TIP3   OH225314   0.989   5.112  14.501 -0.2518  0.2814  0.2774
 1300TIP3    H125315   0.935   5.033  14.502 -1.4839  1.0942 -0.6708
 1300TIP3    H225316   0.980   5.148  14.589 -0.1223 -0.3451  0.5480
 1301TIP3   OH225317   2.354   3.043   6.296 -0.0506 -0.3686 -0.0600
 1301TIP3    H125318   2.448   3.049   6.311  0.0565  0.1851 -0.9406
 1301TIP3    H225319   2.336   3.107   6.227 -0.9353 -1.0795 -0.5071
 1302TIP3   OH225320   0.501   0.250   3.741 -0.8344  0.0365 -0.5109
 1302TIP3    H125321   0.573   0.302   3.707 -2.4923  3.0633  0.4089
 1302TIP3    H225322   0.440   0.314   3.778 -1.5937 -2.7128  3.3704
 1303TIP3   OH225323   4.583   4.597   1.207 -0.0740 -0.1692 -0.2101
 1303TIP3    H125324   4.606   4.526   1.267 -0.5758  0.7498  1.1032
 1303TIP3    H225325   4.666   4.638   1.184 -0.0366  0.7754  1.5249
 1304TIP3   OH225326   0.815   0.117  11.041 -0.5401  0.1764 -0.1720
 1304TIP3    H125327   0.755   0.045  11.063 -0.9665  0.7982  0.7315
 1304TIP3    H225328   0.791   0.142  10.952 -1.5362  0.3231  0.1296
 1305TIP3   OH225329   5.112   3.163  12.728  0.2933 -0.2586 -0.6617
 1305TIP3    H125330   5.192   3.117  12.702  0.0193 -0.2308 -1.5872
 1305TIP3    H225331   5.117   3.246  12.681 -0.0521 -0.0637 -0.3472
 1306TIP3   OH225332   2.368   1.950   5.804 -0.1558  0.6571  0.7101
 1306TIP3    H125333   2.332   2.029   5.845 -0.1641 -0.1439  2.2968
 1306TIP3    H225334   2.351   1.881   5.868 -0.2734 -0.6569 -0.7252
 1307TIP3   OH225335   1.587   2.712  12.776 -0.0133  0.3010 -0.0876
 1307TIP3    H125336   1.607   2.640  12.835  0.9983 -0.7338 -1.6620
 1307TIP3    H225337   1.601   2.791  12.829  0.8627 -0.6036  1.0515
 1308TIP3   OH225338   6.633   2.672   4.183  0.1399  0.3434 -0.2263
 1308TIP3    H125339   6.642   2.758   4.143 -2.6085  0.5978 -0.3840
 1308TIP3    H225340   6.557   2.680   4.241  0.8745 -1.5039  1.0511
 1309TIP3   OH225341   0.228   1.829  13.117  0.0813  0.3721 -0.0460
 1309TIP3    H125342   0.318   1.839  13.086 -0.0259  0.6426 -0.2679
 1309TIP3    H225343   0.233   1.759  13.182  1.0180  2.5383  2.2874
 1310TIP3   OH225344   4.115   1.795  11.559 -0.5969  0.1626 -0.0689
 1310TIP3    H125345   4.130   1.721  11.501 -0.9922  1.2136 -1.5515
 1310TIP3    H225346   4.026   1.782  11.593 -0.8748  0.2085 -0.7521
 1311TIP3   OH225347   0.457   0.369  12.702  0.5140  0.2104  0.5812
 1311TIP3    H125348   0.460   0.319  12.783 -0.7720 -0.7253  0.0710
 1311TIP3    H225349   0.412   0.312  12.640  2.5961  0.4034 -1.1772
 1312TIP3   OH225350   5.278   3.572  12.394  0.0352 -0.0244 -0.0804
 1312TIP3    H125351   5.364   3.556  12.355  0.0801  1.0893 -0.4357
 1312TIP3    H225352   5.226   3.610  12.324 -0.9817 -1.3624 -0.0735
 1313TIP3   OH225353   0.687   2.694  13.013  0.0343 -0.4635  0.5617
 1313TIP3    H125354   0.745   2.630  13.055 -1.3761 -1.1796  1.4590
 1313TIP3    H225355   0.747   2.757  12.971  1.4594 -0.4975  2.4929
 1314TIP3   OH225356   2.978   1.963   2.192  0.4727 -0.1572  0.4633
 1314TIP3    H125357   3.006   1.872   2.181  1.4789  0.0405  1.2820
 1314TIP3    H225358   2.985   1.979   2.286  0.3313  0.7723  0.3227
 1315TIP3   OH225359   1.268   4.180  15.795 -0.3913  0.3414 -0.3719
 1315TIP3    H125360   1.198   4.179  15.861 -0.5690 -1.4563 -0.5579
 1315TIP3    H225361   1.335   4.121  15.831  0.2815  0.7279 -0.9915
 1316TIP3   OH225362   6.698   6.445   2.891 -0.0562  0.1892 -0.3219
 1316TIP3    H125363   6.676   6.358   2.927 -1.5814  0.3787 -0.7582
 1316TIP3    H225364   6.772   6.474   2.944  2.4039 -2.6236 -2.0819
 1317TIP3   OH225365   0.740   4.636   2.065  0.4888  0.0548 -0.1201
 1317TIP3    H125366   0.681   4.637   1.989 -0.7508 -1.6388  0.7888
 1317TIP3    H225367   0.704   4.702   2.124 -0.2260 -0.6248  0.2151
 1318TIP3   OH225368   2.984   0.933   3.578 -0.0508 -0.0393  0.0416
 1318TIP3    H125369   3.071   0.971   3.575  0.2810 -0.8443 -0.9133
 1318TIP3    H225370   2.986   0.872   3.652 -0.0439  0.5066  0.4911
 1319TIP3   OH225371   0.554   6.570  13.844  0.4222  0.7086  0.2175
 1319TIP3    H125372   0.587   6.616  13.921  2.0408  2.2006 -1.3195
 1319TIP3    H225373   0.616   6.499  13.830  1.4937  1.8610 -1.0589
 1320TIP3   OH225374   0.831   4.485   5.520 -0.3163  0.4465 -0.0611
 1320TIP3    H125375   0.860   4.564   5.565 -1.4320 -0.7239  2.8491
 1320TIP3    H225376   0.883   4.415   5.558 -0.3810 -0.4231 -1.5378
 1321TIP3   OH225377   2.434   0.686   5.971 -0.6347 -0.2116  0.6908
 1321TIP3    H125378   2.498   0.712   5.905  0.2889  0.8279  1.9689
 1321TIP3    H225379   2.350   0.715   5.937 -0.3370 -0.8586 -0.6197
 1322TIP3   OH225380   2.448   6.456  12.891  0.1749  0.6889 -0.2158
 1322TIP3    H125381   2.539   6.478  12.872  0.1034  1.6811  0.5480
 1322TIP3    H225382   2.445   6.360  12.883  1.1028  0.7037 -0.9728
 1323TIP3   OH225383   4.780   4.746  16.892  0.2389 -0.4291 -0.4587
 1323TIP3    H125384   4.798   4.834  16.923 -0.3658 -0.3701 -0.2722
 1323TIP3    H225385   4.786   4.691  16.969  0.3450 -0.5115 -0.5231
 1324TIP3   OH225386   4.406   2.162  13.308 -0.1219  0.1703  0.1998
 1324TIP3    H125387   4.422   2.244  13.261 -0.7290 -0.5151 -1.2236
 1324TIP3    H225388   4.494   2.125  13.322  0.2504  1.6041  1.8946
 1325TIP3   OH225389   4.677   0.012   2.796 -0.0110 -0.0500  0.0940
 1325TIP3    H125390   4.705   0.006   2.888 -1.0066  0.4555  0.4309
 1325TIP3    H225391   4.743   0.068   2.755  0.9011 -0.9371  0.3026
 1326TIP3   OH225392   0.449   5.214   2.815  0.2417  0.0279  0.0276
 1326TIP3    H125393   0.541   5.240   2.802  0.2421  0.7462  1.4173
 1326TIP3    H225394   0.411   5.216   2.727  1.7026 -0.8551 -0.6467
 1327TIP3   OH225395   1.889   1.549  14.812 -0.1261  0.4733  0.2683
 1327TIP3    H125396   1.903   1.494  14.735  0.0067  0.5901  0.2103
 1327TIP3    H225397   1.975   1.556  14.853 -0.2346  0.2505  0.5345
 1328TIP3   OH225398   4.444   3.823   2.107  0.1273 -0.7092 -0.0288
 1328TIP3    H125399   4.533   3.789   2.098  0.2043 -0.1706 -1.4246
 1328TIP3    H225400   4.396   3.753   2.151  1.3602 -0.7918  1.2004
 1329TIP3   OH225401   1.661   0.821   1.594  0.0509 -0.0707 -0.6085
 1329TIP3    H125402   1.585   0.768   1.617  0.3569  0.6651  2.3694
 1329TIP3    H225403   1.626   0.893   1.542 -1.4045  0.6076  1.2569
 1330TIP3   OH225404   1.650   5.201   6.555 -0.0646  0.0271 -0.7126
 1330TIP3    H125405   1.711   5.272   6.532  1.2774 -0.6017  0.7756
 1330TIP3    H225406   1.567   5.245   6.569  0.6575  1.2607 -0.2237
 1331TIP3   OH225407   2.229   2.349   2.990  0.0213 -0.1912 -0.4285
 1331TIP3    H125408   2.158   2.412   2.986 -1.1228 -1.3400  1.2917
 1331TIP3    H225409   2.270   2.364   3.076  0.9960 -0.4444 -0.8386
 1332TIP3   OH225410   5.085   4.332  13.547  0.2873  0.4325 -0.0472
 1332TIP3    H125411   5.096   4.290  13.462  0.0694  1.6869 -0.7205
 1332TIP3    H225412   5.096   4.262  13.611 -1.5342 -0.9222 -1.1828
 1333TIP3   OH225413   5.324   6.384  13.986 -0.5108  0.3068 -0.5144
 1333TIP3    H125414   5.360   6.471  13.971 -0.2262  0.0526 -1.3245
 1333TIP3    H225415   5.398   6.325  13.972 -1.2258 -0.2243 -2.1945
 1334TIP3   OH225416   4.168   2.942  13.255  1.0422 -0.6110 -0.6356
 1334TIP3    H125417   4.256   2.938  13.291  0.8160 -1.1107 -0.1181
 1334TIP3    H225418   4.150   2.852  13.226  0.3263 -0.7505  0.1983
 1335TIP3   OH225419   2.497   4.214   0.429  0.4451  0.5561 -0.1583
 1335TIP3    H125420   2.475   4.284   0.367  0.6924  1.7095  1.0319
 1335TIP3    H225421   2.413   4.191   0.469  0.2852 -0.1905 -0.8992
 1336TIP3   OH225422   2.305   0.814   4.618 -0.1543 -0.4922  0.2342
 1336TIP3    H125423   2.333   0.737   4.569  0.2968  0.1256 -0.4778
 1336TIP3    H225424   2.210   0.817   4.606 -0.0477 -0.3525 -0.5855
 1337TIP3   OH225425   2.212   0.595  10.785 -0.1382 -0.3466  0.3405
 1337TIP3    H125426   2.160   0.637  10.853 -2.1298 -1.3858 -0.5055
 1337TIP3    H225427   2.222   0.661  10.717 -0.0806 -0.0585  0.6257
 1338TIP3   OH225428   1.481   1.746   5.113  0.2448 -0.0417  0.2663
 1338TIP3    H125429   1.537   1.802   5.166  1.3445 -1.4155  0.5958
 1338TIP3    H225430   1.498   1.657   5.146 -0.3375 -0.7267 -1.2357
 1339TIP3   OH225431   5.180   1.772   2.152 -0.0594 -0.7649 -0.1595
 1339TIP3    H125432   5.173   1.688   2.105 -0.9064  0.0094 -1.4653
 1339TIP3    H225433   5.094   1.812   2.141 -0.4110 -0.7479  2.4780
 1340TIP3   OH225434   3.967   6.027  13.770 -0.7282  0.1720 -0.3065
 1340TIP3    H125435   3.973   6.089  13.698 -0.2432  1.9746  1.2157
 1340TIP3    H225436   4.027   6.063  13.836 -0.8050 -1.6792  0.7912
 1341TIP3   OH225437   0.066   5.427   1.531  0.3458  0.5786  0.3991
 1341TIP3    H125438   0.003   5.447   1.601  1.2324  0.2058  1.3112
 1341TIP3    H225439   0.152   5.431   1.574  1.0705  2.6464 -1.1881
 1342TIP3   OH225440   4.198   1.646   1.883 -0.4492 -0.1609  0.0650
 1342TIP3    H125441   4.166   1.735   1.873 -0.5111 -0.1629  0.2422
 1342TIP3    H225442   4.277   1.642   1.828 -0.7845 -0.1740 -0.4153
 1343TIP3   OH225443   3.774   2.691  14.876 -0.3026  0.6039  0.4660
 1343TIP3    H125444   3.727   2.673  14.958  0.2675 -0.4568  0.5674
 1343TIP3    H225445   3.705   2.714  14.814 -0.9308 -0.5722  0.7154
 1344TIP3   OH225446   0.339   1.995   5.504 -0.2160  0.3412  0.0773
 1344TIP3    H125447   0.338   1.903   5.532 -2.1422  0.7590  1.4595
 1344TIP3    H225448   0.341   1.991   5.409  2.1746 -1.1216  0.1361
 1345TIP3   OH225449   4.550   4.957  16.835  0.4669  0.0912 -0.1499
 1345TIP3    H125450   4.614   4.886  16.842 -0.0486 -0.5780 -1.9597
 1345TIP3    H225451   4.473   4.926  16.883  0.6049 -0.1472 -0.0834
 1346TIP3   OH225452   3.155   6.349  15.982  0.2451  0.5021  0.1445
 1346TIP3    H125453   3.104   6.430  15.974  0.3579  0.6859  1.2330
 1346TIP3    H225454   3.219   6.354  15.911 -1.6312 -0.0259 -1.6519
 1347TIP3   OH225455   0.794   2.414  14.815 -0.1893 -0.0687  0.1052
 1347TIP3    H125456   0.797   2.480  14.746 -0.4932  2.1675  2.1400
 1347TIP3    H225457   0.775   2.464  14.895  0.6179 -2.4983  1.8881
 1348TIP3   OH225458   3.227   0.166  12.751  0.1797  0.3511  0.1086
 1348TIP3    H125459   3.269   0.252  12.758  1.9848 -0.5196  0.4590
 1348TIP3    H225460   3.291   0.105  12.788 -1.0561 -1.1552 -0.1563
 1349TIP3   OH225461   5.880   0.813   1.051  0.5497  0.3535 -0.2002
 1349TIP3    H125462   5.919   0.737   1.007 -0.5403 -1.2140  1.4829
 1349TIP3    H225463   5.894   0.797   1.144 -1.5008  1.2335  0.2884
 1350TIP3   OH225464   6.759   6.290   1.659 -0.4426  0.2716 -0.3270
 1350TIP3    H125465   6.668   6.273   1.633  0.5088 -1.9420 -2.4562
 1350TIP3    H225466   6.756   6.298   1.755 -2.8401  0.0124 -0.3568
 1351TIP3   OH225467   0.421   6.084   6.033 -0.3544 -0.4143 -0.9480
 1351TIP3    H125468   0.349   6.063   6.094 -0.9237  2.2371 -0.6303
 1351TIP3    H225469   0.491   6.118   6.090  0.0965 -0.3890 -1.5188
 1352TIP3   OH225470   6.578   2.875  13.441  0.1244 -0.2447 -0.1024
 1352TIP3    H125471   6.610   2.908  13.356 -0.6809  2.4965  0.6082
 1352TIP3    H225472   6.652   2.826  13.476  1.0322 -0.0812 -1.7007
 1353TIP3   OH225473   4.294   5.572  14.221 -0.5806  0.3429 -0.2849
 1353TIP3    H125474   4.252   5.551  14.137  2.2832  2.3279 -2.3317
 1353TIP3    H225475   4.346   5.650  14.202  1.5021 -0.1851  2.9483
 1354TIP3   OH225476   2.313   0.001  16.881 -0.5112 -0.4987  0.2125
 1354TIP3    H125477   2.253   0.064  16.921  0.0405  2.0362 -2.7093
 1354TIP3    H225478   2.390   0.054  16.859  1.1079 -2.8293  0.1374
 1355TIP3   OH225479   4.233   4.465  10.326  0.4464  0.2695  0.2394
 1355TIP3    H125480   4.229   4.442  10.233 -0.9501 -2.2611  0.8480
 1355TIP3    H225481   4.326   4.475  10.344  0.7311  0.9170 -1.4491
 1356TIP3   OH225482   2.744   3.532  13.772  0.3241 -0.0086  0.4694
 1356TIP3    H125483   2.835   3.549  13.749 -0.0440 -0.2925 -1.2455
 1356TIP3    H225484   2.749   3.493  13.860  1.7403  1.2261  0.9664
 1357TIP3   OH225485   1.040   2.375   1.107 -0.6049 -0.4349 -0.1391
 1357TIP3    H125486   0.950   2.345   1.101 -0.8477 -0.1252  1.8407
 1357TIP3    H225487   1.087   2.303   1.148 -0.0548 -0.3463 -0.6030
 1358TIP3   OH225488   3.243   4.537  11.535  0.1045 -0.4433  0.0425
 1358TIP3    H125489   3.246   4.576  11.448  0.9495 -0.7401 -0.0666
 1358TIP3    H225490   3.156   4.498  11.541 -0.5033  0.8538 -0.1044
 1359TIP3   OH225491   4.060   0.079  13.089  0.1894 -0.3777 -0.6101
 1359TIP3    H125492   3.971   0.086  13.056  0.6280  0.8671 -1.5578
 1359TIP3    H225493   4.086   0.169  13.109  1.4244 -0.6736 -0.8415
 1360TIP3   OH225494   2.200   6.243   2.563 -0.2297 -0.2409  0.2165
 1360TIP3    H125495   2.276   6.193   2.535 -0.2570 -0.2034  0.0756
 1360TIP3    H225496   2.208   6.248   2.658  0.1610  0.1197  0.1643
 1361TIP3   OH225497   2.654   1.903  12.870  0.0381 -0.4111  0.2824
 1361TIP3    H125498   2.738   1.918  12.914 -1.3354  0.7984  2.5788
 1361TIP3    H225499   2.660   1.953  12.788  1.3429  0.1169  0.6972
 1362TIP3   OH225500   0.818   6.024   1.982  0.5256  0.0636  0.4163
 1362TIP3    H125501   0.890   6.068   2.026  1.1928 -1.5102  0.9344
 1362TIP3    H225502   0.859   5.950   1.936 -0.2825  1.0726 -2.0453
 1363TIP3   OH225503   5.261   6.205   6.159  0.0782  0.4365  0.4681
 1363TIP3    H125504   5.320   6.172   6.226 -0.6105 -0.3734  0.6877
 1363TIP3    H225505   5.180   6.225   6.206 -0.2318  0.3765 -0.0327
 1364TIP3   OH225506   0.214   2.113  12.282  0.1464  1.0487  0.1389
 1364TIP3    H125507   0.139   2.141  12.334  0.0336 -0.0374  0.5863
 1364TIP3    H225508   0.261   2.052  12.339  0.3723  0.3370 -0.7981
 1365TIP3   OH225509   5.385   1.017  15.232 -0.3263  0.7132  0.5233
 1365TIP3    H125510   5.306   0.966  15.249 -1.3152  2.0801  0.2085
 1365TIP3    H225511   5.433   1.017  15.315  0.7748 -2.4858 -0.0673
 1366TIP3   OH225512   3.757   1.393  11.796  0.7290 -0.4054  0.1710
 1366TIP3    H125513   3.824   1.370  11.861  0.4436 -0.3615  0.4806
 1366TIP3    H225514   3.680   1.345  11.823  0.6455 -0.4885 -0.2134
 1367TIP3   OH225515   0.874   5.432  13.890 -0.3740  0.5110  0.3972
 1367TIP3    H125516   0.958   5.433  13.935 -0.7555  1.5109  1.0961
 1367TIP3    H225517   0.840   5.343  13.905  0.5425  0.1092  0.1152
 1368TIP3   OH225518   2.906   2.134  11.585  0.0628 -0.6562  0.5173
 1368TIP3    H125519   2.854   2.196  11.638 -0.4163 -1.0199  0.4741
 1368TIP3    H225520   2.858   2.128  11.502  0.8152 -0.0871  0.0370
 1369TIP3   OH225521   5.009   6.512  16.042 -0.4153 -0.0559 -0.1407
 1369TIP3    H125522   4.980   6.581  15.983 -1.7763  0.9473  1.6419
 1369TIP3    H225523   5.062   6.453  15.988 -0.8470  1.3472 -2.1003
 1370TIP3   OH225524   2.160   4.533   5.379 -0.1586  0.2173 -0.1776
 1370TIP3    H125525   2.112   4.461   5.419 -1.7400  0.5102 -1.4875
 1370TIP3    H225526   2.217   4.566   5.448  0.7726 -2.4571  0.3446
 1371TIP3   OH225527   5.730   4.080   5.274 -0.1493  0.2200 -0.4769
 1371TIP3    H125528   5.640   4.053   5.255  0.1505  0.1225 -1.8116
 1371TIP3    H225529   5.730   4.175   5.260 -0.3124  0.3842  0.6170
 1372TIP3   OH225530   4.340   6.577  15.946 -0.1524 -0.0892 -0.1529
 1372TIP3    H125531   4.376   6.537  16.026 -0.0513 -1.4138 -0.8536
 1372TIP3    H225532   4.306   6.504  15.895 -0.6065  0.7948 -1.1431
 1373TIP3   OH225533   4.466   6.224   3.347  0.3466  0.2683  0.5892
 1373TIP3    H125534   4.413   6.214   3.268  1.1150  1.4639 -0.0962
 1373TIP3    H225535   4.486   6.134   3.374  0.1315 -0.1503 -0.6143
 1374TIP3   OH225536   1.137   5.925   3.152  0.1901  0.1207  0.2695
 1374TIP3    H125537   1.120   5.889   3.238  1.0517 -1.5790 -0.2595
 1374TIP3    H225538   1.050   5.943   3.116 -0.1618  1.0678  1.5701
 1375TIP3   OH225539   3.867   6.090  14.884  0.5329  0.1469 -0.2977
 1375TIP3    H125540   3.783   6.087  14.839 -0.0353  2.4501  0.5467
 1375TIP3    H225541   3.930   6.107  14.814 -0.0943  1.6190 -0.5192
 1376TIP3   OH225542   6.688   2.247  14.992 -0.4554 -0.2441  0.7487
 1376TIP3    H125543   6.736   2.186  15.049  0.0671  0.5483  1.1582
 1376TIP3    H225544   6.755   2.303  14.955 -0.9827  0.3447  0.6834
 1377TIP3   OH225545   1.664   1.018  15.957 -0.2235  0.2898 -0.4099
 1377TIP3    H125546   1.722   1.090  15.933 -0.0683  0.3566  0.1581
 1377TIP3    H225547   1.583   1.060  15.986 -1.5825  0.1177 -3.8440
 1378TIP3   OH225548   4.984   0.857  14.830 -0.2626 -0.5415 -0.1381
 1378TIP3    H125549   4.912   0.861  14.766 -1.3832 -0.0863  1.1336
 1378TIP3    H225550   4.945   0.817  14.907  0.8067 -0.1010  0.6367
 1379TIP3   OH225551   1.845   1.377  11.501 -0.0345 -0.0251 -0.4230
 1379TIP3    H125552   1.853   1.471  11.518  0.0584  0.1478 -1.3539
 1379TIP3    H225553   1.756   1.366  11.467  0.9899  0.2342 -3.3064
 1380TIP3   OH225554   4.528   1.885   0.791  0.0129  0.3414  0.0340
 1380TIP3    H125555   4.619   1.879   0.761 -0.3552 -0.2780 -1.0002
 1380TIP3    H225556   4.531   1.859   0.883  1.1173  1.9440  0.4734
 1381TIP3   OH225557   4.031   3.538   5.716  0.1240 -0.2676 -0.4403
 1381TIP3    H125558   4.075   3.558   5.634 -0.0332  0.8488 -0.2556
 1381TIP3    H225559   4.081   3.586   5.782  1.0018 -2.1272  0.2901
 1382TIP3   OH225560   2.914   2.959  11.658  0.7363 -0.1979 -0.6373
 1382TIP3    H125561   2.857   3.026  11.696  1.1229  0.9371 -2.0060
 1382TIP3    H225562   2.913   2.888  11.722 -0.6823  0.5924  0.2539
 1383TIP3   OH225563   2.639   6.172   0.068  0.1210  0.0427  0.0443
 1383TIP3    H125564   2.617   6.226  -0.008  0.8001 -0.4665 -0.5250
 1383TIP3    H225565   2.618   6.227   0.143 -0.8277  0.4412 -0.5101
 1384TIP3   OH225566   3.128   4.314   1.233  0.2713  0.2455 -0.1354
 1384TIP3    H125567   3.049   4.318   1.287  0.8336 -0.3824  0.7451
 1384TIP3    H225568   3.164   4.403   1.236  0.8496 -0.0366  1.3615
 1385TIP3   OH225569   2.518   0.315   4.304  0.4530 -0.5913 -0.1335
 1385TIP3    H125570   2.582   0.384   4.321  1.0255 -0.5661 -2.2480
 1385TIP3    H225571   2.443   0.360   4.267  0.4256 -0.9937 -0.5656
 1386TIP3   OH225572   4.188   6.620  14.528 -0.0151 -0.1417 -0.4362
 1386TIP3    H125573   4.237   6.576  14.458 -1.8758 -1.0382 -1.1894
 1386TIP3    H225574   4.196   6.714  14.507  0.1597 -0.3544 -1.3481
 1387TIP3   OH225575   4.651   5.078   1.625  0.0566  0.1789 -0.1828
 1387TIP3    H125576   4.612   5.083   1.712 -0.4406  1.1100 -0.4586
 1387TIP3    H225577   4.615   5.153   1.577  0.7477 -0.0084 -1.0202
 1388TIP3   OH225578   6.779   3.417  15.034 -0.2233  0.1620  0.3745
 1388TIP3    H125579   6.750   3.332  15.067 -1.7153  0.3721 -0.3511
 1388TIP3    H225580   6.718   3.437  14.963  0.7507  1.3645 -0.1334
 1389TIP3   OH225581   0.435   4.167  15.463  0.8022 -0.2883 -0.3320
 1389TIP3    H125582   0.476   4.195  15.381 -0.3351 -1.2232 -1.2331
 1389TIP3    H225583   0.422   4.073  15.453 -1.3905 -0.0484 -0.0041
 1390TIP3   OH225584   0.640   4.665  12.562  0.1056  0.4501 -0.0348
 1390TIP3    H125585   0.602   4.648  12.648 -1.9356  1.0848 -0.7811
 1390TIP3    H225586   0.627   4.583  12.514  0.7832  0.2657  0.0966
 1391TIP3   OH225587   5.279   4.118  11.977 -0.2805  0.7675  0.4291
 1391TIP3    H125588   5.345   4.057  12.009 -1.3546  0.2250  1.6992
 1391TIP3    H225589   5.324   4.172  11.912  1.2428  0.0362  0.8672
 1392TIP3   OH225590   4.288   0.368   0.223 -0.1752 -0.0164 -0.1754
 1392TIP3    H125591   4.235   0.387   0.300  1.0167  1.4765  0.2906
 1392TIP3    H225592   4.297   0.273   0.222 -0.4596 -0.0616  1.3428
 1393TIP3   OH225593   5.367   5.682  16.335 -0.1910  0.7418 -0.6826
 1393TIP3    H125594   5.275   5.687  16.309 -0.0056  2.0256 -1.1560
 1393TIP3    H225595   5.372   5.607  16.395 -1.5598  0.7368 -0.5700
 1394TIP3   OH225596   4.973   6.694  10.649 -0.3329  0.4653 -0.2206
 1394TIP3    H125597   4.978   6.670  10.556  0.2217  0.0099 -0.0791
 1394TIP3    H225598   4.931   6.618  10.691  0.7936  0.0334  0.1284
 1395TIP3   OH225599   6.609   5.650   1.351 -0.1565  0.0807 -0.4900
 1395TIP3    H125600   6.549   5.695   1.410 -1.0522 -2.4008  0.5778
 1395TIP3    H225601   6.616   5.707   1.275 -0.8051  2.2447  1.0344
 1396TIP3   OH225602   6.364   5.388  11.586 -0.2484 -0.4306 -0.2196
 1396TIP3    H125603   6.298   5.439  11.539 -1.1301 -0.5461  0.8693
 1396TIP3    H225604   6.445   5.439  11.577 -0.5180 -0.2046 -1.4191
 1397TIP3   OH225605   3.236   6.007  12.124  0.0826 -0.1324  0.3495
 1397TIP3    H125606   3.267   6.080  12.178 -0.2570  0.2825 -0.0153
 1397TIP3    H225607   3.142   6.002  12.142 -0.1222  0.3240 -0.5769
 1398TIP3   OH225608   5.479   1.919  15.105  0.6592 -0.1546 -0.5967
 1398TIP3    H125609   5.403   1.969  15.074  1.9008  1.4130 -1.1708
 1398TIP3    H225610   5.519   1.884  15.026  0.6706 -0.8152 -0.3057
 1399TIP3   OH225611   3.598   2.047  12.856  0.2934 -0.0035 -0.1491
 1399TIP3    H125612   3.541   2.001  12.918 -0.4974  2.5397  1.0518
 1399TIP3    H225613   3.540   2.076  12.786  0.7165 -0.4044 -0.6742
 1400TIP3   OH225614   3.622   2.069   1.460  0.1979 -0.5704 -0.8991
 1400TIP3    H125615   3.535   2.029   1.463 -0.4740  0.8883  0.1458
 1400TIP3    H225616   3.682   1.999   1.484 -0.5604 -1.9254 -2.8493
 1401TIP3   OH225617   4.082   2.464   0.177  0.2181 -0.1238 -0.1579
 1401TIP3    H125618   4.030   2.504   0.107 -0.0755  0.4702  0.4011
 1401TIP3    H225619   4.043   2.496   0.258  0.2951 -1.1393  0.2893
 1402TIP3   OH225620   1.961   0.533  14.174  0.1979  0.0735  0.3410
 1402TIP3    H125621   1.907   0.502  14.102 -0.9939  1.6302  0.5189
 1402TIP3    H225622   1.900   0.547  14.246  0.3143  4.3354 -0.2325
 1403TIP3   OH225623   6.524   3.539   0.966  0.2878 -0.0933  0.5437
 1403TIP3    H125624   6.431   3.540   0.946 -0.3979  1.3439  3.6373
 1403TIP3    H225625   6.539   3.455   1.009  0.9118 -1.2745 -1.8620
 1404TIP3   OH225626   3.588   4.911   1.861  0.1304  0.0060  0.2633
 1404TIP3    H125627   3.676   4.933   1.832 -0.6944  1.6538 -1.1009
 1404TIP3    H225628   3.560   4.841   1.802 -0.4988  1.4256 -1.1625
 1405TIP3   OH225629   0.142   4.130  16.907 -0.1736 -0.0727 -0.3044
 1405TIP3    H125630   0.050   4.130  16.931  0.4947  0.9665  2.5232
 1405TIP3    H225631   0.172   4.220  16.924  1.2651 -0.3050 -1.4925
 1406TIP3   OH225632   6.465   3.793   0.158  0.1897 -0.2949 -0.0216
 1406TIP3    H125633   6.401   3.724   0.143 -0.3830  0.0206  0.9798
 1406TIP3    H225634   6.518   3.761   0.231  1.8294 -1.0031 -1.4565
 1407TIP3   OH225635   1.771   1.007   6.784 -0.2223  0.1379  0.8616
 1407TIP3    H125636   1.706   1.075   6.769 -0.0463  0.2463  0.5973
 1407TIP3    H225637   1.780   0.962   6.700 -1.6254 -1.3480  1.4794
 1408TIP3   OH225638   0.402   4.253  12.869 -0.0501 -0.2054 -0.0306
 1408TIP3    H125639   0.439   4.172  12.835 -1.4179 -0.8865  0.0862
 1408TIP3    H225640   0.325   4.269  12.815 -0.4718  0.3781  0.7270
 1409TIP3   OH225641   1.626   3.293   0.410 -0.2095  0.0355 -0.2020
 1409TIP3    H125642   1.647   3.262   0.322  0.0204  0.6719 -0.3779
 1409TIP3    H225643   1.685   3.368   0.423 -0.6625  0.3146  0.2576
 1410TIP3   OH225644   0.470   4.910   6.552  0.2954  0.2246  0.4737
 1410TIP3    H125645   0.565   4.898   6.555  0.2593 -0.3904 -0.4927
 1410TIP3    H225646   0.450   4.925   6.459 -0.7009 -1.0206  0.4649
 1411TIP3   OH225647   0.274   2.100   2.465  0.1510 -0.1511 -0.4852
 1411TIP3    H125648   0.356   2.109   2.513 -0.4127  1.1853  0.2608
 1411TIP3    H225649   0.206   2.110   2.531 -0.6409  1.7476 -1.5225
 1412TIP3   OH225650   1.716   0.135  16.882 -0.1071 -0.0917 -0.4075
 1412TIP3    H125651   1.789   0.078  16.860  0.1862 -0.2030  0.8169
 1412TIP3    H225652   1.757   0.211  16.923 -0.5308  0.7757 -1.5594
 1413TIP3   OH225653   4.810   3.445  14.633  0.2335 -0.0867  0.5870
 1413TIP3    H125654   4.896   3.405  14.646  0.7228  0.4263 -0.9065
 1413TIP3    H225655   4.827   3.539  14.637 -0.0045  0.0412 -1.0999
 1414TIP3   OH225656   1.771   4.165  12.920 -0.8147  0.4989 -0.4976
 1414TIP3    H125657   1.828   4.089  12.913 -0.1487  0.9673 -0.2197
 1414TIP3    H225658   1.708   4.142  12.988  1.5575  1.5475  2.1688
 1415TIP3   OH225659   6.149   4.104   5.308 -0.4053 -0.5403  0.9706
 1415TIP3    H125660   6.231   4.082   5.351 -0.8417 -0.0197  2.1044
 1415TIP3    H225661   6.118   4.182   5.355  0.5934  1.9089 -2.2603
 1416TIP3   OH225662   0.911   5.486  14.235 -0.5863  0.1429 -0.5231
 1416TIP3    H125663   0.988   5.433  14.255 -1.0974 -1.2379 -2.0878
 1416TIP3    H225664   0.843   5.422  14.213 -1.3456  1.4167 -2.0049
 1417TIP3   OH225665   4.940   2.023   1.058  0.0616  0.5322  0.2558
 1417TIP3    H125666   4.933   1.936   1.098 -0.3396  0.3516 -0.2002
 1417TIP3    H225667   4.851   2.058   1.060 -0.2783 -0.1088 -1.8673
 1418TIP3   OH225668   0.027   2.013   5.096  0.3489 -0.2804 -0.2424
 1418TIP3    H125669  -0.030   2.006   5.172 -1.2985 -0.9927 -1.4989
 1418TIP3    H225670   0.080   1.933   5.099  0.0877 -0.4475  0.0092
 1419TIP3   OH225671   5.055   6.257  16.500  0.5378 -0.5411  0.2499
 1419TIP3    H125672   5.106   6.228  16.576  0.9242  0.4718  0.3877
 1419TIP3    H225673   5.121   6.271  16.432  0.2482 -0.9223 -0.1100
 1420TIP3   OH225674   3.462   3.852  14.772  0.2832 -0.4496  0.1000
 1420TIP3    H125675   3.400   3.904  14.720 -0.3439 -0.7182  0.5826
 1420TIP3    H225676   3.516   3.918  14.816 -2.1922 -0.1072  2.7881
 1421TIP3   OH225677   6.701   0.843   1.037 -0.7988  0.4743  0.1907
 1421TIP3    H125678   6.678   0.883   1.120 -0.4741  1.3000 -0.1171
 1421TIP3    H225679   6.684   0.910   0.971 -2.5366 -0.6823 -0.5874
 1422TIP3   OH225680   3.203   3.791   0.985 -0.2328 -0.4952 -0.2145
 1422TIP3    H125681   3.226   3.767   0.895 -0.3763 -1.0351 -0.1118
 1422TIP3    H225682   3.272   3.852   1.012 -0.2993 -0.1761 -0.7581
 1423TIP3   OH225683   1.422   0.198   1.566  0.1997 -0.5589 -0.0369
 1423TIP3    H125684   1.458   0.233   1.648  1.1146  0.3784 -0.8303
 1423TIP3    H225685   1.357   0.133   1.594  1.6864 -1.4519  1.4451
 1424TIP3   OH225686   0.582   3.215  11.295  0.9165  0.2151 -0.4192
 1424TIP3    H125687   0.580   3.155  11.370  0.8680 -0.6332 -1.0833
 1424TIP3    H225688   0.639   3.286  11.323 -0.6574  0.9132  1.1599
 1425TIP3   OH225689   3.670   1.519   5.708  0.2097 -0.1137 -0.6139
 1425TIP3    H125690   3.630   1.600   5.739 -0.8499 -0.6205 -0.6514
 1425TIP3    H225691   3.703   1.540   5.621 -1.3891 -0.1365 -1.2329
 1426TIP3   OH225692   1.637   1.893  16.827 -0.0936  0.5502 -1.1807
 1426TIP3    H125693   1.613   1.950  16.754 -1.0011 -0.1986 -1.4832
 1426TIP3    H225694   1.576   1.819  16.820  1.5331 -0.8328 -1.2622
 1427TIP3   OH225695   2.449   1.191   0.123 -0.7794  0.3296 -0.4781
 1427TIP3    H125696   2.504   1.151   0.056 -0.2594 -0.6027  0.4940
 1427TIP3    H225697   2.489   1.277   0.139  0.8336 -0.6193  0.7233
 1428TIP3   OH225698   4.920   2.452   6.056  0.0956 -0.0855 -0.0848
 1428TIP3    H125699   4.904   2.363   6.087  1.8484 -0.8201 -1.2358
 1428TIP3    H225700   4.919   2.446   5.961  0.7069  1.0204 -0.1741
 1429TIP3   OH225701   2.139   4.286  11.395  0.5108  0.5520 -0.2754
 1429TIP3    H125702   2.113   4.194  11.389  0.7401  0.4237  0.6484
 1429TIP3    H225703   2.117   4.322  11.309  2.1094 -0.7907 -1.2813
 1430TIP3   OH225704   1.008   1.953   0.565 -0.0633 -0.2596  0.4314
 1430TIP3    H125705   0.926   1.999   0.547  0.4845  0.1605 -1.0997
 1430TIP3    H225706   0.982   1.863   0.585 -0.9178 -0.0170  0.4222
 1431TIP3   OH225707   5.112   0.128   0.806  0.0223  0.0276  0.5719
 1431TIP3    H125708   5.135   0.221   0.808 -1.2404  0.3355  0.6313
 1431TIP3    H225709   5.136   0.099   0.718 -0.0139  0.5195  0.3984
 1432TIP3   OH225710   2.476   3.307   0.992 -0.1438  0.8648 -0.2210
 1432TIP3    H125711   2.391   3.300   1.036 -0.2569  1.0820 -0.4068
 1432TIP3    H225712   2.537   3.332   1.062 -0.2527  0.8235 -0.1102
 1433TIP3   OH225713   3.889   6.653  12.951 -0.5335  0.0531  0.2818
 1433TIP3    H125714   3.911   6.579  13.008  0.1001 -1.5278 -1.9072
 1433TIP3    H225715   3.816   6.621  12.898  1.1716  0.1064 -2.2231
 1434TIP3   OH225716   1.880   5.640   0.400 -0.0246 -0.1486 -0.0247
 1434TIP3    H125717   1.887   5.552   0.438 -0.5141 -0.0727  0.2625
 1434TIP3    H225718   1.790   5.666   0.421  0.3966  0.7660  0.6621
 1435TIP3   OH225719   4.018   5.210  14.287  0.7082  0.3338  0.5908
 1435TIP3    H125720   4.107   5.211  14.322  0.6374 -2.3626  0.9355
 1435TIP3    H225721   4.001   5.301  14.262  3.1075  1.1039  1.6262
 1436TIP3   OH225722   4.929   2.913  12.547  0.3516 -0.0291 -0.0458
 1436TIP3    H125723   4.942   2.818  12.545 -0.9912 -0.2956  2.2865
 1436TIP3    H225724   4.934   2.936  12.639  1.6510  2.3528 -0.6669
 1437TIP3   OH225725   0.148   4.552  16.083 -0.1180 -0.1109 -0.2414
 1437TIP3    H125726   0.082   4.607  16.125 -0.0234  0.9873 -1.5112
 1437TIP3    H225727   0.113   4.536  15.995  2.3549  2.4113 -1.7527
 1438TIP3   OH225728   5.432   2.895   6.007 -0.2201  0.6481 -0.1593
 1438TIP3    H125729   5.348   2.915   6.049 -0.4063  1.6140 -0.9735
 1438TIP3    H225730   5.492   2.963   6.040  0.5784 -0.7605  1.3864
 1439TIP3   OH225731   4.293   6.655   4.620  0.1527 -0.3466 -0.1140
 1439TIP3    H125732   4.267   6.599   4.546 -0.6719 -0.3804  0.2013
 1439TIP3    H225733   4.253   6.740   4.601 -0.0805 -0.3626  0.3041
 1440TIP3   OH225734   1.219   3.879   4.210  0.3107  1.1309 -0.2251
 1440TIP3    H125735   1.168   3.926   4.276 -1.1807 -1.1570  0.3108
 1440TIP3    H225736   1.159   3.871   4.135 -0.1011 -1.3877  0.3330
 1441TIP3   OH225737   3.910   0.795  15.181  0.1359 -0.0461  0.0470
 1441TIP3    H125738   3.817   0.774  15.195  0.1252 -1.7014 -2.3086
 1441TIP3    H225739   3.919   0.884  15.215 -2.0032 -0.3539  1.5609
 1442TIP3   OH225740   0.347   5.515   3.131 -0.3459  0.2217  0.1680
 1442TIP3    H125741   0.252   5.504   3.133 -0.2971 -0.5142 -0.9665
 1442TIP3    H225742   0.377   5.485   3.217 -1.0277 -0.6509  0.1008
 1443TIP3   OH225743   2.655   3.547   0.628  0.4290 -0.2330  0.0093
 1443TIP3    H125744   2.676   3.455   0.615 -2.5522 -1.1744  1.2625
 1443TIP3    H225745   2.729   3.595   0.591  1.7463 -3.1118 -1.2056
 1444TIP3   OH225746   0.538   4.195  10.601  0.0192 -0.0503 -0.2343
 1444TIP3    H125747   0.510   4.163  10.687  0.4525  0.9761  0.3054
 1444TIP3    H225748   0.584   4.121  10.561  1.4871  0.0595  1.2030
 1445TIP3   OH225749   1.234   5.181   2.405  0.0845  0.3491 -0.2763
 1445TIP3    H125750   1.241   5.261   2.352  2.8590  0.7146  0.5976
 1445TIP3    H225751   1.237   5.212   2.496 -0.2858 -0.6410  0.0819
 1446TIP3   OH225752   0.172   5.602  12.361 -0.3097  0.1611  0.2293
 1446TIP3    H125753   0.220   5.642  12.433 -0.8781 -0.3066  0.8755
 1446TIP3    H225754   0.154   5.675  12.301  0.0489  0.5770  0.6199
 1447TIP3   OH225755   1.500   1.609  12.640  0.6824 -0.3729  0.0722
 1447TIP3    H125756   1.463   1.558  12.712 -1.5719  0.2873 -0.5746
 1447TIP3    H225757   1.429   1.667  12.612  2.1461  0.7804 -1.3850
 1448TIP3   OH225758   6.024   6.676   6.268 -0.9091 -0.6914  0.2551
 1448TIP3    H125759   5.980   6.744   6.319  0.0046 -1.4791  2.1377
 1448TIP3    H225760   5.963   6.603   6.267 -0.7137 -0.8603  0.6589
 1449TIP3   OH225761   4.586   2.306   1.209  0.4732  0.1037  0.4330
 1449TIP3    H125762   4.519   2.353   1.260 -0.6992  0.8976 -1.7909
 1449TIP3    H225763   4.664   2.309   1.264 -0.6709  1.2212  2.0534
 1450TIP3   OH225764   4.980   2.005   3.622 -0.3303  0.2639  0.0728
 1450TIP3    H125765   4.903   1.948   3.626 -0.3032  0.3261  2.0595
 1450TIP3    H225766   4.966   2.070   3.690  0.4545  1.6234 -1.0364
 1451TIP3   OH225767   4.338   5.800  13.784 -1.0206 -0.0038  0.5173
 1451TIP3    H125768   4.401   5.846  13.839 -0.7365 -0.9953  1.0392
 1451TIP3    H225769   4.391   5.756  13.717 -1.2753  0.2956  0.1146
 1452TIP3   OH225770   2.637   3.567   3.049 -0.0589 -0.3121 -0.0204
 1452TIP3    H125771   2.551   3.524   3.049 -0.3386  0.1221  2.3234
 1452TIP3    H225772   2.683   3.530   2.974 -2.9717  0.8349 -2.4831
 1453TIP3   OH225773   2.517   1.791   6.200 -0.0503  0.1823 -0.0348
 1453TIP3    H125774   2.425   1.818   6.191  0.1481  1.1198  0.6242
 1453TIP3    H225775   2.518   1.737   6.279  0.0260  0.4616  0.1555
 1454TIP3   OH225776   2.981   5.460  11.581 -0.2783  0.3225 -0.3632
 1454TIP3    H125777   2.976   5.379  11.632  0.5459  0.3950 -0.1546
 1454TIP3    H225778   2.970   5.530  11.646  0.1537  0.4007 -0.3718
 1455TIP3   OH225779   1.527   0.561  13.074 -0.0788 -0.4958  0.6524
 1455TIP3    H125780   1.560   0.585  12.988  1.3648  0.6939  1.5077
 1455TIP3    H225781   1.436   0.592  13.074 -0.3911 -1.3547 -0.7562
 1456TIP3   OH225782   0.679   3.261  16.978  0.1643 -0.4978  0.2632
 1456TIP3    H125783   0.751   3.320  17.003 -0.1124 -1.3364  3.2724
 1456TIP3    H225784   0.605   3.290  17.033 -0.0888 -3.3368  1.4889
 1457TIP3   OH225785   1.419   3.401   3.963 -0.0725  0.2877  0.5972
 1457TIP3    H125786   1.454   3.455   3.892  3.1462 -2.1635  0.1988
 1457TIP3    H225787   1.467   3.430   4.041  1.8355 -1.9976  0.3428
 1458TIP3   OH225788   0.771   1.730  10.658  0.4225 -0.1697  0.4340
 1458TIP3    H125789   0.747   1.646  10.619 -0.1312  0.5203 -0.7411
 1458TIP3    H225790   0.709   1.792  10.619  0.0713  0.5867  2.1693
 1459TIP3   OH225791   6.426   1.714   2.286 -0.0203  0.3340 -0.5715
 1459TIP3    H125792   6.399   1.623   2.296  0.0841  0.4886  1.3946
 1459TIP3    H225793   6.522   1.711   2.288 -0.0275  0.5598  0.3575
 1460TIP3   OH225794   2.158   5.574  15.969  0.4564  0.1363 -0.3052
 1460TIP3    H125795   2.114   5.654  15.997 -0.3911 -0.1362 -0.8074
 1460TIP3    H225796   2.211   5.547  16.044  0.4327  0.9461  0.0064
 1461TIP3   OH225797   5.305   2.931   4.981  0.3309 -0.0994  0.3988
 1461TIP3    H125798   5.294   2.944   4.887  1.1713 -0.0591  0.2943
 1461TIP3    H225799   5.272   2.842   4.997  1.0793 -0.4816 -0.1117
 1462TIP3   OH225800   5.289   4.963   3.546  0.0782 -0.6219 -0.0683
 1462TIP3    H125801   5.283   4.935   3.637  0.9994  1.9892  0.8580
 1462TIP3    H225802   5.217   5.025   3.535 -0.7595 -1.8364 -1.4741
 1463TIP3   OH225803   3.691   5.489   2.227  0.7824 -0.1130 -0.3486
 1463TIP3    H125804   3.660   5.492   2.318  1.2227  1.2138 -0.2280
 1463TIP3    H225805   3.785   5.509   2.234  0.5432  1.3620 -1.2194
 1464TIP3   OH225806   6.088   6.709  16.781  0.1693 -0.1811 -0.0689
 1464TIP3    H125807   6.039   6.666  16.851 -0.7840  1.1801  0.1267
 1464TIP3    H225808   6.131   6.783  16.824 -0.5297  0.7422 -0.9208
 1465TIP3   OH225809   2.624   1.925  12.158  0.4361 -0.5642  0.0786
 1465TIP3    H125810   2.638   1.887  12.071 -0.4567 -0.7964  0.0400
 1465TIP3    H225811   2.530   1.941  12.163  0.7858  1.6248  0.0931
 1466TIP3   OH225812   4.984   2.831   1.854 -0.4288  0.6335  0.2178
 1466TIP3    H125813   4.988   2.873   1.768 -0.7247 -0.2397 -0.2242
 1466TIP3    H225814   5.046   2.758   1.847 -1.0158  0.1116  0.4997
 1467TIP3   OH225815   0.639   4.470  11.464  0.3930  0.0280  0.5794
 1467TIP3    H125816   0.646   4.400  11.399  3.1476  1.2887 -0.5422
 1467TIP3    H225817   0.701   4.445  11.533 -1.4832 -0.5714  2.1292
 1468TIP3   OH225818   2.082   5.454  15.323  0.5786  0.1037 -0.0377
 1468TIP3    H125819   2.000   5.471  15.369  0.2769  1.7547 -1.1732
 1468TIP3    H225820   2.058   5.389  15.257 -0.0476  1.3296 -1.0326
 1469TIP3   OH225821   2.284   2.375   3.249  0.2257  0.0840  0.2451
 1469TIP3    H125822   2.200   2.403   3.284 -0.5982 -0.2152 -1.4653
 1469TIP3    H225823   2.330   2.338   3.324 -1.2637  0.0151  1.1398
 1470TIP3   OH225824   5.452   4.659   2.343  0.0455 -0.0029  0.4794
 1470TIP3    H125825   5.379   4.598   2.348  2.0215 -2.3438  1.6562
 1470TIP3    H225826   5.470   4.668   2.249 -1.5828  0.4468  0.1922
 1471TIP3   OH225827   0.706   1.329   6.068  0.1197 -0.2124  0.0062
 1471TIP3    H125828   0.775   1.334   6.002  0.1781  0.1119  0.0918
 1471TIP3    H225829   0.627   1.310   6.017  0.1546  0.0988 -0.1643
 1472TIP3   OH225830   4.468   4.422   3.369  0.4092  0.2448  0.5061
 1472TIP3    H125831   4.556   4.441   3.403  0.9350  1.8357 -1.6203
 1472TIP3    H225832   4.481   4.408   3.276 -1.9915  3.7907 -0.4798
 1473TIP3   OH225833   5.213   6.660  11.817 -0.4760  0.6558  0.4987
 1473TIP3    H125834   5.228   6.600  11.745 -1.8498  0.8024  0.0682
 1473TIP3    H225835   5.297   6.667  11.861  0.1025 -0.2792 -0.4427
 1474TIP3   OH225836   0.251   3.288  16.556 -0.7080 -0.3783  0.7003
 1474TIP3    H125837   0.306   3.298  16.479  0.1362  0.6958  1.4179
 1474TIP3    H225838   0.161   3.290  16.523 -0.3526  0.3912 -0.2150
 1475TIP3   OH225839   3.380   4.518   4.534 -0.7831  0.0769  0.2445
 1475TIP3    H125840   3.420   4.574   4.601 -0.7779 -1.3155  1.4253
 1475TIP3    H225841   3.381   4.572   4.454  0.8221  1.1054  0.9309
 1476TIP3   OH225842   2.577   0.227   4.032  0.5898  0.2657 -0.0766
 1476TIP3    H125843   2.530   0.160   4.081 -0.3693  0.3450 -0.8626
 1476TIP3    H225844   2.654   0.247   4.085  0.4743 -0.8978  0.5358
 1477TIP3   OH225845   3.078   3.665  11.612 -0.0856 -0.1060  0.0282
 1477TIP3    H125846   3.087   3.758  11.590 -0.8265  0.3346  1.5127
 1477TIP3    H225847   3.005   3.662  11.673  1.2087 -1.3872  1.5662
 1478TIP3   OH225848   2.590   1.902  11.537  0.3539  0.8429  0.6302
 1478TIP3    H125849   2.663   1.934  11.485 -0.2620 -1.8362 -2.0423
 1478TIP3    H225850   2.626   1.830  11.588 -0.4883 -0.8792 -1.1447
 1479TIP3   OH225851   6.529   2.147  13.680  0.3572  0.0923  0.2440
 1479TIP3    H125852   6.495   2.232  13.654 -0.4667 -1.2318 -3.3026
 1479TIP3    H225853   6.455   2.102  13.720  0.9066  1.1390  2.5233
 1480TIP3   OH225854   0.287   0.327  15.689  0.7321 -0.9643 -0.5238
 1480TIP3    H125855   0.234   0.404  15.710  1.1049 -0.7987 -0.1785
 1480TIP3    H225856   0.229   0.272  15.637  0.1556 -0.8671  0.0038
 1481TIP3   OH225857   6.604   6.698  12.299 -0.0387 -0.3641 -0.5723
 1481TIP3    H125858   6.687   6.652  12.285  0.6894  1.1486 -1.3748
 1481TIP3    H225859   6.630   6.782  12.340 -1.0793  0.5000 -1.6590
 1482TIP3   OH225860   6.136   5.250   3.486  0.4380 -0.2931 -0.1404
 1482TIP3    H125861   6.181   5.165   3.491 -0.4330 -0.7498  0.0827
 1482TIP3    H225862   6.206   5.314   3.474  1.4002 -0.7204  2.7275
 1483TIP3   OH225863   4.284   4.424   2.244  0.0608 -0.7020 -0.1326
 1483TIP3    H125864   4.262   4.359   2.311  0.1561  0.4529  1.0577
 1483TIP3    H225865   4.225   4.498   2.263  1.2587  0.3086 -0.2633
 1484TIP3   OH225866   5.054   5.175   2.534 -0.3828 -0.5322 -0.6365
 1484TIP3    H125867   4.990   5.246   2.540  1.5807  1.4140 -2.2718
 1484TIP3    H225868   5.040   5.124   2.614 -2.2285  1.3401  0.2845
 1485TIP3   OH225869   0.784   0.426   2.341  0.0362 -0.2226  0.2500
 1485TIP3    H125870   0.700   0.383   2.325  0.4282 -0.9243  0.0564
 1485TIP3    H225871   0.843   0.355   2.365  0.4268  0.3475  0.9787
 1486TIP3   OH225872   6.355   6.121   2.258  0.4347  0.0525  0.4632
 1486TIP3    H125873   6.421   6.188   2.275  0.3113  0.4541 -0.6268
 1486TIP3    H225874   6.297   6.125   2.334  1.2968  0.1312  1.1270
 1487TIP3   OH225875   1.141   3.901   2.074  0.0142  0.0187 -0.0818
 1487TIP3    H125876   1.121   3.853   2.154  0.0983  1.0114  0.5504
 1487TIP3    H225877   1.062   3.952   2.056  0.3461  0.5457 -0.0737
 1488TIP3   OH225878   6.275   2.250  15.677 -0.0811 -0.7189 -0.7720
 1488TIP3    H125879   6.349   2.310  15.668  0.9579 -1.9026 -0.2643
 1488TIP3    H225880   6.262   2.214  15.589  0.9359 -1.6305 -0.5709
 1489TIP3   OH225881   6.036   4.164   4.768 -0.0079 -0.4180 -0.0180
 1489TIP3    H125882   6.059   4.143   4.859  0.3942 -0.4709 -0.1299
 1489TIP3    H225883   6.010   4.256   4.770  2.8972  0.4705 -0.3582
 1490TIP3   OH225884   3.837   3.992   0.577 -0.4166  0.9411  0.5036
 1490TIP3    H125885   3.899   3.947   0.634 -0.0026  1.5897  0.5713
 1490TIP3    H225886   3.796   3.922   0.526  0.4588  0.5166  0.3758
 1491TIP3   OH225887   5.895   2.153  14.844  0.6900 -0.2137  0.0987
 1491TIP3    H125888   5.841   2.231  14.830  1.0785 -0.2505 -1.6825
 1491TIP3    H225889   5.874   2.126  14.933  0.3866  1.8005  0.6754
 1492TIP3   OH225890   1.400   2.655   6.201  0.0651  0.3334  0.1842
 1492TIP3    H125891   1.335   2.601   6.245  0.6579 -1.1198 -0.6793
 1492TIP3    H225892   1.349   2.716   6.149 -0.6197  0.1747  0.6637
 1493TIP3   OH225893   4.839   5.817   4.081  0.4448  0.1977  0.0933
 1493TIP3    H125894   4.809   5.787   4.167 -1.0305  0.0061 -0.4850
 1493TIP3    H225895   4.915   5.762   4.062 -0.4640 -1.1695  0.3635
 1494TIP3   OH225896   2.204   4.610  11.318 -0.4884 -0.5307 -0.8502
 1494TIP3    H125897   2.121   4.629  11.363  0.1541 -1.3570  0.7174
 1494TIP3    H225898   2.180   4.547  11.250 -1.0637 -1.2120 -0.0246
 1495TIP3   OH225899   2.986   6.503   2.624 -0.3474 -0.2742  0.5210
 1495TIP3    H125900   3.067   6.547   2.599 -0.2680 -1.1818 -0.8830
 1495TIP3    H225901   2.917   6.549   2.575 -0.2247 -1.8847 -1.2050
 1496TIP3   OH225902   2.053   2.643   1.646  0.0057  0.6168  0.2414
 1496TIP3    H125903   2.072   2.708   1.578  0.6127  0.5598  0.3519
 1496TIP3    H225904   2.029   2.564   1.597  0.5354  0.5476  0.0926
 1497TIP3   OH225905   3.507   2.426   5.317 -0.2753  0.7620 -0.0020
 1497TIP3    H125906   3.452   2.505   5.314  0.8041  1.6393  2.2598
 1497TIP3    H225907   3.594   2.458   5.342  0.3888 -1.0502  0.0782
 1498TIP3   OH225908   5.777   3.704  15.054 -0.5532  0.2101 -0.0978
 1498TIP3    H125909   5.749   3.694  14.963 -4.4867 -1.5700  1.1905
 1498TIP3    H225910   5.845   3.637  15.065  0.4296  0.8904 -1.8803
 1499TIP3   OH225911   0.530   6.381  15.804  0.4693  0.0102 -0.1460
 1499TIP3    H125912   0.495   6.293  15.790 -0.3744  0.2360  0.4748
 1499TIP3    H225913   0.499   6.405  15.891  1.6321  0.4919  0.1290
 1500TIP3   OH225914   6.644   1.858  11.900  0.1495 -0.4244  0.1681
 1500TIP3    H125915   6.696   1.793  11.852 -0.1889  0.3615 -1.3126
 1500TIP3    H225916   6.572   1.879  11.840  0.0511  1.0208  0.7792
 1501TIP3   OH225917   5.944   1.429  11.279  0.4309 -0.4002  0.1313
 1501TIP3    H125918   6.007   1.462  11.215  1.0678 -0.0337  0.9445
 1501TIP3    H225919   5.864   1.479  11.263  0.5270 -0.4446 -0.5000
 1502TIP3   OH225920   4.939   6.762   3.317 -0.5810 -0.2596  0.2192
 1502TIP3    H125921   4.948   6.715   3.400  1.0418 -1.2927 -0.5216
 1502TIP3    H225922   4.961   6.698   3.250  0.6727  1.2431 -0.8603
 1503TIP3   OH225923   6.355   4.308   3.657  0.0040 -0.3862  0.7517
 1503TIP3    H125924   6.259   4.307   3.662 -0.0539 -0.5304 -0.2779
 1503TIP3    H225925   6.377   4.230   3.606  0.7904 -1.4880  2.6826
 1504TIP3   OH225926   5.688   5.228  16.639 -0.5278  0.1394 -0.0371
 1504TIP3    H125927   5.700   5.143  16.596 -0.9996 -0.5874  1.2036
 1504TIP3    H225928   5.776   5.264  16.647 -0.6148  1.2043 -3.3509
 1505TIP3   OH225929   1.115   0.783  11.941 -0.1373 -0.1826  0.1482
 1505TIP3    H125930   1.117   0.877  11.961  1.5483  0.0288 -0.9529
 1505TIP3    H225931   1.043   0.773  11.879  0.0629  0.4676 -0.1929
 1506TIP3   OH225932   4.643   0.436   1.050 -0.5448  0.5901 -0.0661
 1506TIP3    H125933   4.580   0.364   1.043 -0.8435  0.9822 -1.4309
 1506TIP3    H225934   4.605   0.495   1.115 -0.4088 -0.3505  0.8964
 1507TIP3   OH225935   0.089   2.253   4.547 -0.1370 -0.0755  0.0917
 1507TIP3    H125936   0.076   2.178   4.605 -0.9669 -1.5700 -1.9589
 1507TIP3    H225937   0.000   2.288   4.533 -0.1802 -0.8355 -1.6740
 1508TIP3   OH225938   5.849   4.889  15.050 -0.0030 -0.3840 -0.0153
 1508TIP3    H125939   5.791   4.964  15.053  0.8756  0.3162 -0.4616
 1508TIP3    H225940   5.828   4.845  14.968  2.0023  1.4224 -1.5432
 1509TIP3   OH225941   5.448   0.383  11.077 -0.0109  0.1478  0.2314
 1509TIP3    H125942   5.418   0.332  11.002 -0.2358 -1.1799  1.2000
 1509TIP3    H225943   5.492   0.459  11.039 -0.2399 -0.4414 -1.2374
 1510TIP3   OH225944   2.672   2.430   0.694 -0.5070 -0.6486  0.2766
 1510TIP3    H125945   2.745   2.437   0.756 -0.1691 -0.0133 -0.1900
 1510TIP3    H225946   2.669   2.515   0.650 -0.3655 -1.2719 -0.9800
 1511TIP3   OH225947   1.269   4.627  10.310  0.5582  0.0334  0.0733
 1511TIP3    H125948   1.319   4.697  10.353  1.7373 -1.1169  0.6168
 1511TIP3    H225949   1.297   4.547  10.354 -0.0985 -0.8857 -1.1476
 1512TIP3   OH225950   4.262   1.006  16.459 -0.1335  0.0129  0.3635
 1512TIP3    H125951   4.294   0.958  16.382 -1.0539 -2.1090  1.2686
 1512TIP3    H225952   4.339   1.015  16.515  0.7528  2.3553 -1.1538
 1513TIP3   OH225953   4.523   6.396  12.789 -0.0560 -0.4877  0.7176
 1513TIP3    H125954   4.593   6.346  12.831  0.3067  0.0930  0.8081
 1513TIP3    H225955   4.448   6.387  12.848  0.3688  0.0879  1.3557
 1514TIP3   OH225956   5.782   0.490  15.683  0.5173  0.2692  0.4664
 1514TIP3    H125957   5.827   0.449  15.757  1.8242  1.1491  0.1717
 1514TIP3    H225958   5.851   0.536  15.635 -0.4443  0.3739 -0.8588
 1515TIP3   OH225959   6.758   5.345   1.236 -0.1587  0.3507  0.3191
 1515TIP3    H125960   6.780   5.355   1.143 -0.4051  0.0789  0.2336
 1515TIP3    H225961   6.806   5.267   1.264  0.1021  0.5658  0.4781
 1516TIP3   OH225962   3.157   1.415  12.988  0.6016 -0.0282 -0.0294
 1516TIP3    H125963   3.200   1.406  12.903  2.7993 -0.9995  1.1660
 1516TIP3    H225964   3.076   1.365  12.980  2.0756 -2.3367 -0.6945
 1517TIP3   OH225965   6.599   2.815   3.707 -0.3940 -0.5398 -0.4678
 1517TIP3    H125966   6.514   2.838   3.744  0.6025  0.1712  1.4478
 1517TIP3    H225967   6.644   2.767   3.777  1.9430  1.7540 -0.3356
 1518TIP3   OH225968   6.341   1.827   6.370 -0.2646  0.2525  0.2688
 1518TIP3    H125969   6.417   1.832   6.427  0.9242  2.0902 -1.4130
 1518TIP3    H225970   6.365   1.763   6.302 -0.5733  0.1883  0.2162
 1519TIP3   OH225971   2.490   6.251  16.384  0.3393 -0.0363 -0.6633
 1519TIP3    H125972   2.499   6.338  16.423 -0.5704 -0.8011  1.3254
 1519TIP3    H225973   2.428   6.264  16.312  1.0769  1.1636 -1.1044
 1520TIP3   OH225974   3.160   1.726  15.679  0.6483  0.5020  0.8674
 1520TIP3    H125975   3.201   1.641  15.694 -1.0232 -0.4181  0.4427
 1520TIP3    H225976   3.111   1.743  15.759  0.4619  0.7481  0.7020
 1521TIP3   OH225977   1.770   2.168   4.074 -0.1463  0.1742  0.1203
 1521TIP3    H125978   1.817   2.249   4.093  0.5491 -0.6345  1.8953
 1521TIP3    H225979   1.838   2.102   4.062 -0.7704 -0.6968  1.2698
 1522TIP3   OH225980   1.147   1.758  13.556 -0.0728 -0.1835 -0.2000
 1522TIP3    H125981   1.150   1.810  13.636  0.2873 -0.4409 -0.0434
 1522TIP3    H225982   1.219   1.696  13.565  0.5169  0.3560 -1.1204
 1523TIP3   OH225983   1.797   6.678  11.793 -0.0462  0.1682  0.0712
 1523TIP3    H125984   1.872   6.650  11.741  0.4097 -1.0455  1.3663
 1523TIP3    H225985   1.727   6.617  11.771  0.5177 -1.1278  1.7996
 1524TIP3   OH225986   4.783   4.117   5.498 -0.5182  0.4441 -0.6115
 1524TIP3    H125987   4.732   4.136   5.576  0.1140 -1.7406  0.3900
 1524TIP3    H225988   4.718   4.100   5.430 -1.1990 -2.3638  0.6621
 1525TIP3   OH225989   5.638   6.217   5.796 -0.4875 -0.2859 -0.2764
 1525TIP3    H125990   5.711   6.277   5.777 -0.6343  0.1060  0.3630
 1525TIP3    H225991   5.670   6.164   5.869 -0.6807 -0.4125 -0.2852
 1526TIP3   OH225992   1.668   1.540   0.591 -0.0707 -0.2861  0.3058
 1526TIP3    H125993   1.735   1.527   0.658 -0.7999  0.4098  1.1868
 1526TIP3    H225994   1.664   1.635   0.579  1.8881 -0.5137 -2.6436
 1527TIP3   OH225995   5.193   6.630   4.796  0.7597 -0.2819 -0.1243
 1527TIP3    H125996   5.167   6.700   4.736 -0.3122  0.6992  1.4307
 1527TIP3    H225997   5.284   6.650   4.818  0.8380 -0.0685 -0.6403
 1528TIP3   OH225998   2.587   6.307  12.553  0.2089  0.1696  0.1242
 1528TIP3    H125999   2.678   6.278  12.562  0.0999  0.8481  4.8016
 1528TIP3    H226000   2.535   6.236  12.591 -1.1147  0.4984 -1.0304
 1529TIP3   OH226001   3.640   3.129  12.470  0.1510 -0.1528  0.0688
 1529TIP3    H126002   3.696   3.172  12.535  1.4932 -1.1685 -0.4084
 1529TIP3    H226003   3.653   3.036  12.484 -1.4313 -0.4126 -0.0591
 1530TIP3   OH226004   0.227   0.161   0.375 -0.1204 -0.0032 -0.3260
 1530TIP3    H126005   0.312   0.197   0.402  0.2626  0.0253 -1.5333
 1530TIP3    H226006   0.173   0.166   0.454  0.2473  2.2532 -0.1730
 1531TIP3   OH226007   5.025   2.083   6.096 -0.4220  0.2052 -0.3804
 1531TIP3    H126008   5.101   2.141   6.092  0.6144 -1.1950 -1.1619
 1531TIP3    H226009   5.004   2.078   6.190  1.1249 -0.2702 -0.0440
 1532TIP3   OH226010   5.770   0.115   1.200  0.1820 -0.0374  0.1040
 1532TIP3    H126011   5.813   0.064   1.268  1.4966  1.0943  0.1454
 1532TIP3    H226012   5.790   0.069   1.119  1.0148  0.1917  0.1816
 1533TIP3   OH226013   1.110   4.500  14.847 -0.4724  0.2715 -0.1610
 1533TIP3    H126014   1.097   4.557  14.923 -0.1829 -2.1985  1.8122
 1533TIP3    H226015   1.204   4.486  14.843 -0.5593 -0.2256 -0.5231
 1534TIP3   OH226016   2.355   1.661  16.826 -0.0477  0.6528 -0.4608
 1534TIP3    H126017   2.312   1.742  16.800 -1.4853 -0.5784 -1.9985
 1534TIP3    H226018   2.308   1.592  16.779  1.9144 -0.9731 -0.1276
 1535TIP3   OH226019   0.833   5.957  12.063 -0.2912 -0.6161  0.1714
 1535TIP3    H126020   0.764   5.982  12.001 -1.9955  0.0122  2.2828
 1535TIP3    H226021   0.788   5.944  12.146  2.0992 -0.5317  1.5361
 1536TIP3   OH226022   2.993   5.786  16.092 -0.0362  0.0081  0.0302
 1536TIP3    H126023   2.948   5.723  16.148  0.9641  0.1259  0.9773
 1536TIP3    H226024   3.075   5.743  16.068  0.6253  0.9109  0.6302
 1537TIP3   OH226025   2.213   3.277   1.071  0.4495 -0.0873 -0.8090
 1537TIP3    H126026   2.178   3.192   1.097 -0.4552  0.0259 -1.6252
 1537TIP3    H226027   2.174   3.339   1.132  0.7805 -0.2039 -0.4776
 1538TIP3   OH226028   3.465   0.612   4.607 -0.4582  0.1241 -0.3064
 1538TIP3    H126029   3.405   0.561   4.552  0.2045  0.0241 -0.9400
 1538TIP3    H226030   3.539   0.631   4.550 -0.9515  2.2986 -0.2531
 1539TIP3   OH226031   0.090   6.304  15.220  0.2155 -0.4460 -0.2185
 1539TIP3    H126032   0.052   6.390  15.201  0.2792 -0.5184 -0.6749
 1539TIP3    H226033   0.033   6.243  15.174 -0.4136 -0.7240  0.9321
 1540TIP3   OH226034   1.180   4.981  12.401  0.6126  0.1947 -0.3138
 1540TIP3    H126035   1.179   4.894  12.441  0.8468  0.1901 -0.3188
 1540TIP3    H226036   1.138   5.037  12.466  0.9767  0.1851 -0.0691
 1541TIP3   OH226037   2.868   0.699  12.034  0.1880 -0.7372 -0.0780
 1541TIP3    H126038   2.897   0.782  12.073 -0.2835  0.4580 -2.1861
 1541TIP3    H226039   2.943   0.668  11.984 -0.6614  0.0954 -1.9207
 1542TIP3   OH226040   3.679   3.028  15.647 -0.4889  0.0654  0.0574
 1542TIP3    H126041   3.746   3.058  15.586 -1.8589  1.5375 -0.7578
 1542TIP3    H226042   3.675   3.097  15.714  0.0403 -0.8759  1.0829
 1543TIP3   OH226043   1.786   5.830  12.701  0.5426  0.4575 -0.1707
 1543TIP3    H126044   1.734   5.798  12.775  0.4858 -1.5597 -1.0558
 1543TIP3    H226045   1.855   5.883  12.741  1.3341 -1.7177  1.4519
 1544TIP3   OH226046   0.132   5.048  16.258  0.4029 -0.3120 -0.1710
 1544TIP3    H126047   0.153   5.139  16.236 -0.6870 -0.1690 -0.6784
 1544TIP3    H226048   0.055   5.054  16.314 -0.2979 -0.9558 -1.0345
 1545TIP3   OH226049   3.215   0.031   3.791  0.0407  0.2036 -0.3302
 1545TIP3    H126050   3.293   0.085   3.776  1.0084 -0.4245  2.1332
 1545TIP3    H226051   3.184   0.009   3.703  1.3385  2.3137 -1.3681
 1546TIP3   OH226052   4.454   0.329  14.853 -0.4438 -0.0017 -0.1526
 1546TIP3    H126053   4.514   0.288  14.915  0.4300  3.6069  1.5140
 1546TIP3    H226054   4.503   0.330  14.770  1.7385  2.5399  1.0910
 1547TIP3   OH226055   6.677   4.738   4.613  0.1200 -0.1426  0.2832
 1547TIP3    H126056   6.743   4.798   4.649 -1.2376  0.7651  1.3025
 1547TIP3    H226057   6.631   4.705   4.690 -1.2059 -0.0831 -0.4739
 1548TIP3   OH226058   1.363   4.940  15.607  0.2261  0.3317  0.4544
 1548TIP3    H126059   1.369   5.010  15.541  1.6984  0.0075  0.2415
 1548TIP3    H226060   1.368   4.859  15.556  1.8022  0.0809  0.9852
 1549TIP3   OH226061   6.426   1.391   4.074  0.1408 -0.3333 -0.6455
 1549TIP3    H126062   6.488   1.462   4.060  1.6019 -1.4446  0.0181
 1549TIP3    H226063   6.431   1.339   3.994 -0.6170  0.0828 -0.9621
 1550TIP3   OH226064   4.270   5.263   0.987 -0.3378  0.0068 -0.3612
 1550TIP3    H126065   4.295   5.230   0.900 -1.2703  0.4981 -0.8169
 1550TIP3    H226066   4.218   5.341   0.969 -1.6467 -0.6276  0.6056
 1551TIP3   OH226067   3.753   5.123  10.239  0.4750 -0.5720  0.3471
 1551TIP3    H126068   3.743   5.050  10.178  0.4959  0.5596 -1.0140
 1551TIP3    H226069   3.770   5.199  10.184  0.9057  0.3920  1.7827
 1552TIP3   OH226070   5.977   4.182   3.107  0.1132  0.0950 -0.2896
 1552TIP3    H126071   6.020   4.200   3.191 -0.1958 -3.7527  0.7929
 1552TIP3    H226072   6.026   4.235   3.044  1.3630  1.8663  2.0773
 1553TIP3   OH226073   2.694   2.770  12.624  0.3634  0.7776  0.7628
 1553TIP3    H126074   2.656   2.799  12.541 -0.1248 -1.1397  0.2848
 1553TIP3    H226075   2.788   2.768  12.608  0.1235 -1.8546 -0.5309
 1554TIP3   OH226076   1.800   1.129   5.281  0.4742 -0.0414 -0.2618
 1554TIP3    H126077   1.710   1.153   5.260  0.8525  1.9244  0.3223
 1554TIP3    H226078   1.796   1.097   5.371  0.5040  0.9032  0.0787
 1555TIP3   OH226079   3.769   5.808  16.092 -0.4795 -0.2004 -0.5044
 1555TIP3    H126080   3.737   5.754  16.019 -2.3498  0.2671 -0.0694
 1555TIP3    H226081   3.812   5.882  16.050 -0.0822 -0.7847 -1.1264
 1556TIP3   OH226082   2.547   6.494  12.303  0.1441  0.3069  0.0789
 1556TIP3    H126083   2.568   6.461  12.391  1.1587  1.0911  0.1438
 1556TIP3    H226084   2.456   6.469  12.289  0.0602 -0.0705  1.2402
 1557TIP3   OH226085   6.649   4.921  14.855 -0.5002  0.4194  0.0793
 1557TIP3    H126086   6.730   4.937  14.806  0.7382 -1.1091  1.5488
 1557TIP3    H226087   6.632   4.827  14.843 -0.5963  0.1788  1.9136
 1558TIP3   OH226088   0.607   3.208  15.748 -0.6934  0.6252 -0.1450
 1558TIP3    H126089   0.694   3.245  15.731 -1.2656  1.8730 -0.4181
 1558TIP3    H226090   0.587   3.233  15.838  0.1804 -1.6378  0.7251
 1559TIP3   OH226091   4.411   6.452  11.158  0.2135  0.0718  0.0174
 1559TIP3    H126092   4.429   6.359  11.159  0.7410  0.1694 -0.2181
 1559TIP3    H226093   4.328   6.460  11.110  0.6220 -0.2020 -0.7508
 1560TIP3   OH226094   2.690   5.892   5.908  0.4279  0.1415 -0.5827
 1560TIP3    H126095   2.630   5.867   5.838  1.0481 -0.8568 -0.7715
 1560TIP3    H226096   2.633   5.918   5.980 -0.2330 -0.1998 -0.9703
 1561TIP3   OH226097   6.752   2.342   4.023 -0.2890 -0.2211  0.5024
 1561TIP3    H126098   6.810   2.327   3.948  0.4912 -1.2111  1.2814
 1561TIP3    H226099   6.674   2.382   3.985  0.4186  0.0312 -0.7300
 1562TIP3   OH226100   1.274   1.075  14.235 -0.0331 -0.5892 -0.1136
 1562TIP3    H126101   1.312   1.060  14.148  2.3691 -3.7512  1.3619
 1562TIP3    H226102   1.349   1.070  14.294 -1.5358  2.1116  2.1348
 1563TIP3   OH226103   1.012   6.348  16.905  0.2486 -0.2879 -0.4622
 1563TIP3    H126104   0.967   6.317  16.983 -0.3098 -0.7603 -0.9651
 1563TIP3    H226105   0.954   6.414  16.868  0.4325 -0.1857 -0.5730
 1564TIP3   OH226106   2.495   5.414   2.638 -0.1422  0.1099 -0.0468
 1564TIP3    H126107   2.532   5.367   2.712  0.8126  0.1762 -0.4765
 1564TIP3    H226108   2.416   5.365   2.615 -0.0091 -0.3647  0.5113
 1565TIP3   OH226109   0.163   1.443  16.896  0.0573  0.4502  0.3980
 1565TIP3    H126110   0.148   1.488  16.813 -2.8801 -0.1385  0.5422
 1565TIP3    H226111   0.214   1.366  16.873  0.2426  0.8945 -0.6963
 1566TIP3   OH226112   3.329   2.227   0.157 -0.2789 -0.0557  0.2078
 1566TIP3    H126113   3.251   2.216   0.102 -0.8646 -1.0155  1.2121
 1566TIP3    H226114   3.331   2.321   0.177 -1.7030 -0.1679  0.9321
 1567TIP3   OH226115   5.631   1.856   1.599  0.8913 -0.3311  0.0079
 1567TIP3    H126116   5.660   1.790   1.536  1.9311  1.0902 -1.0357
 1567TIP3    H226117   5.537   1.866   1.582  1.1842  0.1114 -1.3939
 1568TIP3   OH226118   2.220   6.167   5.324  0.3064  0.0899 -0.0530
 1568TIP3    H126119   2.190   6.140   5.411  1.9679  1.9359  1.1499
 1568TIP3    H226120   2.297   6.112   5.307 -0.1492 -0.4249 -0.4588
 1569TIP3   OH226121   3.279   0.969   3.881  0.6642 -0.4408 -0.2090
 1569TIP3    H126122   3.281   1.006   3.970 -0.6984  1.0698 -0.7804
 1569TIP3    H226123   3.346   1.018   3.834 -1.3279  1.5794 -1.0401
 1570TIP3   OH226124   6.337   5.182  12.616 -0.5939 -0.2166  0.3330
 1570TIP3    H126125   6.394   5.106  12.625 -3.1414 -2.3265 -0.8132
 1570TIP3    H226126   6.308   5.200  12.706 -1.0795 -1.5184  0.4581
 1571TIP3   OH226127   0.506   1.149  14.392  0.3073 -0.3164 -0.1389
 1571TIP3    H126128   0.598   1.124  14.384 -0.1477 -1.6426 -1.4417
 1571TIP3    H226129   0.477   1.108  14.474  1.1714  1.0878  0.8803
 1572TIP3   OH226130   1.989   1.643  15.859 -0.3478  0.4148 -0.0456
 1572TIP3    H126131   2.054   1.713  15.857  0.8448 -0.6935 -1.7751
 1572TIP3    H226132   2.034   1.568  15.821 -0.8198 -2.0343  3.9848
 1573TIP3   OH226133   0.364   6.762   2.911 -0.7511  0.2337  0.0457
 1573TIP3    H126134   0.388   6.754   2.818  1.0573  0.1112  0.5048
 1573TIP3    H226135   0.415   6.694   2.955 -2.7995 -0.7609  0.9428
 1574TIP3   OH226136   0.289   2.786  12.479 -0.0197  0.3827  0.3062
 1574TIP3    H126137   0.253   2.804  12.392 -1.9172 -1.8867  0.5664
 1574TIP3    H226138   0.354   2.717  12.464  0.3604  0.6888  0.5507
 1575TIP3   OH226139   1.848   3.801  16.313  0.0615  0.3523  0.0963
 1575TIP3    H126140   1.768   3.757  16.283  0.9101 -1.3927  0.3683
 1575TIP3    H226141   1.838   3.804  16.409  0.1945  0.4292  0.1060
 1576TIP3   OH226142   2.269   1.001  17.108 -0.2343 -0.0146 -0.3241
 1576TIP3    H126143   2.278   1.095  17.092 -0.4354  0.1115  0.2802
 1576TIP3    H226144   2.346   0.977  17.158  0.3640 -0.3957 -1.4174
 1577TIP3   OH226145   1.183   3.728   2.401 -0.5235 -0.3298  0.2328
 1577TIP3    H126146   1.222   3.691   2.481  1.8898 -0.7959 -1.1057
 1577TIP3    H226147   1.257   3.768   2.355 -1.7982 -0.4775 -2.0047
 1578TIP3   OH226148   1.054   1.756   1.633 -0.0119  0.6399  0.5441
 1578TIP3    H126149   1.090   1.767   1.721  1.2237 -0.1292  0.1525
 1578TIP3    H226150   1.126   1.719   1.583 -0.8350  0.7098 -0.6989
 1579TIP3   OH226151   3.181   1.788  15.257  0.1456 -0.1137 -0.6597
 1579TIP3    H126152   3.228   1.760  15.179 -1.1540 -0.5216 -1.3065
 1579TIP3    H226153   3.166   1.707  15.306 -1.3798 -0.2322 -1.2938
 1580TIP3   OH226154   5.156   1.351  15.010 -0.5893  0.1689  0.7288
 1580TIP3    H126155   5.241   1.307  15.012 -0.8812 -0.5354 -0.7887
 1580TIP3    H226156   5.166   1.420  14.944 -0.6110  1.3910  1.9763
 1581TIP3   OH226157   6.330   4.597  14.340 -0.2055 -0.0276  0.5346
 1581TIP3    H126158   6.397   4.644  14.392 -1.5212  0.6447  1.6565
 1581TIP3    H226159   6.379   4.528  14.295  1.4798  1.3163  0.2537
 1582TIP3   OH226160   4.959   0.885   0.619 -0.6017 -0.4155  0.1217
 1582TIP3    H126161   5.054   0.889   0.611 -0.5687  0.2087  0.8170
 1582TIP3    H226162   4.935   0.803   0.577  0.3256 -0.9767  0.6813
 1583TIP3   OH226163   2.108   3.924  14.822  0.0949  0.0735  0.4528
 1583TIP3    H126164   2.125   3.843  14.870 -0.3420  0.6312  1.5663
 1583TIP3    H226165   2.075   3.984  14.888  1.0962  1.3981 -0.2337
 1584TIP3   OH226166   1.610   2.478   3.408  0.7461  0.0961 -0.5235
 1584TIP3    H126167   1.684   2.435   3.365  0.5065  1.9856 -2.8814
 1584TIP3    H226168   1.620   2.571   3.387 -0.3606  0.8362  2.0797
 1585TIP3   OH226169   5.690   6.137   4.064 -0.0364 -0.3898  0.1313
 1585TIP3    H126170   5.698   6.157   4.158 -1.1086 -0.5471  0.2546
 1585TIP3    H226171   5.779   6.112   4.038  0.1691 -0.8034  1.2118
 1586TIP3   OH226172   0.300   4.800   2.740  0.5035 -0.0328  0.2320
 1586TIP3    H126173   0.280   4.887   2.706  0.3363 -0.6300 -1.2366
 1586TIP3    H226174   0.231   4.744   2.705  1.5506 -1.0549 -0.2420
 1587TIP3   OH226175   2.878   3.020  16.301 -0.4162 -0.3951 -0.3298
 1587TIP3    H126176   2.822   3.097  16.294  0.6144  0.3966  0.0904
 1587TIP3    H226177   2.966   3.052  16.281  0.0584 -1.4099  0.1044
 1588TIP3   OH226178   0.318   4.405  14.611 -0.3034  0.0957 -0.0261
 1588TIP3    H126179   0.323   4.482  14.555 -0.2640 -0.0047 -0.1596
 1588TIP3    H226180   0.318   4.330  14.551  0.8212 -0.0579  0.1497
 1589TIP3   OH226181   4.765   5.371   5.049 -0.0663 -0.2818  0.0112
 1589TIP3    H126182   4.829   5.350   4.981 -2.1661  0.7614 -2.3598
 1589TIP3    H226183   4.706   5.296   5.051  1.0614 -1.1447  2.0336
 1590TIP3   OH226184   5.235   5.737   3.165  0.3848 -0.1643  0.5847
 1590TIP3    H126185   5.158   5.750   3.220 -0.2039  3.2818 -0.9369
 1590TIP3    H226186   5.304   5.711   3.226 -1.6093 -1.9568  2.1426
 1591TIP3   OH226187   1.998   4.346   1.838 -0.5639 -0.2725 -0.2659
 1591TIP3    H126188   1.906   4.328   1.856 -0.7322  1.2991  0.5356
 1591TIP3    H226189   1.996   4.419   1.776  0.1598  1.3883  1.6343
 1592TIP3   OH226190   1.513   3.120  13.785  0.5381  0.1605 -0.3963
 1592TIP3    H126191   1.568   3.044  13.764  2.5348  1.7002 -0.9340
 1592TIP3    H226192   1.548   3.153  13.868  0.5462  1.2752 -0.8364
 1593TIP3   OH226193   5.568   6.364   1.208  0.0689  0.5192  0.3555
 1593TIP3    H126194   5.532   6.328   1.127  0.2138  0.1444  0.4550
 1593TIP3    H226195   5.497   6.417   1.245  0.1878  1.1283 -0.2911
 1594TIP3   OH226196   0.865   2.848  12.835 -0.1064 -0.1731 -0.1627
 1594TIP3    H126197   0.852   2.937  12.802  0.4100 -0.0641 -0.0751
 1594TIP3    H226198   0.790   2.799  12.802 -0.0930  0.1606 -0.7046
 1595TIP3   OH226199   0.511   4.870  10.716 -0.2600 -0.2043 -1.1344
 1595TIP3    H126200   0.570   4.818  10.772 -1.5380  0.8169  1.2644
 1595TIP3    H226201   0.569   4.924  10.663  1.0526 -2.6901 -2.3112
 1596TIP3   OH226202   1.681   4.608  12.437  0.3537  0.0007  0.0767
 1596TIP3    H126203   1.708   4.606  12.346 -0.5285 -0.9323 -0.1807
 1596TIP3    H226204   1.616   4.538  12.444  1.1741 -0.6379  1.6470
 1597TIP3   OH226205   1.998   0.225   3.675 -0.4861  0.1666  0.2952
 1597TIP3    H126206   1.965   0.297   3.730  0.2761 -0.9611  2.2802
 1597TIP3    H226207   2.093   0.228   3.686 -0.1196  1.2945 -2.7403
 1598TIP3   OH226208   2.280   1.879   6.078  0.2777  0.1784  0.1045
 1598TIP3    H126209   2.203   1.920   6.041  0.4497 -0.1736 -0.6480
 1598TIP3    H226210   2.247   1.827   6.152  0.0540  1.5920  1.0063
 1599TIP3   OH226211   1.249   6.764   5.202  0.0557 -0.3959  0.4360
 1599TIP3    H126212   1.213   6.835   5.255  1.1391 -0.6639  1.5432
 1599TIP3    H226213   1.335   6.795   5.176  0.3385 -1.1134  0.5233
 1600TIP3   OH226214   3.285   3.736   1.743  0.3075 -0.2952  0.1274
 1600TIP3    H126215   3.284   3.645   1.771  0.8876  0.6700  3.5482
 1600TIP3    H226216   3.378   3.759   1.741  0.1680  0.2255 -0.8041
 1601TIP3   OH226217   5.056   3.098   3.020  0.2940  0.0729  0.4925
 1601TIP3    H126218   5.060   3.057   2.934  0.0519 -3.1334  1.9322
 1601TIP3    H226219   4.975   3.149   3.018 -1.1911 -2.2043 -0.2915
 1602TIP3   OH226220   5.907   6.275  10.438 -0.1410 -1.1046 -0.1879
 1602TIP3    H126221   5.911   6.332  10.515 -0.2926 -0.5527 -0.5881
 1602TIP3    H226222   5.999   6.268  10.410 -0.1951 -0.5379 -0.5161
 1603TIP3   OH226223   4.964   6.427   1.281  0.2024  0.3633  0.0160
 1603TIP3    H126224   4.872   6.405   1.293  0.6020 -1.9375 -0.8446
 1603TIP3    H226225   4.968   6.470   1.196  0.1430 -1.0830 -0.7360
 1604TIP3   OH226226   5.812   2.883   5.633 -0.2217 -0.3721  0.3872
 1604TIP3    H126227   5.897   2.856   5.601 -0.0167  0.7704 -0.0642
 1604TIP3    H226228   5.806   2.846   5.722 -0.1883 -2.3071 -0.3925
 1605TIP3   OH226229   3.290   4.497  10.935 -0.3420  0.3512 -0.0152
 1605TIP3    H126230   3.214   4.480  10.992  1.0390 -1.2059  1.4007
 1605TIP3    H226231   3.337   4.568  10.979  0.7243 -0.8508  0.8302
 1606TIP3   OH226232   4.792   4.728  15.866 -0.2081  0.0830 -0.0534
 1606TIP3    H126233   4.795   4.750  15.773 -3.1993  0.1927 -0.1972
 1606TIP3    H226234   4.758   4.806  15.909 -1.9910 -1.0251  0.6522
 1607TIP3   OH226235   4.740   0.051   3.078 -0.0318  0.2491 -0.4109
 1607TIP3    H126236   4.833   0.065   3.093 -0.2003  1.9370 -0.8594
 1607TIP3    H226237   4.701   0.052   3.165  0.2992  0.0546 -0.2598
 1608TIP3   OH226238   5.491   1.794  14.797 -0.0707 -0.4573 -0.1230
 1608TIP3    H126239   5.461   1.810  14.708  0.0265 -2.1555 -0.4784
 1608TIP3    H226240   5.586   1.791  14.791  0.0232  1.1882  0.3570
 1609TIP3   OH226241   1.397   6.483   4.982  0.6741  0.2230 -0.1408
 1609TIP3    H126242   1.447   6.426   4.924  0.6743  0.9268 -0.8368
 1609TIP3    H226243   1.424   6.572   4.957 -0.6351  0.5883 -0.2578
 1610TIP3   OH226244   5.486   0.170   2.475 -0.2939 -0.0011  0.0925
 1610TIP3    H126245   5.402   0.136   2.504  0.0305  0.0300  1.0745
 1610TIP3    H226246   5.470   0.263   2.458 -0.3085  0.1521  0.9113
 1611TIP3   OH226247   6.233   5.416  15.906 -0.6301 -0.0045 -0.6050
 1611TIP3    H126248   6.201   5.494  15.951 -0.5382 -0.0610 -0.4441
 1611TIP3    H226249   6.237   5.349  15.974  0.0969  0.0743 -0.5604
 1612TIP3   OH226250   3.514   6.327  16.958 -0.1048  0.8280 -0.0596
 1612TIP3    H126251   3.577   6.282  16.902  0.7173  0.9556  0.7490
 1612TIP3    H226252   3.491   6.406  16.908 -1.6009 -0.4975 -1.4977
 1613TIP3   OH226253   3.473   0.539  13.387 -0.0022 -0.4294 -0.8127
 1613TIP3    H126254   3.400   0.477  13.388  0.7232 -1.2878  1.5344
 1613TIP3    H226255   3.466   0.586  13.470  2.0900 -0.5366 -0.5381
 1614TIP3   OH226256   0.490   2.504  14.134 -0.3712 -0.6447 -0.4341
 1614TIP3    H126257   0.502   2.592  14.171  0.4306 -0.9669  0.0764
 1614TIP3    H226258   0.406   2.509  14.089 -1.1623 -0.0891  1.0471
 1615TIP3   OH226259   3.859   5.079   0.976 -0.0559 -0.3568 -0.3079
 1615TIP3    H126260   3.819   5.071   0.890  5.4806 -1.8426 -2.9828
 1615TIP3    H226261   3.881   4.989   1.000  2.7130  0.4374  0.3631
 1616TIP3   OH226262   6.086   0.695  11.239  0.3988  0.1523 -0.5381
 1616TIP3    H126263   6.112   0.603  11.246 -0.0386  0.1787  2.0205
 1616TIP3    H226264   6.003   0.693  11.193  0.8332 -0.6633 -1.3027
 1617TIP3   OH226265   0.861   4.838  14.868  0.1466 -0.8808 -0.4256
 1617TIP3    H126266   0.862   4.826  14.963 -0.2007 -1.3489 -0.4748
 1617TIP3    H226267   0.770   4.862  14.848 -0.0291 -1.7567 -0.7452
 1618TIP3   OH226268   1.467   3.501  14.207 -0.1442  0.1560 -1.1782
 1618TIP3    H126269   1.412   3.550  14.269  2.5478  1.6859  0.0585
 1618TIP3    H226270   1.486   3.419  14.251  0.3961  0.5504 -0.6769
 1619TIP3   OH226271   0.970   6.345  12.682 -0.0933 -0.1639 -0.1426
 1619TIP3    H126272   0.925   6.277  12.731 -0.3126  0.7907  1.0027
 1619TIP3    H226273   1.063   6.332  12.703 -0.2600  0.7901  1.2576
 1620TIP3   OH226274   5.976   6.141   1.340 -0.8220 -0.3302  0.1790
 1620TIP3    H126275   6.019   6.073   1.288  2.1104 -0.2927  2.4206
 1620TIP3    H226276   5.906   6.094   1.385 -0.1243 -1.4605  0.1290
 1621TIP3   OH226277   5.384   0.192   5.070  0.2223  0.1017  0.0333
 1621TIP3    H126278   5.299   0.164   5.038  0.7963 -0.5341 -0.9569
 1621TIP3    H226279   5.368   0.278   5.110 -0.7211  0.3787 -0.9230
 1622TIP3   OH226280   5.299   5.749  10.098  0.1943 -0.2237  0.0533
 1622TIP3    H126281   5.256   5.667  10.073 -0.7138  0.6360 -1.2915
 1622TIP3    H226282   5.230   5.801  10.140 -0.4030  1.5364 -2.9380
 1623TIP3   OH226283   3.043   2.295  14.219  0.5310 -0.2079 -0.0541
 1623TIP3    H126284   3.046   2.319  14.311  1.4110 -0.8653  0.0883
 1623TIP3    H226285   3.034   2.200  14.218 -1.9572  0.0010 -0.6405
 1624TIP3   OH226286   3.507   0.936   3.510 -0.3102 -0.1804  0.7513
 1624TIP3    H126287   3.506   0.860   3.567  0.6171 -0.0975  0.8866
 1624TIP3    H226288   3.580   0.990   3.542 -1.4473  1.1444  1.1518
 1625TIP3   OH226289   1.618   1.336   0.790 -0.5481 -1.0384  0.1948
 1625TIP3    H126290   1.662   1.266   0.743 -0.2565 -0.0008 -1.1116
 1625TIP3    H226291   1.626   1.312   0.882 -0.6556 -2.8262 -0.2375
 1626TIP3   OH226292   6.591   3.710  14.071  0.6493  0.1988  0.2166
 1626TIP3    H126293   6.684   3.697  14.056  0.5131 -1.3997  0.6302
 1626TIP3    H226294   6.552   3.714  13.984  1.0813  0.7650  0.0443
 1627TIP3   OH226295   1.415   3.232  14.569 -0.2750 -0.2772 -0.1523
 1627TIP3    H126296   1.349   3.293  14.602  0.0235 -0.1022  0.1261
 1627TIP3    H226297   1.459   3.280  14.500 -0.7279 -0.5511 -0.6367
 1628TIP3   OH226298   3.310   6.297   0.773  0.3382 -0.3707  0.1676
 1628TIP3    H126299   3.337   6.375   0.821  0.4764  0.8027 -1.7605
 1628TIP3    H226300   3.214   6.301   0.772  0.2657 -1.3387  1.8339
 1629TIP3   OH226301   6.768   3.858  13.293  0.0913 -0.1208 -0.0327
 1629TIP3    H126302   6.831   3.894  13.231  0.9910  0.6471  1.2882
 1629TIP3    H226303   6.792   3.898  13.377 -0.6317 -1.6836  0.9491
 1630TIP3   OH226304   6.680   0.265  11.068 -0.2109  0.0094 -0.0697
 1630TIP3    H126305   6.757   0.316  11.094 -0.2335  0.2546 -0.4651
 1630TIP3    H226306   6.714   0.177  11.051 -0.3412 -0.3633  1.5726
 1631TIP3   OH226307   2.050   1.932  16.850  0.0077  0.5217  0.5639
 1631TIP3    H126308   2.089   2.015  16.877  0.2905  0.4834  0.2742
 1631TIP3    H226309   2.119   1.887  16.802 -0.5642  0.6788 -0.4225
 1632TIP3   OH226310   2.638   5.984   5.024  0.4513 -0.6894  0.1036
 1632TIP3    H126311   2.629   6.063   5.077  0.4538  0.2269 -1.2400
 1632TIP3    H226312   2.548   5.963   4.998  0.7072  0.3628 -1.6693
 1633TIP3   OH226313   4.402   0.875  16.865  0.1191 -0.5626  0.3484
 1633TIP3    H126314   4.448   0.865  16.782 -0.8539 -1.0424 -0.1362
 1633TIP3    H226315   4.472   0.893  16.929  0.8630 -0.1091 -0.5756
 1634TIP3   OH226316   6.677   3.269   4.107  0.1736 -0.4132  0.2838
 1634TIP3    H126317   6.669   3.291   4.015  2.2188  2.8522  0.8258
 1634TIP3    H226318   6.623   3.335   4.152 -0.0893 -1.4293  1.5020
 1635TIP3   OH226319   1.831   0.427  14.523  0.2019  0.0723 -0.4844
 1635TIP3    H126320   1.847   0.338  14.554 -0.9327  0.5086  1.4799
 1635TIP3    H226321   1.906   0.477  14.555  1.0356 -0.2328 -1.9223
 1636TIP3   OH226322   4.127   6.290   1.325  0.4585 -0.5066  0.0718
 1636TIP3    H126323   4.194   6.224   1.309 -0.3964 -0.8063 -2.4358
 1636TIP3    H226324   4.051   6.240   1.354  0.6721 -0.3560  0.8997
 1637TIP3   OH226325   5.487   0.516   2.035  0.0553  0.8596  0.2130
 1637TIP3    H126326   5.533   0.590   2.074 -0.8970  1.6812 -0.1994
 1637TIP3    H226327   5.399   0.549   2.018  0.5540  0.6801 -3.0625
 1638TIP3   OH226328   3.599   4.712  11.211 -0.0107  0.3095  0.1906
 1638TIP3    H126329   3.533   4.742  11.273  0.2430  2.8966 -0.7190
 1638TIP3    H226330   3.679   4.756  11.239  0.9174 -1.3596  0.1816
 1639TIP3   OH226331   3.308   5.958   6.427  0.4047  0.2284  0.3539
 1639TIP3    H126332   3.222   5.916   6.420  1.1266 -1.1373 -0.7435
 1639TIP3    H226333   3.289   6.052   6.428 -1.0640 -0.0401 -0.6178
 1640TIP3   OH226334   1.988   6.365  10.728  0.0757  0.2206  0.7573
 1640TIP3    H126335   1.976   6.431  10.796  0.9964  0.2357  0.9151
 1640TIP3    H226336   2.042   6.408  10.662  1.0518 -0.5104  1.0686
 1641TIP3   OH226337   1.595   2.186   3.619 -0.0759 -0.2634 -0.8084
 1641TIP3    H126338   1.611   2.160   3.528  0.2027 -1.0271 -0.5463
 1641TIP3    H226339   1.575   2.104   3.664  1.2590 -0.0848  0.1411
 1642TIP3   OH226340   6.657   5.816  13.177 -0.2749  0.2466  0.2548
 1642TIP3    H126341   6.588   5.869  13.137 -0.7188 -0.2301  0.3819
 1642TIP3    H226342   6.658   5.842  13.269 -0.0699  0.4770  0.1880
 1643TIP3   OH226343   0.365   4.536  14.137 -0.1814  0.0826  0.2485
 1643TIP3    H126344   0.423   4.612  14.136 -0.6671  0.4472 -1.0306
 1643TIP3    H226345   0.373   4.500  14.225  1.6941  0.3602  0.1972
 1644TIP3   OH226346   4.147   0.663   5.795 -0.3921 -0.1038 -0.1327
 1644TIP3    H126347   4.170   0.755   5.810 -1.0500 -0.0683  0.7199
 1644TIP3    H226348   4.201   0.636   5.721 -1.3328  1.4338 -1.4068
 1645TIP3   OH226349   0.324   6.247  14.223 -0.4258 -0.6787 -0.3136
 1645TIP3    H126350   0.348   6.162  14.186 -0.0553  0.7506 -3.4975
 1645TIP3    H226351   0.387   6.308  14.186 -1.1400  1.1214  1.3653
 1646TIP3   OH226352   3.013   5.007   6.183  0.1725 -0.1570  0.1387
 1646TIP3    H126353   3.061   4.952   6.121  0.1680  0.5632 -0.5226
 1646TIP3    H226354   2.938   4.954   6.209  0.9502 -1.0243  0.6370
 1647TIP3   OH226355   3.810   3.023  13.650 -0.6287 -0.2873  0.1478
 1647TIP3    H126356   3.802   3.038  13.745 -0.7566  0.9027 -0.0363
 1647TIP3    H226357   3.763   3.097  13.611  0.4368 -0.1356 -0.8496
 1648TIP3   OH226358   5.905   1.337   1.350 -0.1410 -0.3760 -0.6235
 1648TIP3    H126359   5.877   1.256   1.307  2.2794 -0.5393 -1.9808
 1648TIP3    H226360   5.876   1.406   1.290 -2.7262 -0.1596  0.8189
 1649TIP3   OH226361   3.526   6.555  15.012 -0.0412  0.1320 -0.7787
 1649TIP3    H126362   3.510   6.614  14.938 -2.9816  1.1340  0.5754
 1649TIP3    H226363   3.539   6.614  15.087 -4.6715 -0.7768  0.9294
 1650TIP3   OH226364   5.798   2.241   1.539  0.3679  0.0181 -0.1543
 1650TIP3    H126365   5.832   2.173   1.597  0.9552 -0.9359 -1.5949
 1650TIP3    H226366   5.875   2.272   1.491 -0.0567  1.0480 -0.1961
 1651TIP3   OH226367   3.937   1.186   1.600 -0.0345 -0.1934 -0.2422
 1651TIP3    H126368   3.995   1.262   1.600 -0.8122  0.4219 -1.1957
 1651TIP3    H226369   3.852   1.222   1.627 -0.1972 -0.8932  0.1758
 1652TIP3   OH226370   0.689   0.246  13.497  0.2294 -0.0736  0.2897
 1652TIP3    H126371   0.681   0.225  13.590 -0.8039 -0.6564  0.0760
 1652TIP3    H226372   0.723   0.165  13.457  0.2695  0.0369  0.1004
 1653TIP3   OH226373   1.901   5.747  14.404 -0.3044  0.1826  0.9074
 1653TIP3    H126374   1.907   5.831  14.449 -0.0891  0.6287  0.0567
 1653TIP3    H226375   1.954   5.687  14.457  1.3710  1.1199  0.3299
 1654TIP3   OH226376   1.074   4.434   0.935 -0.1934  0.4555  0.5538
 1654TIP3    H126377   1.099   4.391   1.017 -0.3086  1.0511  0.9042
 1654TIP3    H226378   1.022   4.369   0.889 -0.1951  0.1445  0.9903
 1655TIP3   OH226379   4.673   1.997  10.674  0.0982  0.1116  0.3101
 1655TIP3    H126380   4.632   1.925  10.625  3.2114 -1.5907  0.0882
 1655TIP3    H226381   4.729   2.040  10.609  0.6956  0.7550  1.2560
 1656TIP3   OH226382   4.202   1.171   6.019  0.0328  0.1110 -0.4266
 1656TIP3    H126383   4.283   1.221   6.028  0.2917 -0.4684  0.4849
 1656TIP3    H226384   4.230   1.081   6.003 -0.4054 -0.2723  0.8705
 1657TIP3   OH226385   0.117   2.909  13.316 -0.4247 -0.2260 -0.4251
 1657TIP3    H126386   0.110   2.835  13.376  1.1394  1.7632  2.2837
 1657TIP3    H226387   0.028   2.922  13.284 -1.3680 -1.1002  1.7465
 1658TIP3   OH226388   4.022   5.315   6.494  0.4936  0.1041 -0.6944
 1658TIP3    H126389   4.115   5.333   6.496  0.5250 -0.1155  0.5603
 1658TIP3    H226390   3.990   5.341   6.581 -0.6692  0.5041 -1.2239
 1659TIP3   OH226391   5.226   0.216  16.969  0.1777  0.5085  0.5351
 1659TIP3    H126392   5.192   0.210  16.880  3.6618  1.3243 -0.9129
 1659TIP3    H226393   5.179   0.290  17.008 -1.6752 -0.1300 -0.4431
 1660TIP3   OH226394   2.211   3.587   1.144 -0.1826 -0.1950 -0.0722
 1660TIP3    H126395   2.255   3.651   1.089 -1.7230 -0.8916 -2.1851
 1660TIP3    H226396   2.281   3.540   1.188  1.0315  1.3296 -0.3486
 1661TIP3   OH226397   2.255   1.808   3.914  0.2477 -0.7308  0.2128
 1661TIP3    H126398   2.201   1.783   3.989  0.5254 -1.4830  0.1581
 1661TIP3    H226399   2.317   1.871   3.950 -1.2664  0.8973  0.0834
 1662TIP3   OH226400   5.632   5.282   0.060  0.1431 -0.2662 -0.2613
 1662TIP3    H126401   5.658   5.205   0.111 -1.8637 -1.1453 -0.4972
 1662TIP3    H226402   5.703   5.293  -0.004  0.1805 -2.3275 -0.6333
 1663TIP3   OH226403   4.748   5.345  15.522  0.4879  0.0334 -0.3395
 1663TIP3    H126404   4.701   5.393  15.590 -0.1129 -0.1388 -0.6283
 1663TIP3    H226405   4.693   5.354  15.444 -0.1893 -2.0294 -0.1289
 1664TIP3   OH226406   2.344   5.685   0.215  0.2999 -0.2595  0.1657
 1664TIP3    H126407   2.377   5.711   0.129  1.2169 -0.6376  0.3931
 1664TIP3    H226408   2.272   5.745   0.232  2.3585  2.1553  0.6896
 1665TIP3   OH226409   2.092   4.648  15.949  0.2297 -0.1787 -0.4968
 1665TIP3    H126410   2.042   4.613  15.875  0.2521 -1.5679  0.1243
 1665TIP3    H226411   2.182   4.653  15.917  0.5643 -2.5283 -0.0054
 1666TIP3   OH226412   5.132   0.375  15.044  0.0930 -0.2726  0.8952
 1666TIP3    H126413   5.157   0.466  15.062 -0.5936 -0.0079  0.5208
 1666TIP3    H226414   5.039   0.370  15.067 -0.0648 -0.6758  0.1805
 1667TIP3   OH226415   1.033   0.489   5.111 -0.6497  0.5267 -0.6743
 1667TIP3    H126416   1.108   0.515   5.058  1.1951 -1.7173  0.7503
 1667TIP3    H226417   1.024   0.395   5.097 -1.2502  0.2129  1.5551
 1668TIP3   OH226418   1.929   3.395   5.611  0.5897 -0.2726  0.0124
 1668TIP3    H126419   1.884   3.313   5.631  4.2744 -1.8796  2.3270
 1668TIP3    H226420   2.006   3.368   5.561  1.1042  1.9308 -0.4279
 1669TIP3   OH226421   4.390   3.048   6.444  0.3158 -0.2177 -0.2212
 1669TIP3    H126422   4.343   2.992   6.382 -0.8363 -0.6313  1.0212
 1669TIP3    H226423   4.382   3.003   6.528  0.8620  0.9451  0.4590
 1670TIP3   OH226424   5.246   3.707  16.979 -0.7851 -0.2612 -0.1156
 1670TIP3    H126425   5.198   3.700  16.896  0.3495 -2.5962 -0.6220
 1670TIP3    H226426   5.275   3.618  16.997  1.0280  0.6449  1.5939
 1671TIP3   OH226427   3.305   2.528  13.098  0.0702 -0.3997  0.0040
 1671TIP3    H126428   3.289   2.612  13.054 -0.7325 -0.6364 -0.1725
 1671TIP3    H226429   3.400   2.517  13.096  0.3964  1.7009  2.2328
 1672TIP3   OH226430   3.562   4.031  12.205  0.0143 -0.0801 -0.0227
 1672TIP3    H126431   3.522   4.112  12.237  1.2522 -0.1325  1.6755
 1672TIP3    H226432   3.562   3.973  12.281  1.2269 -0.8759 -0.6230
 1673TIP3   OH226433   2.083   2.841   1.152  0.5734 -0.3327  0.0706
 1673TIP3    H126434   2.046   2.874   1.071  1.1296 -0.7010 -0.3360
 1673TIP3    H226435   2.156   2.785   1.125 -0.9010 -2.6544  0.6781
 1674TIP3   OH226436   5.522   4.809   0.513  0.3228  0.1152  0.3181
 1674TIP3    H126437   5.460   4.856   0.458 -0.8795 -1.4162  0.3330
 1674TIP3    H226438   5.479   4.803   0.598 -1.3875 -4.5064 -0.7310
 1675TIP3   OH226439   1.131   2.738  14.645  0.4895 -0.1516 -0.1407
 1675TIP3    H126440   1.130   2.743  14.740 -1.0023  0.5096 -0.1762
 1675TIP3    H226441   1.142   2.645  14.626 -1.8577 -0.6173  0.6901
 1676TIP3   OH226442   1.806   5.334   0.650 -0.3456 -0.0254 -0.1654
 1676TIP3    H126443   1.777   5.244   0.636 -0.5976  0.0910 -0.3893
 1676TIP3    H226444   1.875   5.347   0.585 -0.9030  0.2235 -0.7117
 1677TIP3   OH226445   3.389   0.221  13.807  0.0788  0.0830 -0.0345
 1677TIP3    H126446   3.393   0.145  13.866  3.2229  0.0370 -0.2623
 1677TIP3    H226447   3.330   0.282  13.852 -1.0717 -1.7254  1.0132
 1678TIP3   OH226448   2.061   0.564   0.221 -0.0117  0.3685 -0.0369
 1678TIP3    H126449   2.092   0.623   0.152 -1.2025 -0.5328 -1.3808
 1678TIP3    H226450   1.966   0.562   0.210 -0.0456 -1.3576  0.3156
 1679TIP3   OH226451   0.088   3.709   1.486 -0.0788  0.3718 -0.4685
 1679TIP3    H126452   0.048   3.665   1.561  0.3999 -0.4084 -0.6652
 1679TIP3    H226453   0.172   3.665   1.474  0.0350  0.7721 -1.2016
 1680TIP3   OH226454   1.374   0.984   3.465  0.0072 -0.1293 -0.1134
 1680TIP3    H126455   1.287   0.945   3.454  0.7477 -1.9734  0.4277
 1680TIP3    H226456   1.387   0.986   3.560 -0.2972  2.1251 -0.0802
 1681TIP3   OH226457   2.947   5.902   0.977 -0.1545 -0.0941  0.9542
 1681TIP3    H126458   2.929   5.962   1.049 -0.3075  0.3925  0.5170
 1681TIP3    H226459   2.863   5.894   0.931  0.4588  1.3485 -0.4795
 1682TIP3   OH226460   3.608   1.495   3.122  0.0141  0.4558 -0.5243
 1682TIP3    H126461   3.696   1.523   3.096 -0.2116  0.1122 -1.6927
 1682TIP3    H226462   3.583   1.432   3.055 -0.0844 -1.4303  1.2432
 1683TIP3   OH226463   5.443   2.994  15.807  0.5387  0.2303 -0.4572
 1683TIP3    H126464   5.376   3.051  15.771 -0.8463 -0.2591  1.2552
 1683TIP3    H226465   5.480   3.042  15.881  0.6793 -0.3282 -0.1583
 1684TIP3   OH226466   4.150   0.950  14.285 -0.1204 -0.2217 -0.4191
 1684TIP3    H126467   4.190   1.034  14.309  1.6522 -1.1605  0.0278
 1684TIP3    H226468   4.058   0.960  14.306  0.2442  1.2885  0.5384
 1685TIP3   OH226469   0.030   1.127  13.624  0.1333  0.6295  0.7182
 1685TIP3    H126470   0.051   1.171  13.706 -0.2482  2.5295 -0.1708
 1685TIP3    H226471   0.106   1.070  13.607  0.7755  1.1757  1.7347
 1686TIP3   OH226472   0.512   5.389  12.157 -0.2560 -0.2178  0.0439
 1686TIP3    H126473   0.533   5.469  12.205 -0.7634 -0.2444  0.3153
 1686TIP3    H226474   0.526   5.319  12.220  2.3479 -0.5452 -0.8340
 1687TIP3   OH226475   5.038   6.659  13.522 -0.0966  0.0181 -0.7702
 1687TIP3    H126476   5.012   6.586  13.466 -0.5802  0.1300 -0.6926
 1687TIP3    H226477   4.957   6.709  13.535  0.5258  1.3816 -2.0108
 1688TIP3   OH226478   0.277   5.155  14.167 -0.0456  0.1517  0.5891
 1688TIP3    H126479   0.282   5.197  14.253 -0.4535  0.5919  0.3986
 1688TIP3    H226480   0.291   5.227  14.105  1.4349 -0.3497  0.3056
 1689TIP3   OH226481   0.889   0.953  11.560  0.2804 -0.1604  0.2391
 1689TIP3    H126482   0.843   1.035  11.543 -0.3892 -0.3748  0.9909
 1689TIP3    H226483   0.872   0.900  11.482  1.7823  0.8795 -0.8128
 1690TIP3   OH226484   2.024   3.818  13.073  0.1312  0.6180  0.7108
 1690TIP3    H126485   2.036   3.897  13.020  2.5946  0.5399  1.1227
 1690TIP3    H226486   2.102   3.813  13.128 -0.0635 -2.0006  0.8208
 1691TIP3   OH226487   5.455   1.270   4.699 -1.0013 -0.0062  0.5014
 1691TIP3    H126488   5.538   1.316   4.706  0.0170 -1.7094  0.0431
 1691TIP3    H226489   5.390   1.338   4.681  0.5379  1.1565 -0.7264
 1692TIP3   OH226490   5.934   2.230  11.809 -0.0567  0.1430 -0.2908
 1692TIP3    H126491   6.011   2.197  11.855  1.0788  1.4521 -1.2144
 1692TIP3    H226492   5.900   2.154  11.762  0.4589 -0.5256  0.4036
 1693TIP3   OH226493   2.737   4.897  14.540 -0.3596 -0.4082 -0.2575
 1693TIP3    H126494   2.703   4.965  14.483  2.3013  0.0163 -1.3636
 1693TIP3    H226495   2.663   4.836  14.550 -1.4395  0.4550 -2.6291
 1694TIP3   OH226496   6.381   2.472   4.123 -0.0048  0.1831 -0.5649
 1694TIP3    H126497   6.400   2.505   4.210 -2.0913  0.4911 -0.2045
 1694TIP3    H226498   6.358   2.550   4.072 -1.2920 -0.2710 -0.6971
 1695TIP3   OH226499   2.862   3.869   5.365 -0.1442 -0.0002 -0.2919
 1695TIP3    H126500   2.848   3.964   5.364 -1.3693 -0.1727 -2.3478
 1695TIP3    H226501   2.807   3.837   5.437 -3.1035  0.4118 -2.2724
 1696TIP3   OH226502   5.005   2.755  14.857 -0.1493 -0.5547 -0.3573
 1696TIP3    H126503   5.038   2.845  14.869  1.7552 -1.1159 -1.2477
 1696TIP3    H226504   5.010   2.716  14.945  1.4847 -0.5890 -0.4493
 1697TIP3   OH226505   3.581   6.201  12.386 -0.4388  0.3901 -0.9661
 1697TIP3    H126506   3.604   6.293  12.390 -1.1808  0.5281  0.6084
 1697TIP3    H226507   3.662   6.157  12.362  0.7478  1.1518  1.5110
 1698TIP3   OH226508   0.884   4.024  14.282 -0.6231 -0.6997  0.1338
 1698TIP3    H126509   0.897   4.011  14.189  0.1903  0.3046  0.0975
 1698TIP3    H226510   0.970   4.051  14.315 -1.1214 -0.1531  1.0066
 1699TIP3   OH226511   5.914   1.684  14.576 -0.1482  0.4916 -0.2729
 1699TIP3    H126512   5.861   1.760  14.550  1.1743  1.3207 -0.6257
 1699TIP3    H226513   5.954   1.710  14.659 -0.4391 -0.2050  0.0883
 1700TIP3   OH226514   4.289   0.668   2.286  0.1913 -0.8231 -0.0191
 1700TIP3    H126515   4.280   0.610   2.362  0.4224 -0.3377  0.3803
 1700TIP3    H226516   4.244   0.749   2.312  0.7463 -0.4608 -0.1889
 1701TIP3   OH226517   0.420   6.089  12.002  0.0150  0.0715  0.0268
 1701TIP3    H126518   0.441   6.181  12.017 -0.3435  0.4112 -1.5584
 1701TIP3    H226519   0.492   6.056  11.948  0.6430 -0.8422  1.3662
 1702TIP3   OH226520   1.641   3.525   0.898 -0.0675 -0.0107 -0.2677
 1702TIP3    H126521   1.731   3.520   0.928  0.2611  0.6255 -1.1138
 1702TIP3    H226522   1.619   3.618   0.902  0.3005  0.2352 -2.7924
 1703TIP3   OH226523   0.170   3.881  15.634  0.0384 -0.5730  0.0809
 1703TIP3    H126524   0.187   3.844  15.548  0.4320  0.5096 -0.3135
 1703TIP3    H226525   0.138   3.970  15.616 -0.0071 -0.3890  1.0410
 1704TIP3   OH226526   3.636   4.257   3.300 -0.5805  0.2702 -0.5446
 1704TIP3    H126527   3.690   4.188   3.262 -0.4312  0.1542 -0.1198
 1704TIP3    H226528   3.562   4.266   3.239 -0.0466  0.4868 -1.1722
 1705TIP3   OH226529   2.049   2.618   0.558 -0.4086 -0.1677  0.3675
 1705TIP3    H126530   1.972   2.592   0.507  0.2082 -0.1343 -0.6125
 1705TIP3    H226531   2.110   2.544   0.548  0.1281  0.3010  0.1819
 1706TIP3   OH226532   3.652   2.499  15.073 -0.6558  0.2423 -0.0392
 1706TIP3    H126533   3.694   2.414  15.062  0.6301  0.6919  1.2936
 1706TIP3    H226534   3.578   2.481  15.132  0.0085  0.1684  0.7775
 1707TIP3   OH226535   3.428   3.446  15.995 -0.1494  0.0167  0.1078
 1707TIP3    H126536   3.341   3.487  15.997 -0.6371 -0.9542 -0.9419
 1707TIP3    H226537   3.465   3.465  16.081 -1.4261  0.3925  0.5876
 1708TIP3   OH226538   0.552   0.176   3.174  0.0379 -0.1323  0.0963
 1708TIP3    H126539   0.496   0.198   3.100 -0.7927  0.3503  0.8506
 1708TIP3    H226540   0.638   0.160   3.136 -0.3347  0.3149 -0.9412
 1709TIP3   OH226541   1.669   3.609  13.632 -0.1752  0.1257 -0.0635
 1709TIP3    H126542   1.602   3.543  13.616  1.3750 -1.2613 -1.0088
 1709TIP3    H226543   1.668   3.622  13.727 -1.1623 -0.5149  0.0225
 1710TIP3   OH226544   3.839   2.537   4.570 -0.1476  0.7332 -0.6515
 1710TIP3    H126545   3.899   2.579   4.508 -0.2683  1.5051 -0.2589
 1710TIP3    H226546   3.845   2.591   4.649  0.3059 -0.4770  0.1543
 1711TIP3   OH226547   1.289   2.935   3.419 -0.2595 -0.3365 -0.5422
 1711TIP3    H126548   1.330   2.908   3.501  0.3857 -1.1627 -1.1242
 1711TIP3    H226549   1.355   2.993   3.378 -1.2242  1.3588  0.2406
 1712TIP3   OH226550   4.366   6.078  12.637 -0.6522  0.3081  0.6761
 1712TIP3    H126551   4.461   6.065  12.635 -0.5136  1.4389 -0.4773
 1712TIP3    H226552   4.341   6.056  12.727  0.2494 -3.0053  0.1928
 1713TIP3   OH226553   6.675   3.344  12.907  0.0147 -0.5840  0.4157
 1713TIP3    H126554   6.675   3.333  13.002  1.2402 -1.6675  0.2905
 1713TIP3    H226555   6.639   3.432  12.893  1.0917  0.1073  1.9331
 1714TIP3   OH226556   3.126   4.203  12.919  0.3195 -0.5114  0.4554
 1714TIP3    H126557   3.118   4.299  12.926 -1.8598 -0.7266  1.3282
 1714TIP3    H226558   3.219   4.188  12.902  0.6004  1.7947 -0.2393
 1715TIP3   OH226559   2.320   3.903   3.103  0.9651  0.3251  0.0777
 1715TIP3    H126560   2.296   3.991   3.073  1.5904 -0.1731 -1.9574
 1715TIP3    H226561   2.239   3.853   3.096  0.5699  0.7525  1.3845
 1716TIP3   OH226562   5.059   5.014   2.277 -0.3869  0.1391  0.5997
 1716TIP3    H126563   5.053   5.000   2.372  0.6688 -2.2229  0.3541
 1716TIP3    H226564   5.117   5.089   2.267  0.0793 -0.0509  1.8044
 1717TIP3   OH226565   6.676   2.823  14.596 -0.3793  0.3806  0.1072
 1717TIP3    H126566   6.769   2.802  14.584 -0.7620 -2.4306  1.4877
 1717TIP3    H226567   6.637   2.809  14.510  0.1417 -0.5313  0.0099
 1718TIP3   OH226568   1.479   5.725   4.372  0.3857 -0.4504 -0.4183
 1718TIP3    H126569   1.545   5.773   4.322  0.6270  1.6971  1.8475
 1718TIP3    H226570   1.528   5.658   4.419  1.0601  1.2921  1.4451
 1719TIP3   OH226571   1.777   3.151  11.998  0.2017  0.1299  0.3711
 1719TIP3    H126572   1.749   3.148  12.090  0.6601  0.1328  0.5117
 1719TIP3    H226573   1.703   3.115  11.949 -1.4074  3.2612  0.4142
 1720TIP3   OH226574   0.884   3.739   5.376 -0.2798  0.0815  0.7769
 1720TIP3    H126575   0.852   3.824   5.407  1.8632  1.2975 -0.2108
 1720TIP3    H226576   0.971   3.731   5.416  0.1357 -0.9765 -0.3330
 1721TIP3   OH226577   1.562   1.145  13.333 -0.0492  0.3228  0.2448
 1721TIP3    H126578   1.508   1.096  13.271 -0.4934  1.6569 -0.4393
 1721TIP3    H226579   1.622   1.196  13.277  0.3568  0.6144  0.9388
 1722TIP3   OH226580   4.565   5.497   2.898 -0.4746 -0.1642 -0.2542
 1722TIP3    H126581   4.593   5.406   2.894  0.3856  0.1442 -1.2063
 1722TIP3    H226582   4.626   5.544   2.842 -0.2773  1.1625  1.0375
 1723TIP3   OH226583   6.027   0.325  16.781  0.4995  0.2123  0.1249
 1723TIP3    H126584   5.933   0.319  16.765  0.6698  0.3918 -0.9733
 1723TIP3    H226585   6.035   0.342  16.875 -0.4715 -2.3517  0.6912
 1724TIP3   OH226586   4.086   1.587  17.181 -0.0873  0.4988  0.2717
 1724TIP3    H126587   4.121   1.502  17.208 -1.8450 -0.3117  0.0944
 1724TIP3    H226588   4.008   1.565  17.130  0.4397  2.1720 -1.3092
 1725TIP3   OH226589   2.956   5.201   1.683  0.2398  0.1342 -0.4033
 1725TIP3    H126590   2.926   5.290   1.696  0.7766  0.5689 -1.9698
 1725TIP3    H226591   3.034   5.193   1.738 -1.0807 -0.1020  1.4706
 1726TIP3   OH226592   6.016   0.965  12.957 -0.9025 -0.2293 -0.0132
 1726TIP3    H126593   5.985   1.054  12.938  0.8679  0.1629 -1.2290
 1726TIP3    H226594   6.088   0.952  12.896  0.4043 -1.6328  1.7821
 1727TIP3   OH226595   6.448   1.944  16.613 -0.1922 -0.0788  0.3296
 1727TIP3    H126596   6.466   1.971  16.523  1.0617 -1.0025  0.2940
 1727TIP3    H226597   6.454   2.025  16.664 -1.7049  0.5933 -0.5105
 1728TIP3   OH226598   4.585   6.202  15.129  1.0568 -0.0866 -0.2596
 1728TIP3    H126599   4.558   6.110  15.122 -1.3288  0.4851  0.9463
 1728TIP3    H226600   4.628   6.209  15.214 -0.3837  0.2677  0.4624
 1729TIP3   OH226601   2.520   5.691  12.019  0.2588 -0.4192 -0.1178
 1729TIP3    H126602   2.439   5.727  11.985  0.0182  0.2369  1.1244
 1729TIP3    H226603   2.515   5.705  12.113  3.4053  2.9876 -0.3209
 1730TIP3   OH226604   5.358   2.355   0.739  0.2597  0.3574  0.5073
 1730TIP3    H126605   5.311   2.397   0.667 -1.3659 -3.2915 -0.6843
 1730TIP3    H226606   5.301   2.365   0.815 -0.5417 -0.4001  0.0185
 1731TIP3   OH226607   5.383   0.785   5.729 -0.6894  0.0833 -0.3315
 1731TIP3    H126608   5.339   0.701   5.746  2.3185 -1.4443  0.3125
 1731TIP3    H226609   5.398   0.785   5.635 -0.5570 -0.1636 -0.3114
 1732TIP3   OH226610   6.496   2.330   2.116 -0.3855  0.0353 -0.2573
 1732TIP3    H126611   6.560   2.260   2.101  1.0919  0.7711  2.2546
 1732TIP3    H226612   6.451   2.340   2.032  2.3458 -0.9597 -1.9122
 1733TIP3   OH226613   0.455   2.883  15.998  0.1924  0.3968  0.0259
 1733TIP3    H126614   0.430   2.821  15.929  2.0774 -0.9536  0.5218
 1733TIP3    H226615   0.371   2.910  16.036 -0.7289 -1.1465 -0.8202
 1734TIP3   OH226616   6.123   0.771   2.703 -0.0863 -0.6793 -0.3857
 1734TIP3    H126617   6.179   0.838   2.742 -1.9360 -0.2006  1.4878
 1734TIP3    H226618   6.148   0.690   2.747 -1.4593 -0.3166  1.0666
 1735TIP3   OH226619   1.630   1.822   1.841  0.4220 -0.5392 -0.0504
 1735TIP3    H126620   1.655   1.911   1.815  0.6201 -0.5780  0.0038
 1735TIP3    H226621   1.713   1.773   1.841  0.2696 -0.7930 -0.3604
 1736TIP3   OH226622   6.142   1.102  16.884 -0.0446 -0.2998 -0.2840
 1736TIP3    H126623   6.213   1.156  16.849  0.3278 -0.7497 -0.2148
 1736TIP3    H226624   6.182   1.052  16.955 -0.3619 -0.7713 -0.4399
 1737TIP3   OH226625   5.081   0.609   5.468  0.4848 -0.1389 -0.2752
 1737TIP3    H126626   5.132   0.652   5.537  1.2493 -0.0073 -0.9243
 1737TIP3    H226627   5.049   0.528   5.509  2.9460 -1.2604 -0.4800
 1738TIP3   OH226628   5.954   4.955  13.857 -0.1191  0.6093  0.1219
 1738TIP3    H126629   5.939   5.048  13.876  0.7162  0.3904  1.9869
 1738TIP3    H226630   5.914   4.909  13.931  0.2498 -0.4835 -0.3451
 1739TIP3   OH226631   3.529   1.397  14.842  0.4743 -0.6550  0.2971
 1739TIP3    H126632   3.488   1.331  14.898  0.8761 -1.2434 -0.0816
 1739TIP3    H226633   3.601   1.349  14.799 -0.1074 -0.3327 -1.0389
 1740TIP3   OH226634   1.152   4.377   3.282 -0.3825 -0.3209  0.2553
 1740TIP3    H126635   1.128   4.417   3.365  1.5886  0.0590  0.6833
 1740TIP3    H226636   1.245   4.397   3.272 -0.6056 -0.3033 -2.0799
 1741TIP3   OH226637   4.903   4.521  16.769  0.7199  0.0444 -0.9504
 1741TIP3    H126638   4.870   4.595  16.821  1.0414  0.3797 -1.2248
 1741TIP3    H226639   4.825   4.482  16.730  0.5165  0.0416 -0.5468
 1742TIP3   OH226640   6.000   3.803  11.798  0.4407 -0.3293  0.1221
 1742TIP3    H126641   5.911   3.838  11.793  0.4053 -0.1240  1.9037
 1742TIP3    H226642   6.012   3.757  11.715  0.0421  2.7801 -1.7022
 1743TIP3   OH226643   6.763   2.735  10.928 -0.0958  0.0944  0.0272
 1743TIP3    H126644   6.796   2.748  10.839  1.1924  0.1545  0.4982
 1743TIP3    H226645   6.675   2.772  10.926  0.4624  1.4460 -0.8452
 1744TIP3   OH226646   1.275   0.466   1.645  0.4410  0.4576  0.7080
 1744TIP3    H126647   1.363   0.468   1.682 -0.4587 -1.3862  3.1112
 1744TIP3    H226648   1.271   0.384   1.596  0.1570  0.6822  0.3489
 1745TIP3   OH226649   1.012   4.893   2.216  0.0423 -0.0701 -0.0645
 1745TIP3    H126650   0.939   4.940   2.175  0.3827  2.0672  1.6781
 1745TIP3    H226651   0.971   4.821   2.263 -0.6573 -0.6071 -1.4689
 1746TIP3   OH226652   5.916   1.064   0.925 -0.1353 -0.1111  0.8946
 1746TIP3    H126653   5.896   0.977   0.959  0.0145  0.0894  1.5016
 1746TIP3    H226654   6.008   1.078   0.948  0.4280 -0.6035 -0.9614
 1747TIP3   OH226655   0.376   2.527   1.238 -0.2539 -0.3567 -0.3329
 1747TIP3    H126656   0.439   2.597   1.249  0.5678 -1.0151 -0.7983
 1747TIP3    H226657   0.290   2.570   1.245  0.2404  0.3735  1.3150
 1748TIP3   OH226658   5.369   4.089   4.985  0.2350  0.2167 -0.5262
 1748TIP3    H126659   5.349   4.171   4.940  0.1750  1.0597  1.0133
 1748TIP3    H226660   5.298   4.079   5.049  1.1928 -0.1177  0.5032
 1749TIP3   OH226661   2.897   1.748  17.154 -0.0484 -0.3062  0.6307
 1749TIP3    H126662   2.883   1.809  17.226 -0.4655 -0.4601  0.6755
 1749TIP3    H226663   2.976   1.781  17.111 -0.2284  0.2209  0.7004
 1750TIP3   OH226664   0.595   0.654   0.629  0.0130  0.1040  0.2889
 1750TIP3    H126665   0.620   0.746   0.631  0.7610  0.0333 -2.5185
 1750TIP3    H226666   0.500   0.655   0.633  0.0929  0.8785  2.2868
 1751TIP3   OH226667   5.151   3.224  13.956  0.7742 -0.0837  0.9267
 1751TIP3    H126668   5.144   3.318  13.969 -2.5059 -0.3134  1.1682
 1751TIP3    H226669   5.156   3.213  13.861  0.5894  0.3046  0.8698
 1752TIP3   OH226670   1.660   4.432  10.742 -0.0259  0.1459  0.7357
 1752TIP3    H126671   1.628   4.477  10.664 -0.5252 -0.0565  0.8208
 1752TIP3    H226672   1.752   4.459  10.749  0.6020 -1.3615 -1.0476
 1753TIP3   OH226673   6.250   4.949   1.663 -1.2785 -0.3500  0.3353
 1753TIP3    H126674   6.332   4.899   1.659 -1.7382 -1.0789  0.0032
 1753TIP3    H226675   6.228   4.950   1.756 -0.9035 -0.1711  0.4232
 1754TIP3   OH226676   4.357   5.708  13.225 -0.1186  0.0134  0.2709
 1754TIP3    H126677   4.414   5.633  13.208 -0.0464  0.2900 -0.7800
 1754TIP3    H226678   4.285   5.672  13.277  0.1394 -0.6944  0.1428
 1755TIP3   OH226679   2.106   1.029   4.056 -0.0402  0.6543 -0.3640
 1755TIP3    H126680   2.108   0.986   4.141 -0.1906 -0.0503 -0.7132
 1755TIP3    H226681   2.013   1.037   4.035  0.0079 -0.7378 -1.2289
 1756TIP3   OH226682   1.883   5.318  14.917 -0.3928  0.3157  0.9871
 1756TIP3    H126683   1.883   5.296  14.824 -1.2267 -0.8789  1.2576
 1756TIP3    H226684   1.911   5.410  14.920 -0.0974  0.2799 -0.4154
 1757TIP3   OH226685   5.263   5.420   2.219  0.1619  0.2186  0.2165
 1757TIP3    H126686   5.230   5.389   2.135  0.4074  0.3304  0.0771
 1757TIP3    H226687   5.323   5.352   2.248  1.1821  0.8396 -0.3886
 1758TIP3   OH226688   6.060   0.010  13.133 -0.5236  0.4145 -0.2916
 1758TIP3    H126689   6.001   0.073  13.092 -1.4895 -0.6795 -0.6112
 1758TIP3    H226690   6.014  -0.074  13.126  0.9710 -0.4144 -0.3389
 1759TIP3   OH226691   4.408   1.137   0.987  0.7492  0.1795 -0.1003
 1759TIP3    H126692   4.313   1.149   0.998  0.5346 -0.5822 -1.0530
 1759TIP3    H226693   4.433   1.204   0.924  0.7384 -0.0400 -0.3348
 1760TIP3   OH226694   6.269   5.597  16.867 -0.0653  0.0308 -0.3434
 1760TIP3    H126695   6.360   5.590  16.838  0.2411 -1.9933  0.9885
 1760TIP3    H226696   6.266   5.549  16.949 -2.0376  1.3075  0.3908
 1761TIP3   OH226697   2.076   4.062   5.152  0.1021 -0.2019 -0.1013
 1761TIP3    H126698   2.052   4.154   5.145 -1.4462 -0.5796  0.0972
 1761TIP3    H226699   2.079   4.044   5.246  0.5461 -0.3210 -0.1353
 1762TIP3   OH226700   4.452   2.220   4.240 -0.0934  0.6729  0.2730
 1762TIP3    H126701   4.530   2.229   4.295  0.2388  1.8430 -0.3728
 1762TIP3    H226702   4.486   2.200   4.153 -0.6065 -0.8268  0.3872
 1763TIP3   OH226703   3.563   3.850   5.621  0.3313 -0.3264 -0.5751
 1763TIP3    H126704   3.630   3.913   5.597  2.2542 -1.8589  0.6599
 1763TIP3    H226705   3.498   3.900   5.669  1.5076  0.8346 -0.1856
 1764TIP3   OH226706   4.445   1.286  15.103 -0.3578 -0.2405 -0.0880
 1764TIP3    H126707   4.379   1.254  15.041 -0.3953 -2.3100  0.9598
 1764TIP3    H226708   4.476   1.368  15.065 -3.2723  0.6066 -0.7823
 1765TIP3   OH226709   3.674   5.171  16.638 -0.0477  0.5278 -0.0400
 1765TIP3    H126710   3.743   5.223  16.597  1.5606 -2.4206 -1.3149
 1765TIP3    H226711   3.714   5.135  16.717 -0.2752 -0.7321 -0.4785
 1766TIP3   OH226712   0.416   1.569   2.922  0.3536 -0.4783  0.0853
 1766TIP3    H126713   0.432   1.475   2.926 -0.2810 -0.5433  1.3253
 1766TIP3    H226714   0.363   1.581   2.844  0.3336 -1.1692 -0.0103
 1767TIP3   OH226715   5.072   3.379   1.046  0.2610  0.2236 -0.0514
 1767TIP3    H126716   5.114   3.385   0.960  0.5244 -0.7325  0.0056
 1767TIP3    H226717   5.077   3.468   1.081 -0.6997  0.8522 -1.4278
 1768TIP3   OH226718   1.205   0.441  11.544  0.0125  0.0348 -0.3693
 1768TIP3    H126719   1.205   0.347  11.527 -0.1370  0.2050 -1.3386
 1768TIP3    H226720   1.143   0.452  11.615  2.9519 -1.0622  2.5002
 1769TIP3   OH226721   3.423   4.932   2.376  0.7306  0.1566  0.3536
 1769TIP3    H126722   3.449   4.914   2.286 -0.1947 -0.4331  0.1902
 1769TIP3    H226723   3.431   4.847   2.421 -0.0552  0.1459  0.4938
 1770TIP3   OH226724   0.591   2.589  16.382 -0.2265 -0.1974  0.0207
 1770TIP3    H126725   0.517   2.625  16.430 -1.7455 -1.0019 -1.6618
 1770TIP3    H226726   0.644   2.545  16.449 -2.3680 -1.4100  0.9727
 1771TIP3   OH226727   3.961   5.838   4.828  0.1213  0.0694  0.0763
 1771TIP3    H126728   3.973   5.898   4.754  1.1909  0.4702  0.5675
 1771TIP3    H226729   3.900   5.772   4.796  0.0173  0.6484 -0.9269
 1772TIP3   OH226730   1.561   0.285  11.504  0.1119 -0.2257  0.1652
 1772TIP3    H126731   1.583   0.378  11.510  0.9240 -0.4528  0.7731
 1772TIP3    H226732   1.630   0.247  11.450  0.9664 -0.8560  1.6859
 1773TIP3   OH226733   4.702   1.795  12.244 -0.2335 -0.3348 -0.0152
 1773TIP3    H126734   4.745   1.873  12.209  0.8044 -1.5471 -1.5490
 1773TIP3    H226735   4.695   1.812  12.338  1.3570  0.9723 -0.0998
 1774TIP3   OH226736   2.584   5.613  15.570 -0.5708 -0.4466  0.1885
 1774TIP3    H126737   2.491   5.605  15.552 -0.5799 -1.8325  0.7814
 1774TIP3    H226738   2.610   5.526  15.600  0.4108  0.5516  2.3177
 1775TIP3   OH226739   4.600   3.437   1.017  0.3880 -0.3795  0.3431
 1775TIP3    H126740   4.630   3.365   1.073  1.3532 -0.7830 -0.6614
 1775TIP3    H226741   4.633   3.414   0.930  1.0978  1.4962  0.0854
 1776TIP3   OH226742   1.389   0.598   6.569 -1.1352 -0.3114 -0.2956
 1776TIP3    H126743   1.304   0.582   6.609 -0.2988 -0.5866  1.4368
 1776TIP3    H226744   1.418   0.512   6.539 -0.9910 -0.4141  0.1269
 1777TIP3   OH226745   1.347   1.963   0.665 -0.6627  0.5972  0.1106
 1777TIP3    H126746   1.403   2.029   0.707 -0.8130  1.3043 -0.7662
 1777TIP3    H226747   1.405   1.919   0.603 -1.0824  1.4271 -0.9020
 1778TIP3   OH226748   5.929   0.325  17.054  0.2289  0.0777  0.7955
 1778TIP3    H126749   5.863   0.256  17.054 -0.6650  0.9196 -0.6558
 1778TIP3    H226750   5.880   0.405  17.073  0.2480  1.2101 -3.3932
 1779TIP3   OH226751   5.619   1.383  14.040  0.8226 -0.1101 -0.3414
 1779TIP3    H126752   5.575   1.448  14.095 -0.5048 -0.9153 -0.4432
 1779TIP3    H226753   5.602   1.413  13.950  0.3521 -0.5059 -0.3851
 1780TIP3   OH226754   5.869   4.821  17.015 -0.1771  0.1454  0.2192
 1780TIP3    H126755   5.782   4.798  17.047 -1.3313 -1.0588 -3.5051
 1780TIP3    H226756   5.924   4.747  17.039 -0.8189 -0.3550  0.1516
 1781TIP3   OH226757   5.979   5.988  12.575  0.2853  0.0009 -0.1366
 1781TIP3    H126758   5.972   5.899  12.608  0.4592 -0.4104 -1.1926
 1781TIP3    H226759   5.906   6.035  12.615  1.8659  0.1461  2.7569
 1782TIP3   OH226760   1.682   2.482   4.017 -0.9855 -0.0690 -0.1251
 1782TIP3    H126761   1.646   2.498   4.104 -1.8858  0.8146 -0.6547
 1782TIP3    H226762   1.609   2.442   3.969 -0.3011 -1.1336 -0.2944
 1783TIP3   OH226763   4.393   6.031  13.187  0.0132  0.3935  0.1680
 1783TIP3    H126764   4.314   6.035  13.133 -0.7204  0.3327  1.2286
 1783TIP3    H226765   4.455   5.980  13.135 -0.9866 -0.4288 -0.2281
 1784TIP3   OH226766   3.198   0.877   1.024 -0.3874  0.1484 -0.2885
 1784TIP3    H126767   3.197   0.890   0.930  0.3982 -1.3437 -0.5118
 1784TIP3    H226768   3.250   0.950   1.058  0.4504 -0.0568 -1.1203
 1785TIP3   OH226769   0.811   0.792   5.256  0.1252  0.2939 -0.2213
 1785TIP3    H126770   0.874   0.730   5.293  0.4156 -0.3693 -1.7475
 1785TIP3    H226771   0.727   0.747   5.261  0.2300  0.0346 -0.7169
 1786TIP3   OH226772   4.468   3.635  14.115  0.4313  0.0826  0.7938
 1786TIP3    H126773   4.474   3.729  14.131 -3.4197  0.4091  0.8640
 1786TIP3    H226774   4.436   3.599  14.198  0.9953 -1.1907  0.4796
 1787TIP3   OH226775   1.341   1.660   0.649 -0.1449  0.5313  1.0243
 1787TIP3    H126776   1.321   1.646   0.557 -0.0409  1.3332  0.8711
 1787TIP3    H226777   1.299   1.743   0.670  0.7804  0.9207  1.3892
 1788TIP3   OH226778   0.696   1.052  12.509 -0.2441 -0.0654 -0.1305
 1788TIP3    H126779   0.742   1.124  12.465 -0.6412  0.6483  0.6003
 1788TIP3    H226780   0.684   0.986  12.441  1.1266  0.0866 -0.5380
 1789TIP3   OH226781   1.873   0.835   0.523 -0.5207  0.0553 -0.7752
 1789TIP3    H126782   1.847   0.771   0.457  0.2329 -1.4007  0.3033
 1789TIP3    H226783   1.823   0.913   0.502 -3.3175 -1.6343 -0.6619
 1790TIP3   OH226784   5.522   2.976   0.800  0.1483 -0.1002  0.1830
 1790TIP3    H126785   5.512   2.957   0.893  0.0114 -0.5233  0.0862
 1790TIP3    H226786   5.478   3.059   0.787  1.0508  0.4667  0.6904
 1791TIP3   OH226787   1.517   4.162   1.900 -0.9407  0.3051 -0.2060
 1791TIP3    H126788   1.533   4.095   1.967  0.4088  1.0795  0.2711
 1791TIP3    H226789   1.422   4.160   1.887 -0.7796 -2.6981 -1.2717
 1792TIP3   OH226790   2.810   3.054   5.719 -0.3490  0.6309  0.1506
 1792TIP3    H126791   2.822   2.975   5.772 -1.9579 -0.1571 -0.6424
 1792TIP3    H226792   2.873   3.045   5.648  0.8811  1.0441  1.1790
 1793TIP3   OH226793   4.653   4.538   0.523  0.4464  0.1352  0.1924
 1793TIP3    H126794   4.721   4.494   0.575 -1.3253  0.9574  3.3296
 1793TIP3    H226795   4.578   4.479   0.526  0.9155 -0.7461 -3.2247
 1794TIP3   OH226796   2.870   2.511  16.087  0.1445 -0.2284  0.2604
 1794TIP3    H126797   2.935   2.497  16.018  0.7547 -0.4583  0.8759
 1794TIP3    H226798   2.908   2.580  16.142 -0.7896  0.6659 -0.1938
 1795TIP3   OH226799   5.580   4.014  12.714 -0.0011  0.1441  0.0026
 1795TIP3    H126800   5.671   4.010  12.683  0.1550  1.6539  0.2391
 1795TIP3    H226801   5.537   4.076  12.655 -0.3243  1.1047  1.2340
 1796TIP3   OH226802   4.273   2.982  11.662  0.4255 -0.2087 -0.3483
 1796TIP3    H126803   4.349   2.989  11.721 -0.8052  1.8699  1.0388
 1796TIP3    H226804   4.211   2.927  11.710 -0.1328  0.5830 -0.1416
 1797TIP3   OH226805   6.356   2.251   0.150  0.4227 -0.2766  0.2034
 1797TIP3    H126806   6.354   2.302   0.231 -0.1116  0.9440 -0.5618
 1797TIP3    H226807   6.281   2.283   0.099  0.6914 -1.0905 -0.7338
 1798TIP3   OH226808   2.357   3.019  17.218  0.0088  0.1538  0.1068
 1798TIP3    H126809   2.449   3.044  17.214  0.4506 -1.1995  1.4659
 1798TIP3    H226810   2.340   3.007  17.312 -1.1800 -0.9500 -0.2467
 1799TIP3   OH226811   4.149   0.163  14.990  0.0734  0.0459 -0.1192
 1799TIP3    H126812   4.073   0.210  14.957  0.8705  1.2738 -0.2341
 1799TIP3    H226813   4.224   0.216  14.964  1.1641 -2.2696 -1.9952
 1800TIP3   OH226814   3.304   0.370   2.349  0.1269  0.2251  0.2178
 1800TIP3    H126815   3.380   0.335   2.303  2.0306  0.0500  3.3335
 1800TIP3    H226816   3.231   0.361   2.287  2.5587  0.1338 -2.7299
 1801TIP3   OH226817   5.565   2.694  14.135 -0.3763 -0.0936 -0.1125
 1801TIP3    H126818   5.560   2.620  14.195 -2.3026 -0.9626 -1.2779
 1801TIP3    H226819   5.482   2.691  14.087  0.8377  0.9487 -2.3616
 1802TIP3   OH226820   4.133   5.789   2.983  0.1307 -0.1616  0.1930
 1802TIP3    H126821   4.183   5.728   3.038 -0.1989 -0.8698 -0.2875
 1802TIP3    H226822   4.041   5.767   3.001 -0.0019  0.5113  0.3688
 1803TIP3   OH226823   3.539   1.376   4.706  0.1338 -0.2604  0.0867
 1803TIP3    H126824   3.605   1.341   4.646  0.7739 -0.2940  0.8024
 1803TIP3    H226825   3.491   1.299   4.736  0.5739 -0.3664  0.5177
 1804TIP3   OH226826   1.697   3.722  12.264 -0.3018 -0.3834 -0.2385
 1804TIP3    H126827   1.758   3.727  12.190 -0.4337 -0.0409 -0.3231
 1804TIP3    H226828   1.691   3.629  12.283 -0.4274 -0.4890 -0.7923
 1805TIP3   OH226829   5.028   1.326   0.608 -0.0122  0.0591  0.0358
 1805TIP3    H126830   5.072   1.273   0.675  0.0056  0.5018  0.3802
 1805TIP3    H226831   4.953   1.274   0.581 -1.5470  1.0097  2.3238
 1806TIP3   OH226832   1.024   6.558   5.809 -0.3469 -0.1837 -0.5340
 1806TIP3    H126833   0.984   6.483   5.765  0.8102 -1.5446  0.6722
 1806TIP3    H226834   1.083   6.596   5.744  1.0435 -1.9288 -0.3214
 1807TIP3   OH226835   1.586   1.991  14.931 -0.2053  0.1807 -0.8110
 1807TIP3    H126836   1.571   1.897  14.946 -0.8141  0.2362 -1.0643
 1807TIP3    H226837   1.680   1.998  14.917 -0.2016 -0.4417 -1.1324
 1808TIP3   OH226838   0.226   1.603  13.283 -0.5390  0.3519 -0.4710
 1808TIP3    H126839   0.201   1.619  13.374 -2.8580 -0.2960 -0.9633
 1808TIP3    H226840   0.313   1.564  13.289 -1.4232 -1.4073  1.6007
 1809TIP3   OH226841   1.996   4.664  15.284  0.2701  0.2147  0.6922
 1809TIP3    H126842   1.949   4.691  15.206 -0.1459  0.3882  0.9974
 1809TIP3    H226843   2.015   4.572  15.270  1.4589  0.5911 -0.2373
 1810TIP3   OH226844   4.511   0.305  12.091 -0.4839 -0.0883 -0.2082
 1810TIP3    H126845   4.513   0.397  12.068  0.0034  0.1885  0.8987
 1810TIP3    H226846   4.580   0.295  12.157 -1.0854 -1.0729  0.2856
 1811TIP3   OH226847   6.261   1.889  15.687 -0.0123 -0.0575 -0.3221
 1811TIP3    H126848   6.216   1.876  15.771 -0.2704  2.4813 -0.0083
 1811TIP3    H226849   6.209   1.841  15.623 -1.8050  0.8182  0.4503
 1812TIP3   OH226850   5.692   1.245  13.459 -0.1345 -0.1837 -0.5048
 1812TIP3    H126851   5.610   1.269  13.415  1.3089  1.4582 -2.3902
 1812TIP3    H226852   5.736   1.186  13.397  0.6045 -0.1577 -0.0036
 1813TIP3   OH226853   5.742   0.285  11.540 -0.4292 -0.0371 -0.4434
 1813TIP3    H126854   5.670   0.320  11.487  0.4444  0.3032 -1.4161
 1813TIP3    H226855   5.821   0.302  11.489  0.1663 -2.2420 -0.3262
 1814TIP3   OH226856   5.627   1.304   0.184  0.3956 -0.7859  0.2924
 1814TIP3    H126857   5.669   1.229   0.226 -0.5044 -2.7306 -2.0878
 1814TIP3    H226858   5.666   1.307   0.096 -0.7249  0.5547 -0.1853
 1815TIP3   OH226859   5.629   0.890  14.056 -1.1299  0.3945  0.4863
 1815TIP3    H126860   5.724   0.899  14.047 -0.7685 -1.5586  2.0946
 1815TIP3    H226861   5.603   0.970  14.103 -0.4137  1.3120 -0.6441
 1816TIP3   OH226862   4.025   4.085  15.147 -0.0752  0.1642 -0.8395
 1816TIP3    H126863   3.933   4.107  15.158 -0.1931  0.7806 -2.8582
 1816TIP3    H226864   4.024   4.010  15.087  0.7656  0.7601 -1.6092
 1817TIP3   OH226865   3.705   1.316   4.490  0.5549 -0.0800  0.2115
 1817TIP3    H126866   3.787   1.271   4.507  0.6914 -0.0156 -0.2587
 1817TIP3    H226867   3.724   1.375   4.417 -0.2403 -1.0595 -0.8140
 1818TIP3   OH226868   1.434   3.368  13.936 -0.4554  0.0849 -0.0572
 1818TIP3    H126869   1.389   3.301  13.885 -1.3394  1.5307 -1.2181
 1818TIP3    H226870   1.378   3.382  14.012 -0.2026 -0.5578  0.2582
 1819TIP3   OH226871   3.935   3.090  11.618  0.0070 -0.2730  0.0516
 1819TIP3    H126872   3.892   3.082  11.703 -1.0258 -0.4577 -0.4840
 1819TIP3    H226873   3.893   3.024  11.563  1.4215 -0.8967 -0.3031
 1820TIP3   OH226874   2.107   1.415  16.193  0.4376 -0.3813  0.5227
 1820TIP3    H126875   2.156   1.460  16.124  0.6788  2.0632  2.2193
 1820TIP3    H226876   2.045   1.359  16.146  0.1449  1.7083 -1.7161
 1821TIP3   OH226877   2.552   2.888   1.788 -0.0223 -0.1645  0.2127
 1821TIP3    H126878   2.607   2.842   1.851 -2.4667 -1.5023  1.4253
 1821TIP3    H226879   2.502   2.950   1.840  0.8699  1.5772 -0.9792
 1822TIP3   OH226880   6.218   3.562  16.004 -0.6084  0.3208  0.1670
 1822TIP3    H126881   6.202   3.601  15.918 -0.8460 -0.9760 -0.3907
 1822TIP3    H226882   6.313   3.549  16.007 -0.6005  0.3664  0.0917
 1823TIP3   OH226883   5.228   4.661  11.932 -0.2647  0.5033  0.2682
 1823TIP3    H126884   5.185   4.637  12.013 -0.0357 -0.3798  0.1311
 1823TIP3    H226885   5.277   4.583  11.906 -1.0836  0.4528 -1.2050
 1824TIP3   OH226886   3.634   5.201  16.979 -0.3355 -0.1976 -0.0990
 1824TIP3    H126887   3.718   5.191  17.024  0.1200 -0.0755 -0.9117
 1824TIP3    H226888   3.596   5.113  16.977  0.6739 -0.6240 -1.4539
 1825TIP3   OH226889   5.302   4.436   2.280 -0.2932  0.0076 -0.6104
 1825TIP3    H126890   5.362   4.367   2.254 -0.4985 -0.4581  0.1627
 1825TIP3    H226891   5.215   4.400   2.263 -0.4296 -0.3130  0.7818
 1826TIP3   OH226892   4.061   2.504   3.576 -0.0248 -0.3875 -0.2878
 1826TIP3    H126893   4.016   2.532   3.655  0.2705  0.6759 -0.4962
 1826TIP3    H226894   4.097   2.418   3.598  2.3424  1.0601  1.6270
 1827TIP3   OH226895   6.371   6.238   5.581  0.4747  0.2618 -0.4109
 1827TIP3    H126896   6.306   6.297   5.543 -1.0297  0.8604  2.9803
 1827TIP3    H226897   6.337   6.151   5.564 -0.1511  0.5147 -0.4764
 1828TIP3   OH226898   2.627   0.906   4.311  0.6647  0.5403 -0.4786
 1828TIP3    H126899   2.598   0.900   4.220 -2.1759  0.2325  0.4090
 1828TIP3    H226900   2.636   0.999   4.328  0.4021  0.6261 -0.8140
 1829TIP3   OH226901   1.215   4.274  12.342 -0.0833 -0.1844 -0.1798
 1829TIP3    H126902   1.207   4.242  12.432 -0.1772  1.0709  0.2677
 1829TIP3    H226903   1.299   4.240  12.311 -0.6712 -1.7512 -0.0922
 1830TIP3   OH226904   5.860   6.574   6.536 -0.9565 -0.4222  0.1330
 1830TIP3    H126905   5.883   6.663   6.565  0.6007 -0.9384  0.5133
 1830TIP3    H226906   5.866   6.521   6.616 -1.0423 -1.0271 -0.2616
 1831TIP3   OH226907   0.208   3.305  11.777 -0.2501 -0.5783  0.3343
 1831TIP3    H126908   0.118   3.331  11.796  0.0162  1.6964 -1.2550
 1831TIP3    H226909   0.252   3.307  11.862 -0.8542  1.8927  0.6187
 1832TIP3   OH226910   1.543   5.807   3.999  0.2905 -0.1996 -0.1258
 1832TIP3    H126911   1.456   5.797   3.959 -0.1863  0.0685  0.8232
 1832TIP3    H226912   1.592   5.731   3.970 -0.9224 -1.4384  0.9720
 1833TIP3   OH226913   1.729   4.665  17.085 -0.2367  0.0879 -0.6693
 1833TIP3    H126914   1.639   4.693  17.068 -0.0542  0.6322 -0.7677
 1833TIP3    H226915   1.739   4.678  17.180 -0.3361 -0.1875 -0.6207
 1834TIP3   OH226916   5.235   4.884  12.067 -0.4221 -0.1820 -0.3594
 1834TIP3    H126917   5.229   4.819  11.997 -1.1635  0.4831 -0.9251
 1834TIP3    H226918   5.315   4.862  12.114  0.1180 -0.5803 -1.4631
 1835TIP3   OH226919   5.349   4.897  14.409  0.3099  0.1634 -0.3646
 1835TIP3    H126920   5.266   4.918  14.367  0.7359  1.8541 -0.4123
 1835TIP3    H226921   5.339   4.926  14.499  0.1688 -1.4549  0.1594
 1836TIP3   OH226922   3.324   2.643   5.251  0.5099  0.2205  1.1820
 1836TIP3    H126923   3.356   2.710   5.311 -0.4378  0.1746  1.7420
 1836TIP3    H226924   3.242   2.678   5.217  0.9718  0.1968 -0.0125
 1837TIP3   OH226925   3.416   4.052   3.130 -0.0338  0.0872 -0.0312
 1837TIP3    H126926   3.359   4.073   3.056  1.1008  1.5091 -0.5116
 1837TIP3    H226927   3.502   4.037   3.091  0.8005  1.8272  1.0796
 1838TIP3   OH226928   6.234   5.117   2.209 -0.2014 -0.1614  0.6040
 1838TIP3    H126929   6.190   5.198   2.232 -0.0906 -0.0443  0.4053
 1838TIP3    H226930   6.209   5.055   2.278  0.6055  0.3471  1.3648
 1839TIP3   OH226931   5.741   3.928  15.664 -0.3662  0.0232  0.4189
 1839TIP3    H126932   5.703   3.978  15.736 -1.9090  0.9606 -1.0220
 1839TIP3    H226933   5.816   3.980  15.636  0.5033 -0.5613  1.6032
 1840TIP3   OH226934   0.983   0.939  12.290  0.4822  0.0509 -0.3337
 1840TIP3    H126935   0.984   1.004  12.361  0.6267 -0.5066  0.1756
 1840TIP3    H226936   0.946   0.986  12.216  1.8810  1.1358 -0.3621
 1841TIP3   OH226937   6.614   5.762  13.742 -0.4013  0.1654  0.0768
 1841TIP3    H126938   6.628   5.854  13.768  1.1345 -0.3521  1.1734
 1841TIP3    H226939   6.628   5.712  13.823 -0.5489 -1.0922 -0.6650
 1842TIP3   OH226940   1.712   6.432  14.500 -0.1133  0.1342 -0.0050
 1842TIP3    H126941   1.664   6.475  14.571  1.4563  1.9023  0.0351
 1842TIP3    H226942   1.710   6.496  14.428 -1.2349 -1.4187 -1.3769
 1843TIP3   OH226943   2.072   1.980  13.171  0.0751 -0.6463 -0.4404
 1843TIP3    H126944   2.026   1.972  13.088  0.7277  1.0151 -0.9810
 1843TIP3    H226945   2.024   2.048  13.219  0.7433 -0.3614 -0.1693
 1844TIP3   OH226946   2.879   4.339   1.349 -0.0776 -0.2185  0.2437
 1844TIP3    H126947   2.898   4.277   1.419  2.2791 -0.2848 -0.4314
 1844TIP3    H226948   2.856   4.284   1.274  1.5580 -0.2992 -0.2215
 1845TIP3   OH226949   4.129   5.662  14.880 -0.5948 -0.1719 -0.0294
 1845TIP3    H126950   4.169   5.634  14.798 -1.5037 -2.7919  0.3527
 1845TIP3    H226951   4.175   5.742  14.904  1.6610 -0.9348 -1.6401
 1846TIP3   OH226952   1.095   6.104  12.303  0.7963 -0.4648  0.1155
 1846TIP3    H126953   1.033   6.033  12.284 -0.3014  0.7432 -1.0013
 1846TIP3    H226954   1.095   6.110  12.399 -1.2676 -0.1430  0.1375
 1847TIP3   OH226955   3.622   1.692  12.979  0.4570 -0.7465  0.3896
 1847TIP3    H126956   3.563   1.627  13.017  1.2534 -0.9617  1.2567
 1847TIP3    H226957   3.612   1.680  12.884 -2.4240  0.6026  0.4546
 1848TIP3   OH226958   3.177   1.095   0.293  0.2639 -0.0398 -0.1263
 1848TIP3    H126959   3.164   1.185   0.263 -0.4569 -0.3181 -0.6661
 1848TIP3    H226960   3.241   1.103   0.364  1.0982  0.7556 -0.9482
 1849TIP3   OH226961   0.989   0.506  11.393 -0.0980  0.3526 -0.0195
 1849TIP3    H126962   0.989   0.450  11.316 -0.0028 -0.4942  0.5863
 1849TIP3    H226963   1.077   0.497  11.430  0.2502  1.7103 -0.4944
 1850TIP3   OH226964   2.433   4.670   3.224  0.1798  0.3583 -0.3453
 1850TIP3    H126965   2.431   4.621   3.142  2.1555 -1.4984  0.6336
 1850TIP3    H226966   2.406   4.606   3.290 -2.3065  2.0873  0.3804
 1851TIP3   OH226967   6.168   3.743   2.568 -0.0355 -0.0431 -1.0103
 1851TIP3    H126968   6.099   3.809   2.578  1.1675  0.8070  2.1205
 1851TIP3    H226969   6.127   3.661   2.593  0.0773  0.4651  0.8763
 1852TIP3   OH226970   5.334   1.634   1.904  0.7241 -0.0013 -0.2667
 1852TIP3    H126971   5.277   1.589   1.966  1.2058 -0.6870 -0.3153
 1852TIP3    H226972   5.386   1.693   1.959  0.5990 -0.0332 -0.1110
 1853TIP3   OH226973   4.002   3.759  12.091  0.2072 -0.2487  0.1326
 1853TIP3    H126974   4.020   3.788  12.002  0.6415 -1.2573 -0.1173
 1853TIP3    H226975   3.949   3.681  12.081 -0.0318 -0.1719  0.7693
 1854TIP3   OH226976   6.730   6.538   4.749 -0.1316 -0.3329  0.3614
 1854TIP3    H126977   6.680   6.584   4.816  0.3445  0.5516  0.1113
 1854TIP3    H226978   6.719   6.445   4.770  0.8477 -0.0318  2.2466
 1855TIP3   OH226979   4.084   3.429  16.407 -0.2042  0.4659 -0.1310
 1855TIP3    H126980   4.035   3.351  16.436 -0.2441  0.8013  0.7215
 1855TIP3    H226981   4.089   3.484  16.485  0.7713  0.8383 -0.4507
 1856TIP3   OH226982   2.229   2.701  11.612  0.0409  0.2963 -0.2809
 1856TIP3    H126983   2.317   2.708  11.648  0.6961  0.9113 -1.9620
 1856TIP3    H226984   2.241   2.658  11.527 -1.4555 -1.0180  0.1462
 1857TIP3   OH226985   2.827   1.527   4.574 -0.2122  0.1798  0.9120
 1857TIP3    H126986   2.765   1.477   4.521 -0.8178  0.7553  1.0640
 1857TIP3    H226987   2.780   1.608   4.596  1.1037  1.2732 -0.1802
 1858TIP3   OH226988   1.506   0.377  14.187 -0.5130 -0.3201  0.5548
 1858TIP3    H126989   1.565   0.451  14.200  1.8470 -2.1944  0.7914
 1858TIP3    H226990   1.505   0.332  14.271 -0.2052 -1.7902 -0.2181
 1859TIP3   OH226991   2.977   1.908  15.069  0.1079 -0.2575 -0.2219
 1859TIP3    H126992   3.001   1.988  15.022 -1.1631  0.9297  1.0862
 1859TIP3    H226993   3.033   1.908  15.146 -1.4032  0.5714  0.9169
 1860TIP3   OH226994   2.322   0.403  16.221 -0.1736 -0.2685  0.0023
 1860TIP3    H126995   2.314   0.468  16.151  2.9750  0.6636  0.4366
 1860TIP3    H226996   2.389   0.342  16.189 -1.6603 -2.2036  0.4683
 1861TIP3   OH226997   4.094   5.946  14.677 -0.5847 -0.2035  0.1393
 1861TIP3    H126998   4.158   5.986  14.618 -1.5586  0.2187 -0.6606
 1861TIP3    H226999   4.139   5.940  14.761  0.9420 -1.0850 -0.7072
 1862TIP3   OH227000   2.996   1.448  16.356  0.0512  0.2291  0.5566
 1862TIP3    H127001   2.924   1.387  16.368  2.1090 -2.1607  1.3253
 1862TIP3    H227002   3.072   1.392  16.341  1.2868  2.7350 -3.1212
 1863TIP3   OH227003   1.973   6.465   4.530  0.1404  0.4632  0.4402
 1863TIP3    H127004   2.040   6.440   4.466  1.0731 -0.3378  1.6990
 1863TIP3    H227005   1.985   6.403   4.602  0.8345  2.9110  2.5136
 1864TIP3   OH227006   3.857   6.041  11.164 -0.7691 -0.0294 -0.1279
 1864TIP3    H127007   3.936   6.077  11.124  0.2537  1.1572  2.7769
 1864TIP3    H227008   3.837   5.963  11.113  2.2581 -0.3011 -0.9732
 1865TIP3   OH227009   6.255   3.518   3.679 -0.5039 -0.3369 -0.3629
 1865TIP3    H127010   6.234   3.531   3.587 -0.3055 -1.7119 -0.6185
 1865TIP3    H227011   6.175   3.544   3.726 -0.4631  0.7494 -0.8938
 1866TIP3   OH227012   6.016   5.678   0.993 -0.3438  0.8404 -0.8667
 1866TIP3    H127013   5.995   5.585   1.005 -1.7479  1.3465  0.8561
 1866TIP3    H227014   6.103   5.687   1.032  0.5914 -0.0850 -2.6642
 1867TIP3   OH227015   3.658   2.326   2.009 -0.2848 -0.3211  0.0665
 1867TIP3    H127016   3.610   2.348   1.929  0.8598 -2.5140 -1.2658
 1867TIP3    H227017   3.606   2.259   2.051 -0.2735 -0.0234  0.5604
 1868TIP3   OH227018   2.644   1.988   0.234 -0.5108 -0.3063  0.2868
 1868TIP3    H127019   2.597   1.911   0.266 -1.1314 -1.0245 -2.2029
 1868TIP3    H227020   2.578   2.055   0.224  0.1126  0.7487  2.9213
 1869TIP3   OH227021   0.030   2.795  11.206  0.0750  0.2671 -0.2513
 1869TIP3    H127022   0.032   2.805  11.111 -1.0742  0.2647 -0.2847
 1869TIP3    H227023  -0.055   2.754  11.224 -0.3139  1.5498  0.8819
 1870TIP3   OH227024   2.539   4.619  12.042 -0.4066 -0.6622 -0.4362
 1870TIP3    H127025   2.454   4.588  12.074 -1.0438  0.8063 -0.6661
 1870TIP3    H227026   2.533   4.612  11.947 -0.0104 -1.2126 -0.4207
 1871TIP3   OH227027   0.316   0.487   5.101 -0.1987  0.3455 -0.2135
 1871TIP3    H127028   0.403   0.448   5.110 -0.9568 -1.0843  1.0869
 1871TIP3    H227029   0.257   0.424   5.141 -1.7507  1.6770 -0.3517
 1872TIP3   OH227030   0.488   2.211  12.685 -0.0835  0.5460 -0.1249
 1872TIP3    H127031   0.515   2.301  12.708  1.9527 -0.0795  0.0626
 1872TIP3    H227032   0.534   2.193  12.603  0.5543 -0.7778  0.5100
 1873TIP3   OH227033   1.499   2.064   1.635  0.2135 -0.4348 -0.3324
 1873TIP3    H127034   1.507   2.139   1.695  0.3571  0.0237 -0.9117
 1873TIP3    H227035   1.588   2.029   1.629  0.2027 -0.4699 -0.2822
 1874TIP3   OH227036   3.190   0.638   1.461  0.2558 -0.4164 -0.0177
 1874TIP3    H127037   3.119   0.689   1.501 -0.2928 -1.5159  0.4293
 1874TIP3    H227038   3.169   0.636   1.368 -0.5874 -1.1612  0.1768
 1875TIP3   OH227039   2.575   4.473   5.185  0.5514 -0.5851 -0.1821
 1875TIP3    H127040   2.636   4.502   5.117 -0.3404 -0.4159 -0.9249
 1875TIP3    H227041   2.575   4.544   5.250  1.1838 -0.6112 -0.1583
 1876TIP3   OH227042   4.649   3.148  13.436  0.5208 -0.2671 -0.4930
 1876TIP3    H127043   4.698   3.066  13.441  2.0765  0.6205 -0.7428
 1876TIP3    H227044   4.617   3.151  13.346  2.2351  0.3601 -1.1115
 1877TIP3   OH227045   0.214   0.942   1.906  0.5432  0.3116 -0.1564
 1877TIP3    H127046   0.183   0.928   1.816  0.0644  1.8400 -0.2286
 1877TIP3    H227047   0.270   0.866   1.923 -1.5770 -1.4374 -0.7545
 1878TIP3   OH227048   1.662   3.538   1.853 -0.3410  0.0261 -0.4016
 1878TIP3    H127049   1.690   3.534   1.944 -0.5886 -0.3564 -0.3391
 1878TIP3    H227050   1.658   3.631   1.833 -0.3252  0.1118 -0.0078
 1879TIP3   OH227051   0.453   4.646  16.007  0.1937  0.1405 -0.5249
 1879TIP3    H127052   0.429   4.721  16.061  0.5189 -0.4469  0.4471
 1879TIP3    H227053   0.416   4.571  16.053  2.5316 -0.6200  0.1614
 1880TIP3   OH227054   3.923   2.652   1.152 -0.3038 -0.1475  0.6599
 1880TIP3    H127055   3.845   2.684   1.197  1.2225  1.4162  2.2687
 1880TIP3    H227056   3.932   2.710   1.076 -0.7435 -0.3817  0.4267
 1881TIP3   OH227057   5.774   0.942   3.839 -0.9270 -0.0650 -0.4993
 1881TIP3    H127058   5.784   0.897   3.755  0.0218 -0.4217 -0.2046
 1881TIP3    H227059   5.786   0.873   3.904 -1.2923  0.2788 -0.0666
 1882TIP3   OH227060   4.510   5.906  12.428  0.0482 -0.1145  0.5038
 1882TIP3    H127061   4.427   5.921  12.471  0.4606 -0.0695  1.2918
 1882TIP3    H227062   4.561   5.855  12.491 -0.4404 -2.7262 -1.1152
 1883TIP3   OH227063   4.389   4.978  11.549 -0.4016  0.3216 -0.5820
 1883TIP3    H127064   4.328   4.987  11.476 -1.9124 -1.0353  0.4680
 1883TIP3    H227065   4.371   5.053  11.605 -1.2216 -0.1325 -0.2206
 1884TIP3   OH227066   4.462   2.159  13.735 -0.2563 -0.2317  0.0290
 1884TIP3    H127067   4.422   2.156  13.822  0.1974 -2.2894  0.1942
 1884TIP3    H227068   4.390   2.181  13.676 -1.0874 -1.2320  0.6504
 1885TIP3   OH227069   5.499   5.423  11.266  0.2378  0.0227  0.1685
 1885TIP3    H127070   5.469   5.332  11.262  1.0864 -0.1947 -2.9755
 1885TIP3    H227071   5.520   5.437  11.358  1.0025 -3.2832  0.5860
 1886TIP3   OH227072   2.686   5.233   3.224 -0.4032  0.6084 -0.4414
 1886TIP3    H127073   2.698   5.232   3.319  0.6297 -0.0875 -0.5653
 1886TIP3    H227074   2.668   5.324   3.203  2.5035  1.3530  0.0816
 1887TIP3   OH227075   6.496   0.482   3.176 -0.2568  0.3364 -0.8293
 1887TIP3    H127076   6.416   0.533   3.191  0.2695  1.5602 -2.0856
 1887TIP3    H227077   6.566   0.539   3.205  0.3219  0.1916 -1.9218
 1888TIP3   OH227078   0.753   1.836   3.963  0.1477  0.4119 -0.6686
 1888TIP3    H127079   0.766   1.787   3.881 -0.2213  0.3597 -0.6976
 1888TIP3    H227080   0.671   1.883   3.949 -0.6906 -0.7791  0.2612
 1889TIP3   OH227081   4.793   2.203   1.872 -0.0122 -0.3756  0.3565
 1889TIP3    H127082   4.871   2.175   1.824  0.5374 -0.5227  1.3287
 1889TIP3    H227083   4.764   2.124   1.918 -0.6415 -0.2799  0.1222
 1890TIP3   OH227084   0.816   0.776  10.626 -0.7859  0.1467  0.2400
 1890TIP3    H127085   0.841   0.691  10.662 -0.5963  0.6630  1.3327
 1890TIP3    H227086   0.741   0.757  10.570 -1.5572 -0.5526  1.5018
 1891TIP3   OH227087   4.523   2.016  12.922 -0.2983 -0.5232 -0.2320
 1891TIP3    H127088   4.456   1.969  12.971 -0.9495 -0.3071 -0.9051
 1891TIP3    H227089   4.567   1.949  12.870 -0.5347 -0.5445 -0.4045
 1892TIP3   OH227090   6.394   4.114  16.863 -1.0615  0.0268 -0.2577
 1892TIP3    H127091   6.395   4.090  16.770  0.0108 -1.2197  0.0543
 1892TIP3    H227092   6.377   4.032  16.909 -2.3162  0.7646  0.6275
 1893TIP3   OH227093   3.378   5.005  14.846 -0.5309  0.3681 -0.2694
 1893TIP3    H127094   3.295   4.987  14.891  0.4695  2.5973  2.6606
 1893TIP3    H227095   3.370   5.097  14.818  0.3299  0.1094 -1.4035
 1894TIP3   OH227096   1.954   4.691   2.257 -0.4375 -0.6476 -0.0436
 1894TIP3    H127097   1.998   4.776   2.260  1.1079 -1.4063 -0.7103
 1894TIP3    H227098   1.867   4.710   2.222  0.4961  0.4363 -1.8325
 1895TIP3   OH227099   3.874   6.365  12.010 -0.4151 -0.0135 -0.0288
 1895TIP3    H127100   3.862   6.272  11.990 -0.5527  0.0708 -0.3437
 1895TIP3    H227101   3.831   6.378  12.094  1.6527 -0.7609  1.1840
 1896TIP3   OH227102   3.156   0.258  17.162  0.6714 -0.7214  0.7938
 1896TIP3    H127103   3.067   0.257  17.198  0.9813  1.4332  1.6723
 1896TIP3    H227104   3.205   0.198  17.218 -0.1796 -1.8793  0.3399
 1897TIP3   OH227105   4.628   6.717  16.694 -0.5258  0.3603 -0.2297
 1897TIP3    H127106   4.710   6.699  16.647  0.8705  0.9207  1.8957
 1897TIP3    H227107   4.610   6.809  16.677 -0.9534  0.1164 -1.0742
 1898TIP3   OH227108   5.813   4.130   1.106 -0.8288 -0.1179  0.7608
 1898TIP3    H127109   5.850   4.191   1.170 -2.6114  1.8792 -0.0408
 1898TIP3    H227110   5.888   4.081   1.072  0.5682  1.2673  1.8018
 1899TIP3   OH227111   4.794   1.833   0.712  0.0880  0.3361  0.3609
 1899TIP3    H127112   4.849   1.755   0.698 -0.3885  0.2163 -0.8785
 1899TIP3    H227113   4.853   1.907   0.694 -0.3089  0.1959 -1.5356
 1900TIP3   OH227114   0.592   1.118  11.670 -0.5687  0.2975 -0.4480
 1900TIP3    H127115   0.503   1.115  11.633 -0.8443 -0.4652  0.2647
 1900TIP3    H227116   0.646   1.153  11.599 -0.9420 -2.0480 -1.9401
 1901TIP3   OH227117   6.033   5.006   3.046 -1.2154 -0.0566  0.0013
 1901TIP3    H127118   6.074   5.091   3.032  0.2240 -0.5769  0.8691
 1901TIP3    H227119   5.958   5.023   3.103 -2.0861  0.8817 -1.4100
 1902TIP3   OH227120   5.672   0.584   5.264 -0.1526 -0.1543 -0.9821
 1902TIP3    H127121   5.731   0.610   5.335 -0.9221 -1.7274  0.2533
 1902TIP3    H227122   5.651   0.666   5.220 -0.0092  0.9232  0.8866
 1903TIP3   OH227123   5.716   1.965   4.126 -0.3383  0.0584 -0.8502
 1903TIP3    H127124   5.660   1.962   4.049 -2.0697  0.9226  0.3582
 1903TIP3    H227125   5.793   2.015   4.097 -1.9287  2.2434 -1.4252
 1904TIP3   OH227126   6.083   5.437   0.084 -0.1108  0.0029  0.0448
 1904TIP3    H127127   6.104   5.459  -0.007 -0.2590  1.6412  0.3767
 1904TIP3    H227128   6.051   5.347   0.081 -1.2831  0.4527 -1.7004
 1905TIP3   OH227129   6.060   5.223   1.796 -0.6356 -0.0993  0.6757
 1905TIP3    H127130   6.102   5.138   1.806  0.4693  0.4255  0.5846
 1905TIP3    H227131   6.074   5.245   1.703 -0.6291  0.3266  0.7779
 1906TIP3   OH227132   0.630   5.695   4.383  0.3053  0.4560 -0.1931
 1906TIP3    H127133   0.633   5.642   4.303  1.9049  0.7420 -0.3319
 1906TIP3    H227134   0.684   5.647   4.446  0.5815  1.1834  0.1329
 1907TIP3   OH227135   1.967   4.649  16.946  0.0722  0.0550 -0.1586
 1907TIP3    H127136   1.940   4.578  16.887 -0.2500  1.0183 -1.2016
 1907TIP3    H227137   1.884   4.685  16.979  0.2484 -0.3370  0.6889
 1908TIP3   OH227138   6.104   1.598  15.401 -0.4042  0.1377  0.2212
 1908TIP3    H127139   6.063   1.544  15.333 -1.3473  0.2604  0.6858
 1908TIP3    H227140   6.193   1.612  15.370 -0.5940 -0.4650 -0.6137
 1909TIP3   OH227141   2.422   1.181  14.123  0.7307 -0.0686 -0.0723
 1909TIP3    H127142   2.443   1.269  14.093  1.5125 -0.3997 -0.5041
 1909TIP3    H227143   2.402   1.191  14.216  1.4966  0.4573  0.0382
 1910TIP3   OH227144   5.431   4.357  14.151 -0.2330  0.4961 -0.1805
 1910TIP3    H127145   5.500   4.304  14.190  0.5730  1.0849 -0.8042
 1910TIP3    H227146   5.416   4.426  14.215  0.6719  1.1195 -0.6386
 1911TIP3   OH227147   6.195   2.422   6.411  0.3012 -0.2268 -0.4188
 1911TIP3    H127148   6.281   2.462   6.398 -0.6115  1.6389 -0.9861
 1911TIP3    H227149   6.151   2.478   6.475 -1.2195  0.0654 -1.6552
 1912TIP3   OH227150   4.888   1.583   6.423  0.5509 -0.2785  0.3082
 1912TIP3    H127151   4.906   1.665   6.376 -0.1622 -0.2664  0.0491
 1912TIP3    H227152   4.841   1.611   6.502  0.1839 -0.4413  0.1516
 1913TIP3   OH227153   6.472   2.640  16.135 -0.1463  0.2911 -0.5856
 1913TIP3    H127154   6.384   2.637  16.172 -0.4697 -0.8181 -1.4166
 1913TIP3    H227155   6.520   2.572  16.183 -0.1978 -0.2272 -1.2653
 1914TIP3   OH227156   3.470   1.818   4.495  0.0870 -0.0009  0.3389
 1914TIP3    H127157   3.457   1.723   4.493 -0.2276 -0.0504  2.9527
 1914TIP3    H227158   3.498   1.840   4.406  2.4180 -2.8692  0.2758
 1915TIP3   OH227159   4.666   0.322   3.810  0.2048 -0.6964 -0.0838
 1915TIP3    H127160   4.600   0.355   3.871  0.6416 -0.8189  0.4667
 1915TIP3    H227161   4.666   0.227   3.824 -1.5254 -1.0340 -2.1461
 1916TIP3   OH227162   5.770   1.463  13.195 -0.2717  0.6545 -0.2128
 1916TIP3    H127163   5.695   1.436  13.142 -0.5778  1.2690 -0.1011
 1916TIP3    H227164   5.769   1.559  13.191  1.2206  0.6433 -1.1864
 1917TIP3   OH227165   5.627   2.951   1.507 -0.0495 -0.1688 -0.1364
 1917TIP3    H127166   5.617   2.875   1.450  1.6548 -0.9803  0.5975
 1917TIP3    H227167   5.621   2.915   1.596  1.3971  0.4336  0.2269
 1918TIP3   OH227168   2.857   4.999   4.151  0.0994 -0.1399 -0.3226
 1918TIP3    H127169   2.764   4.984   4.167 -0.2616  0.0649 -2.1315
 1918TIP3    H227170   2.895   5.009   4.239 -1.4822 -0.7400  0.4517
 1919TIP3   OH227171   0.628   1.387   3.842 -0.6054  0.3430  0.3269
 1919TIP3    H127172   0.603   1.464   3.893  1.0894  0.8554  0.4275
 1919TIP3    H227173   0.662   1.326   3.907  0.5636  0.5815 -0.0433
 1920TIP3   OH227174   3.086   1.610  14.812  0.4528  0.8407  0.2630
 1920TIP3    H127175   3.161   1.564  14.775  0.3659  1.3378 -0.5340
 1920TIP3    H227176   3.054   1.666  14.741  0.2454  1.7495  1.0586
 1921TIP3   OH227177   4.513   1.546  14.991  0.0898  0.8280 -0.1714
 1921TIP3    H127178   4.582   1.496  14.948  0.0814  1.5553 -1.0620
 1921TIP3    H227179   4.549   1.570  15.076 -0.2761 -1.5199  0.6920
 1922TIP3   OH227180   4.260   2.199   4.828  0.6520  0.0718  0.5172
 1922TIP3    H127181   4.205   2.276   4.839  0.3551 -0.1078  0.3020
 1922TIP3    H227182   4.234   2.162   4.744 -0.4107 -1.2011  1.3828
 1923TIP3   OH227183   0.444   3.070  16.641  0.5508  0.1995 -0.8235
 1923TIP3    H127184   0.522   3.126  16.643  1.3793 -0.9358  1.1267
 1923TIP3    H227185   0.370   3.131  16.645  1.4048  1.2027  0.0186
 1924TIP3   OH227186   1.121   1.092   0.697 -0.5690 -0.1335 -0.3538
 1924TIP3    H127187   1.090   1.181   0.711  1.0021  0.5682 -1.2782
 1924TIP3    H227188   1.076   1.063   0.617  0.9767  0.8093 -1.5781
 1925TIP3   OH227189   6.564   1.567   6.195 -0.0454  0.0227  0.3522
 1925TIP3    H127190   6.592   1.629   6.262 -2.1989 -0.0348  1.3424
 1925TIP3    H227191   6.471   1.584   6.182  0.0957 -0.6327 -1.9355
 1926TIP3   OH227192   3.987   2.224  13.895 -0.6557  0.6438 -0.8595
 1926TIP3    H127193   3.992   2.171  13.815  1.5899  0.9158 -0.9171
 1926TIP3    H227194   3.908   2.192  13.939 -0.3888 -1.4522 -1.8114
 1927TIP3   OH227195   3.228   4.198   2.136 -0.2333  0.2949 -0.4637
 1927TIP3    H127196   3.283   4.120   2.147  1.5149  1.5922  0.1622
 1927TIP3    H227197   3.139   4.166   2.149  0.6791 -1.0251  3.2291
 1928TIP3   OH227198   3.570   5.255  12.629 -0.3990 -0.2344 -0.3111
 1928TIP3    H127199   3.646   5.198  12.626 -1.0235 -1.1589  0.9015
 1928TIP3    H227200   3.580   5.313  12.553  0.4022 -1.7431 -1.3765
 1929TIP3   OH227201   5.989   4.440  16.585 -0.2118 -0.0364 -0.3990
 1929TIP3    H127202   5.985   4.523  16.538  0.3501 -0.3365 -0.9762
 1929TIP3    H227203   5.967   4.463  16.675 -0.6368  0.6466 -0.6743
 1930TIP3   OH227204   2.340   4.515   0.778 -0.2868  0.4283 -0.4938
 1930TIP3    H127205   2.385   4.443   0.821 -2.0107 -0.0835  0.5164
 1930TIP3    H227206   2.397   4.539   0.705  1.0411 -0.9347  0.0653
 1931TIP3   OH227207   6.120   0.963   5.293  0.3276 -0.3117 -0.3484
 1931TIP3    H127208   6.089   1.053   5.286 -0.2386 -0.5501 -1.0048
 1931TIP3    H227209   6.046   0.910   5.263  1.3241 -0.8921 -1.8614
 1932TIP3   OH227210   4.828   5.958  13.000 -0.0473 -0.1525  0.2646
 1932TIP3    H127211   4.760   5.895  13.022 -0.1793  0.3943  1.4695
 1932TIP3    H227212   4.890   5.952  13.073 -0.0283  1.0573  0.3502
 1933TIP3   OH227213   5.862   4.726   5.267  0.0950  0.0879  0.0978
 1933TIP3    H127214   5.790   4.713   5.329  0.7964 -1.6850  0.5622
 1933TIP3    H227215   5.884   4.819   5.276 -1.6620  0.4944  0.4514
 1934TIP3   OH227216   1.149   6.691  11.721 -0.7165  0.1425 -0.5956
 1934TIP3    H127217   1.116   6.707  11.633 -0.9479 -1.8591 -0.9079
 1934TIP3    H227218   1.072   6.703  11.777 -1.2454 -1.2585 -0.9810
 1935TIP3   OH227219   3.789   1.782   2.209  0.5407 -0.9387  0.6652
 1935TIP3    H127220   3.829   1.741   2.285  0.6931 -1.3728  0.3498
 1935TIP3    H227221   3.716   1.725   2.186  0.9033 -1.1723  0.0778
 1936TIP3   OH227222   6.522   4.408  14.256 -0.3464 -0.1782 -0.3498
 1936TIP3    H127223   6.615   4.429  14.269 -0.1184 -1.2727 -0.2216
 1936TIP3    H227224   6.517   4.376  14.166 -0.7266  0.5756 -0.6000
 1937TIP3   OH227225   6.217   4.693   1.426  0.3876  0.3764 -0.2848
 1937TIP3    H127226   6.144   4.738   1.468  1.1511  1.4861 -0.1395
 1937TIP3    H227227   6.235   4.745   1.347  0.7697 -0.1190 -0.5276
 1938TIP3   OH227228   3.306   5.379  16.948  0.0823 -0.5367  0.2940
 1938TIP3    H127229   3.384   5.384  16.893 -1.1375 -0.8575 -1.5197
 1938TIP3    H227230   3.233   5.393  16.888 -1.2986 -0.9383  1.8297
 1939TIP3   OH227231   4.731   3.394  13.714  1.0994 -0.6237  0.5143
 1939TIP3    H127232   4.738   3.299  13.721 -0.7590 -0.6102  4.3566
 1939TIP3    H227233   4.638   3.410  13.698  0.6967  0.5545  3.5593
 1940TIP3   OH227234   2.999   2.854  13.985  0.8939  0.0122  0.0209
 1940TIP3    H127235   2.949   2.774  13.971 -2.5107  1.6933  2.1063
 1940TIP3    H227236   2.959   2.919  13.927  1.0031  1.2381  1.2841
 1941TIP3   OH227237   2.540   1.570   0.864 -0.3986 -0.1032 -0.4274
 1941TIP3    H127238   2.622   1.524   0.850 -1.0030 -1.2627 -0.2640
 1941TIP3    H227239   2.564   1.662   0.873  0.9729 -0.5495  0.5758
 1942TIP3   OH227240   5.082   2.298   2.110  0.3964  0.1386 -0.5774
 1942TIP3    H127241   5.075   2.208   2.078 -1.5514 -0.2009  0.7660
 1942TIP3    H227242   5.168   2.303   2.150  1.6603 -0.3028 -3.0983
 1943TIP3   OH227243   3.191   6.333  11.304  0.3129 -0.5628 -0.4778
 1943TIP3    H127244   3.189   6.318  11.209 -0.9703  0.2047 -0.5696
 1943TIP3    H227245   3.185   6.245  11.342  0.3348 -0.8324 -1.0931
 1944TIP3   OH227246   5.770   4.766  13.414 -0.2806  0.3777  0.2537
 1944TIP3    H127247   5.776   4.671  13.425  0.8523  0.6411  1.9615
 1944TIP3    H227248   5.839   4.801  13.469  0.5194  2.1291 -1.7825
 1945TIP3   OH227249   1.781   1.313  17.128  0.1719 -0.0648 -0.2606
 1945TIP3    H127250   1.703   1.353  17.166 -0.7084 -1.2281 -0.8358
 1945TIP3    H227251   1.850   1.379  17.141 -1.1707  1.4954 -0.8731
 1946TIP3   OH227252   6.403   4.196   2.022  0.4912  0.0862  0.3821
 1946TIP3    H127253   6.324   4.176   2.072  0.6612 -0.0538  0.5982
 1946TIP3    H227254   6.412   4.123   1.961 -0.2458  0.7372 -0.5064
 1947TIP3   OH227255   3.087   3.211  16.491  0.5812  0.4596  0.2094
 1947TIP3    H127256   3.135   3.292  16.473  0.7030  1.2230  3.6280
 1947TIP3    H227257   3.020   3.236  16.554 -0.8866 -1.6856 -0.4240
 1948TIP3   OH227258   3.472   6.279   2.357  0.5268 -0.3691  0.2984
 1948TIP3    H127259   3.391   6.272   2.408 -0.7583 -0.8807 -1.7519
 1948TIP3    H227260   3.484   6.373   2.343  0.2145 -0.3007  0.4861
 1949TIP3   OH227261   0.419   4.085  11.955 -0.1236 -0.3874  0.1082
 1949TIP3    H127262   0.483   4.097  12.025 -0.4287 -1.3584  0.5732
 1949TIP3    H227263   0.453   4.012  11.904 -0.3468 -0.2494 -0.2342
 1950TIP3   OH227264   0.014   6.384  10.704 -0.1804 -0.3609 -0.3156
 1950TIP3    H127265  -0.054   6.447  10.678 -0.2953 -0.4747 -0.2882
 1950TIP3    H227266  -0.033   6.303  10.723 -0.0984 -0.2825  0.2416
 1951TIP3   OH227267   4.104   1.508  16.494  0.2463  0.1814  0.0457
 1951TIP3    H127268   4.135   1.597  16.509  0.8724  0.2340 -1.4948
 1951TIP3    H227269   4.046   1.490  16.568  1.2050  1.3557  1.1096
 1952TIP3   OH227270   0.615   6.417   2.569  0.2424 -0.4034 -0.3292
 1952TIP3    H127271   0.637   6.482   2.501 -1.6785 -0.3608 -0.9430
 1952TIP3    H227272   0.561   6.466   2.631  2.9860 -0.1302  1.9080
 1953TIP3   OH227273   6.187   1.775   5.900  0.7161  0.0130 -0.0052
 1953TIP3    H127274   6.233   1.745   5.821  0.4367  0.3823 -0.3101
 1953TIP3    H227275   6.112   1.717   5.907 -0.4042  1.2731 -1.1853
 1954TIP3   OH227276   3.875   2.984  15.968  1.0087 -0.3550  0.4966
 1954TIP3    H127277   3.851   3.077  15.965  0.2751 -0.5148  1.2857
 1954TIP3    H227278   3.888   2.959  15.876  2.4342  0.8383  0.3434
 1955TIP3   OH227279   5.014   3.621   0.590  0.3884  0.3036  0.2295
 1955TIP3    H127280   5.029   3.693   0.652 -0.0440 -0.1529  0.8657
 1955TIP3    H227281   5.000   3.665   0.506 -0.1178  0.9828  0.6611
 1956TIP3   OH227282   3.375   4.431  15.750 -0.5152  0.1662  0.4558
 1956TIP3    H127283   3.411   4.444  15.838  0.3488  3.3852 -0.3039
 1956TIP3    H227284   3.302   4.492  15.744  0.2269  0.8895 -1.4854
 1957TIP3   OH227285   4.393   0.757  14.777 -0.6066 -0.0259 -0.6712
 1957TIP3    H127286   4.330   0.694  14.812 -0.9285  0.9292  0.5195
 1957TIP3    H227287   4.471   0.706  14.759 -0.8443 -0.7718  0.3298
 1958TIP3   OH227288   4.423   4.701   5.455 -0.7823  0.5162 -0.1339
 1958TIP3    H127289   4.408   4.627   5.514  0.1455  0.9700  0.6881
 1958TIP3    H227290   4.507   4.682   5.414  0.4824  2.0773  1.6106
 1959TIP3   OH227291   0.087   3.568  13.550  0.5916 -0.2363 -0.0094
 1959TIP3    H127292   0.166   3.622  13.550  0.8941 -0.6528 -1.3518
 1959TIP3    H227293   0.115   3.486  13.592  1.7399 -1.5276 -3.0816
 1960TIP3   OH227294   3.113   0.685   4.937  0.6782 -0.2622  0.1156
 1960TIP3    H127295   3.152   0.740   5.005  1.3004 -1.4286  0.7238
 1960TIP3    H227296   3.165   0.605   4.938  0.4463 -0.4515 -1.4880
 1961TIP3   OH227297   2.568   4.667  13.289 -0.7201  0.4441  0.2797
 1961TIP3    H127298   2.639   4.625  13.337  0.1741  0.6252 -0.8501
 1961TIP3    H227299   2.563   4.619  13.206 -0.5310  1.7491 -0.4968
 1962TIP3   OH227300   3.400   3.358   0.003  0.0575  0.5687 -1.1676
 1962TIP3    H127301   3.339   3.426  -0.028  2.1680  3.0912 -0.0133
 1962TIP3    H227302   3.372   3.278  -0.041 -3.3240  1.9021 -1.5910
 1963TIP3   OH227303   3.027   2.177  14.989 -0.1908  0.4246 -0.8605
 1963TIP3    H127304   3.114   2.216  15.003  0.1610  0.1472 -2.1792
 1963TIP3    H227305   2.966   2.242  15.023  0.5257  0.8109 -0.3028
 1964TIP3   OH227306   2.150   0.878  14.798  0.2184  0.0190 -0.9372
 1964TIP3    H127307   2.122   0.906  14.711  0.4667 -2.0583 -1.7134
 1964TIP3    H227308   2.070   0.851  14.842  0.0831  1.1419 -0.4797
 1965TIP3   OH227309   1.671   5.629  17.035  0.0549  0.0711 -0.4317
 1965TIP3    H127310   1.755   5.630  17.080  0.3221  0.8125 -0.9233
 1965TIP3    H227311   1.680   5.695  16.966 -1.4888  1.4011  0.5651
 1966TIP3   OH227312   0.576   4.183   1.746  0.4086  0.4662 -0.2777
 1966TIP3    H127313   0.508   4.248   1.763 -0.3836 -0.7480  1.3926
 1966TIP3    H227314   0.540   4.127   1.678 -1.0480 -1.2104  1.7973
 1967TIP3   OH227315   2.722   2.306  11.752  0.5789 -0.0852 -0.1235
 1967TIP3    H127316   2.728   2.391  11.795  4.0963  0.1950 -1.0776
 1967TIP3    H227317   2.643   2.312  11.698  0.6315  2.4194  0.0592
 1968TIP3   OH227318   0.201   3.075   1.434 -0.1093 -0.0103 -0.3200
 1968TIP3    H127319   0.291   3.095   1.456 -0.0470  0.7115 -1.2331
 1968TIP3    H227320   0.179   2.999   1.489  0.7029  0.4669  0.6732
 1969TIP3   OH227321   5.201   3.762   5.757  0.5294 -0.2147 -0.3512
 1969TIP3    H127322   5.106   3.764   5.761  0.5923  0.5674  0.7573
 1969TIP3    H227323   5.223   3.669   5.751 -0.2721 -0.4253 -0.0269
 1970TIP3   OH227324   4.884   5.183  13.387  0.5907 -0.2509  0.5562
 1970TIP3    H127325   4.835   5.105  13.415  0.7022 -0.4728  0.1417
 1970TIP3    H227326   4.819   5.238  13.343  0.0811  0.8026  2.5857
 1971TIP3   OH227327   1.687   0.567   5.304 -0.4662  0.2638 -0.1443
 1971TIP3    H127328   1.704   0.635   5.238 -0.7100  0.0255 -0.4544
 1971TIP3    H227329   1.661   0.616   5.382  0.5491  0.5798  0.0019
 1972TIP3   OH227330   4.570   4.003   3.459  0.1550  0.4654  0.5025
 1972TIP3    H127331   4.489   4.050   3.435 -0.3419 -1.3017 -1.3831
 1972TIP3    H227332   4.570   4.003   3.555 -1.0805  2.1690  0.5314
 1973TIP3   OH227333   3.465   0.002  11.467  0.6328  0.2031  0.7817
 1973TIP3    H127334   3.446  -0.015  11.375  0.1877 -0.3993  0.9822
 1973TIP3    H227335   3.533   0.069  11.465  0.4000  0.4213  0.0215
 1974TIP3   OH227336   6.412   5.659  12.351  0.5380 -0.0718 -0.2868
 1974TIP3    H127337   6.469   5.614  12.413  0.2077 -1.4220 -0.9575
 1974TIP3    H227338   6.451   5.746  12.342  0.8859 -0.0457  1.4072
 1975TIP3   OH227339   4.446   4.686  15.182 -0.1395 -0.3301 -0.3390
 1975TIP3    H127340   4.369   4.741  15.195  0.3000  0.5226 -1.3079
 1975TIP3    H227341   4.497   4.732  15.116  0.7508 -1.3666 -0.3758
 1976TIP3   OH227342   2.831   3.372  12.981  0.3795 -0.0305 -0.5414
 1976TIP3    H127343   2.740   3.368  13.012  0.4960  0.6053 -0.1105
 1976TIP3    H227344   2.854   3.465  12.987  0.8848 -0.1162 -1.1529
 1977TIP3   OH227345   0.863   2.889  15.900 -0.2008  0.0669  0.0218
 1977TIP3    H127346   0.849   2.818  15.837  0.9835 -0.8569  0.7924
 1977TIP3    H227347   0.898   2.846  15.978  1.4850  1.6314  0.1517
 1978TIP3   OH227348   5.881   5.344   3.295  0.1844 -0.3881  0.3982
 1978TIP3    H127349   5.942   5.282   3.334 -0.8505 -0.9203  1.1849
 1978TIP3    H227350   5.797   5.325   3.336  0.2413  2.9154  2.2398
 1979TIP3   OH227351   2.895   2.543   2.227 -0.0663  0.2464  0.1284
 1979TIP3    H127352   2.804   2.567   2.246 -0.0652  0.2148  0.1745
 1979TIP3    H227353   2.895   2.448   2.227 -0.5366  0.2322 -2.2667
 1980TIP3   OH227354   1.408   4.112  11.450 -0.3680 -0.9583  0.5337
 1980TIP3    H127355   1.499   4.115  11.482 -0.6533 -0.3036  1.3153
 1980TIP3    H227356   1.356   4.093  11.528 -0.8173 -2.4897 -0.1235
 1981TIP3   OH227357   1.814   3.858   5.517 -0.3355  0.1268  0.1158
 1981TIP3    H127358   1.776   3.928   5.464 -2.0703 -0.2147  0.8571
 1981TIP3    H227359   1.873   3.811   5.458 -0.4553  1.1763 -0.8483
 1982TIP3   OH227360   0.093   1.182  16.188 -0.3806 -0.1679 -0.2074
 1982TIP3    H127361   0.026   1.211  16.250 -0.6063  0.5793 -0.8047
 1982TIP3    H227362   0.091   1.086  16.195 -1.5617 -0.1633 -0.2613
 1983TIP3   OH227363   2.873   2.001   5.090  0.6043 -0.0724  0.1264
 1983TIP3    H127364   2.885   1.989   5.184  2.2419 -0.2161 -0.0759
 1983TIP3    H227365   2.943   1.949   5.050 -1.0140 -1.2616 -1.2228
 1984TIP3   OH227366   6.122   6.671   1.113 -0.1709  0.3274 -0.1600
 1984TIP3    H127367   6.141   6.758   1.147 -0.3303  1.1888 -2.1972
 1984TIP3    H227368   6.028   6.658   1.130 -0.3475  0.9339 -0.6610
 1985TIP3   OH227369   3.069   0.685  11.582 -0.0231  0.6333  0.1298
 1985TIP3    H127370   3.074   0.610  11.524  2.5561  1.3225 -0.6294
 1985TIP3    H227371   3.039   0.757  11.526  1.1144  0.9818 -0.0525
 1986TIP3   OH227372   1.524   3.349   1.157  0.2932 -0.0823 -0.4582
 1986TIP3    H127373   1.467   3.302   1.217 -0.0634  0.9524  0.0328
 1986TIP3    H227374   1.612   3.319   1.178  0.4184  1.9448  2.1898
 1987TIP3   OH227375   1.953   4.765  11.169  0.3976  0.4249  0.2283
 1987TIP3    H127376   1.862   4.784  11.189  0.2384  1.8339 -1.7521
 1987TIP3    H227377   1.951   4.683  11.119  0.6157 -1.8343  3.6905
 1988TIP3   OH227378   4.859   5.541  15.789  0.2686 -0.1307  0.4294
 1988TIP3    H127379   4.796   5.517  15.857 -3.8858 -0.4045 -3.2933
 1988TIP3    H227380   4.903   5.460  15.767 -2.1034 -1.1519 -0.7459
 1989TIP3   OH227381   2.710   4.913   2.405  0.2551 -0.1128  0.5147
 1989TIP3    H127382   2.686   4.996   2.446 -0.6891  0.1654 -0.5729
 1989TIP3    H227383   2.670   4.846   2.461 -0.2627  0.2275  0.5561
 1990TIP3   OH227384   6.408   0.226   5.735  0.9041  0.0788 -0.7389
 1990TIP3    H127385   6.401   0.231   5.639  1.2052  0.9054 -0.7228
 1990TIP3    H227386   6.481   0.284   5.757  1.3255 -0.7069 -0.0669
 1991TIP3   OH227387   3.376   6.365   4.919 -0.5963  0.0237  0.4923
 1991TIP3    H127388   3.375   6.451   4.960  0.2039 -0.0813  0.7608
 1991TIP3    H227389   3.347   6.305   4.988  0.3149 -0.0977  0.7871
 1992TIP3   OH227390   6.251   5.809   2.749 -0.0840  0.0110 -0.2195
 1992TIP3    H127391   6.262   5.891   2.798 -0.5906  0.3535 -0.6743
 1992TIP3    H227392   6.200   5.753   2.808 -1.0471  0.5704 -0.5080
 1993TIP3   OH227393   5.467   1.065   1.816 -0.1597  0.2652  0.2555
 1993TIP3    H127394   5.479   0.972   1.796  0.0752  0.5129 -0.7667
 1993TIP3    H227395   5.550   1.105   1.793 -0.7425  0.9531 -0.6862
 1994TIP3   OH227396   0.242   5.399  13.184  0.3764 -0.1855 -0.0542
 1994TIP3    H127397   0.275   5.333  13.123 -2.7047 -2.0008  0.1693
 1994TIP3    H227398   0.221   5.349  13.263 -1.8129  1.0836  0.1936
 1995TIP3   OH227399   6.361   3.046  16.740 -0.1716  0.3020  0.4459
 1995TIP3    H127400   6.438   2.991  16.755 -0.7139 -0.3776  0.7001
 1995TIP3    H227401   6.380   3.127  16.787 -0.0964 -0.2827  1.4166
 1996TIP3   OH227402   2.082   0.441  12.295  0.3862  0.3738 -0.0287
 1996TIP3    H127403   2.036   0.448  12.378 -1.2869 -3.4358 -0.5226
 1996TIP3    H227404   2.035   0.499  12.235 -0.7237  0.2629  0.7343
 1997TIP3   OH227405   4.899   6.138  14.238  0.1396  0.1418 -0.4130
 1997TIP3    H127406   4.914   6.103  14.150  0.3040 -0.2381 -0.2337
 1997TIP3    H227407   4.805   6.127  14.253  0.3441 -1.0794  0.0075
 1998TIP3   OH227408   0.629   0.650  11.288 -0.1938  0.8084  0.3632
 1998TIP3    H127409   0.545   0.648  11.334 -0.9673 -0.3510 -1.0429
 1998TIP3    H227410   0.608   0.685  11.201  1.0110  1.7471  0.4405
 1999TIP3   OH227411   5.595   5.363  10.804  0.1123  0.3561  0.3336
 1999TIP3    H127412   5.580   5.284  10.856  0.6124 -0.0904 -0.2112
 1999TIP3    H227413   5.622   5.429  10.869 -0.8739  0.2522  0.8680
 2000TIP3   OH227414   4.082   6.402  15.277 -0.5191  0.0050 -0.0198
 2000TIP3    H127415   4.038   6.319  15.295  1.9771 -1.0891  1.0922
 2000TIP3    H227416   4.173   6.378  15.259  0.1814  2.4873  0.1145
 2001TIP3   OH227417   0.656   6.519   2.119 -0.2189 -0.3589  0.7548
 2001TIP3    H127418   0.717   6.545   2.051  1.0332 -0.7592  1.7072
 2001TIP3    H227419   0.595   6.459   2.076  2.0541 -2.6016  0.5254
 2002TIP3   OH227420   5.627   2.070   1.919 -0.0932 -0.1131  0.1375
 2002TIP3    H127421   5.708   2.035   1.957  1.4412  1.7314 -1.4032
 2002TIP3    H227422   5.639   2.062   1.825 -0.9970  1.7447 -0.1517
 2003TIP3   OH227423   0.091   4.440  14.747  0.0075  0.1708  0.9476
 2003TIP3    H127424   0.049   4.358  14.721  0.9544  0.2792 -1.0170
 2003TIP3    H227425   0.185   4.423  14.737  0.1645  2.0973 -1.4799
 2004TIP3   OH227426   0.154   6.011  12.882  0.1619 -0.0775  0.1221
 2004TIP3    H127427   0.115   5.940  12.934 -0.6291 -0.7317 -1.3476
 2004TIP3    H227428   0.248   5.993  12.884  0.1020 -0.3509  0.9464
 2005TIP3   OH227429   6.583   2.204  15.954 -0.0293 -0.2268  0.0225
 2005TIP3    H127430   6.548   2.119  15.929 -0.3522 -0.4986  1.3639
 2005TIP3    H227431   6.653   2.184  16.016  0.1433  0.4574  0.0551
 2006TIP3   OH227432   3.325   4.277  11.109 -0.2594  0.1737 -0.7132
 2006TIP3    H127433   3.363   4.221  11.176  0.4392 -1.8267 -2.7435
 2006TIP3    H227434   3.374   4.359  11.115 -0.6079  0.2490  1.5782
 2007TIP3   OH227435   3.013   6.555  14.846 -0.9183 -0.1697  0.1341
 2007TIP3    H127436   2.951   6.571  14.917 -1.0158 -1.4932  0.3718
 2007TIP3    H227437   3.064   6.635  14.840 -2.1751  0.6759  0.4157
 2008TIP3   OH227438   4.880   5.169  15.314  0.2208 -0.2678 -0.0349
 2008TIP3    H127439   4.830   5.238  15.358  2.5091 -0.3114  2.7327
 2008TIP3    H227440   4.852   5.175  15.222 -3.0276  1.2880  0.9561
 2009TIP3   OH227441   2.153   5.978  16.406  0.1955 -0.1313 -0.0630
 2009TIP3    H127442   2.100   5.900  16.392  0.7760 -0.5377 -0.0255
 2009TIP3    H227443   2.243   5.949  16.389  0.5805  0.1440  1.4840
 2010TIP3   OH227444   0.535   5.527  11.534  0.0154 -0.1313  0.0417
 2010TIP3    H127445   0.631   5.522  11.537  0.0133 -0.9665 -1.3436
 2010TIP3    H227446   0.505   5.440  11.559 -0.4315  0.5493  1.9997
 2011TIP3   OH227447   3.183   2.628  14.259  0.4358  0.4358  0.5186
 2011TIP3    H127448   3.180   2.718  14.226  0.5817 -0.1875 -1.2418
 2011TIP3    H227449   3.178   2.573  14.181  0.7926 -1.0944  1.5385
 2012TIP3   OH227450   5.405   4.456   5.844  0.1804  0.1854  0.6302
 2012TIP3    H127451   5.330   4.512   5.865 -1.4231 -2.0315  1.0234
 2012TIP3    H227452   5.449   4.443   5.927 -0.1962 -0.1647  0.7793
 2013TIP3   OH227453   0.742   2.009  14.984 -0.6985  0.0208  0.4106
 2013TIP3    H127454   0.759   1.915  14.983  0.2000  0.1656  1.4986
 2013TIP3    H227455   0.649   2.017  14.962 -0.4234 -1.0280 -1.2325
 2014TIP3   OH227456   6.754   0.738  15.614  0.1223 -0.0290 -0.1060
 2014TIP3    H127457   6.777   0.698  15.530  2.1249 -1.8048  1.2164
 2014TIP3    H227458   6.664   0.710  15.631  0.6452 -1.9440 -0.4042
 2015TIP3   OH227459   4.577   0.246   5.901 -0.3597  0.7347  0.1416
 2015TIP3    H127460   4.523   0.186   5.952  0.2242  1.0071  1.1053
 2015TIP3    H227461   4.665   0.235   5.936  0.4538 -0.5675 -2.2063
 2016TIP3   OH227462   4.661   1.717  14.056 -0.3120  0.1740  0.6301
 2016TIP3    H127463   4.752   1.716  14.027 -0.1457  1.4059  1.0692
 2016TIP3    H227464   4.665   1.744  14.147 -1.1141  0.2106  0.6560
 2017TIP3   OH227465   3.696   0.941  12.241 -0.0050  0.2439  0.4300
 2017TIP3    H127466   3.641   0.944  12.162 -0.5112 -1.7288  0.6899
 2017TIP3    H227467   3.720   1.032  12.256  0.3087  0.6255 -2.1446
 2018TIP3   OH227468   3.841   6.304   4.053  0.0221  0.4327 -0.3082
 2018TIP3    H127469   3.814   6.304   3.962 -1.8333 -2.1102  0.1719
 2018TIP3    H227470   3.764   6.336   4.101  0.3713  0.1172  0.4739
 2019TIP3   OH227471   2.171   1.199  13.636  0.2185 -0.1957  0.6167
 2019TIP3    H127472   2.161   1.227  13.545  0.3426 -0.0823  0.6374
 2019TIP3    H227473   2.091   1.151  13.655 -1.5369  2.9257  1.6001
 2020TIP3   OH227474   5.565   3.887   4.365  0.3892 -0.0149 -0.1951
 2020TIP3    H127475   5.509   3.813   4.342  0.7266 -0.7828  1.3861
 2020TIP3    H227476   5.507   3.946   4.413  0.8271 -0.6658  1.1679
 2021TIP3   OH227477   5.147   5.015   4.155  0.2851 -0.3314 -0.4425
 2021TIP3    H127478   5.186   5.074   4.219  1.0554 -1.1178 -0.1770
 2021TIP3    H227479   5.109   4.944   4.208 -0.0675 -0.4066 -0.7930
 2022TIP3   OH227480   6.684   6.216   5.944 -0.0029  0.3522  1.2233
 2022TIP3    H127481   6.733   6.135   5.937  0.0470  0.4584  0.3521
 2022TIP3    H227482   6.740   6.273   5.998  0.4963  0.2125  0.8583
 2023TIP3   OH227483   2.820   2.957  12.328  0.1967  0.0660 -0.2765
 2023TIP3    H127484   2.885   2.996  12.270  0.3324  0.7720  0.3388
 2023TIP3    H227485   2.823   3.012  12.407  0.0279 -0.8856  0.3982
 2024TIP3   OH227486   5.195   0.611  16.426  0.4827 -0.3614 -0.1996
 2024TIP3    H127487   5.251   0.682  16.395  0.1108  0.2806  0.5935
 2024TIP3    H227488   5.115   0.619  16.374  0.5442 -0.3653 -0.2979
 2025TIP3   OH227489   4.705   4.864  17.233 -0.1053 -0.8656 -0.2339
 2025TIP3    H127490   4.643   4.822  17.293  0.0641 -0.5422  0.1696
 2025TIP3    H227491   4.688   4.957  17.242 -0.4049 -0.8469 -1.0497
 2026TIP3   OH227492   2.178   0.721  17.237 -0.8627  0.0053  0.3378
 2026TIP3    H127493   2.253   0.779  17.222  0.8036 -1.8160  1.4222
 2026TIP3    H227494   2.108   0.780  17.266  0.9653  1.4329  2.0097
 2027TIP3   OH227495   3.946   6.562  16.879 -0.6472  0.0430  0.5668
 2027TIP3    H127496   4.027   6.558  16.828 -1.4518  0.5116 -0.7558
 2027TIP3    H227497   3.951   6.486  16.937  0.0959 -0.7209 -0.4782
 2028TIP3   OH227498   5.673   2.300  13.274  0.5566  0.6803  0.0284
 2028TIP3    H127499   5.677   2.209  13.244  1.0936 -0.3889  3.0774
 2028TIP3    H227500   5.723   2.349  13.209 -0.6610 -1.0026 -2.2668
 2029TIP3   OH227501   3.386   4.046   0.914  0.6401  0.1688 -0.6153
 2029TIP3    H127502   3.476   4.079   0.917 -0.2220  2.6603 -1.2350
 2029TIP3    H227503   3.340   4.093   0.984 -0.0634 -1.5243  0.0894
 2030TIP3   OH227504   0.541   3.293   2.018  0.3608 -0.1017 -0.7664
 2030TIP3    H127505   0.520   3.368   1.962 -1.1651  0.2520  0.2629
 2030TIP3    H227506   0.625   3.316   2.059 -0.3064  1.2096 -0.1407
 2031TIP3   OH227507   2.293   5.956  17.170  0.3787 -0.5043 -0.2312
 2031TIP3    H127508   2.337   5.943  17.086  0.1440  1.5277 -0.6884
 2031TIP3    H227509   2.361   5.944  17.235  0.8666 -0.7144 -0.7748
 2032TIP3   OH227510   2.202   5.665   4.669  0.3541  0.2183  0.9416
 2032TIP3    H127511   2.219   5.739   4.727  0.9209  1.8719 -1.2657
 2032TIP3    H227512   2.287   5.642   4.634  0.1248 -1.2647  1.3106
 2033TIP3   OH227513   0.833   3.669  13.173 -0.2079 -0.4393  0.2467
 2033TIP3    H127514   0.788   3.603  13.226  1.2362 -1.8427 -0.2427
 2033TIP3    H227515   0.806   3.650  13.083  0.0617 -0.2458  0.1230
 2034TIP3   OH227516   5.800   3.531  14.079 -0.6150  0.0042 -0.2656
 2034TIP3    H127517   5.743   3.476  14.025 -2.9916  0.5266  1.6382
 2034TIP3    H227518   5.850   3.469  14.131 -1.7989 -0.4126  0.3870
 2035TIP3   OH227519   4.284   6.098  14.564 -0.0718 -0.0252 -0.0313
 2035TIP3    H127520   4.275   6.184  14.524 -1.6222 -0.0638  0.1976
 2035TIP3    H227521   4.342   6.112  14.638 -0.7305  0.9421  0.3149
 2036TIP3   OH227522   4.837   3.015  13.090  0.0394 -0.3361 -0.0157
 2036TIP3    H127523   4.756   3.041  13.047  0.3609  1.0049  0.1634
 2036TIP3    H227524   4.891   3.094  13.089  1.1092 -1.0484  0.4118
 2037TIP3   OH227525   4.186   3.977   2.859 -0.3154  0.8526 -0.4538
 2037TIP3    H127526   4.166   3.949   2.770 -1.1760 -0.4961  0.1551
 2037TIP3    H227527   4.120   3.934   2.913  0.9804  0.6362  0.9837
 2038TIP3   OH227528   1.940   6.549  10.914  0.1246  0.3944 -0.3050
 2038TIP3    H127529   1.873   6.615  10.893 -1.1849 -0.1138  2.0158
 2038TIP3    H227530   2.014   6.601  10.947 -0.9511  0.7570  1.6438
 2039TIP3   OH227531   5.416   6.278   2.107  0.2939 -0.4684  0.2509
 2039TIP3    H127532   5.464   6.221   2.167  0.6178  0.6968  1.1189
 2039TIP3    H227533   5.475   6.288   2.032 -0.3662 -2.4226 -0.5550
 2040TIP3   OH227534   0.889   2.292   4.960  0.6549 -0.0259  0.2830
 2040TIP3    H127535   0.875   2.201   4.935  0.1106 -0.0737  0.7509
 2040TIP3    H227536   0.838   2.343   4.898  3.0472  0.1306 -1.6626
 2041TIP3   OH227537   3.113   3.791  15.574  0.2773  0.2084 -0.3523
 2041TIP3    H127538   3.144   3.749  15.655 -0.4733 -1.4140 -0.8861
 2041TIP3    H227539   3.100   3.883  15.598  1.3708  0.0243  1.0072
 2042TIP3   OH227540   1.283   3.006   6.303 -0.3250 -0.7508  0.7418
 2042TIP3    H127541   1.326   2.930   6.263 -0.5649 -0.9349  0.8286
 2042TIP3    H227542   1.213   2.968   6.356 -1.4802 -0.3810 -0.4923
 2043TIP3   OH227543   3.768   4.848  15.227 -0.0143  0.0211  0.3453
 2043TIP3    H127544   3.849   4.895  15.207 -0.1259 -0.5779 -1.5934
 2043TIP3    H227545   3.701   4.890  15.173 -0.1786 -2.1531 -1.2153
 2044TIP3   OH227546   3.944   4.694   2.833  0.0213 -0.5767  0.4912
 2044TIP3    H127547   3.916   4.712   2.923  0.0942  0.2626  0.3519
 2044TIP3    H227548   4.009   4.762   2.814 -0.4370 -0.3817 -0.3993
 2045TIP3   OH227549   3.692   2.122  16.685 -0.4511 -0.4672 -0.2288
 2045TIP3    H127550   3.655   2.187  16.626  1.5234  0.6920 -0.2250
 2045TIP3    H227551   3.726   2.053  16.627 -2.3637 -1.4228 -0.2418
 2046TIP3   OH227552   5.116   3.488  13.974 -0.2041  0.3754 -0.1685
 2046TIP3    H127553   5.189   3.531  13.930 -0.6516 -0.0574 -1.3686
 2046TIP3    H227554   5.053   3.557  13.989  0.2516  0.6621  0.4454
 2047TIP3   OH227555   1.791   2.896  16.518 -0.6123  0.3501 -0.3000
 2047TIP3    H127556   1.810   2.814  16.473  3.2185  0.9794  0.0026
 2047TIP3    H227557   1.695   2.897  16.527 -0.8779 -3.1885 -1.8912
 2048TIP3   OH227558   2.685   4.959  13.015  0.5498  0.1509  0.4707
 2048TIP3    H127559   2.645   4.993  13.095 -0.7423 -2.2002  0.8521
 2048TIP3    H227560   2.618   4.970  12.948  0.0936 -1.6980  0.6147
 2049TIP3   OH227561   3.057   6.439   1.461 -0.1046  0.2676  0.0984
 2049TIP3    H127562   3.139   6.389   1.468 -0.6338 -0.3363  2.5227
 2049TIP3    H227563   2.989   6.372   1.467 -0.7905  1.0348  1.0974
 2050TIP3   OH227564   5.215   6.086   1.543 -0.0143  0.4281 -0.3344
 2050TIP3    H127565   5.154   6.117   1.476  0.6272 -1.7184 -2.0106
 2050TIP3    H227566   5.302   6.097   1.503  0.4006 -0.4326  0.3074
 2051TIP3   OH227567   4.603   2.925  15.706  0.0277 -0.3113 -0.2333
 2051TIP3    H127568   4.668   2.874  15.658  0.2744  1.2560 -1.6286
 2051TIP3    H227569   4.620   2.905  15.798  1.6226 -0.9615 -0.6452
 2052TIP3   OH227570   4.778   2.150   2.428  0.4119 -0.1795 -0.1005
 2052TIP3    H127571   4.822   2.222   2.383 -0.9436  1.3011  0.8910
 2052TIP3    H227572   4.815   2.071   2.388  2.3124  1.0417 -0.8235
 2053TIP3   OH227573   2.905   1.978   0.117  0.4352  0.2845 -0.4761
 2053TIP3    H127574   2.810   1.987   0.124  0.3851 -0.0178 -0.7704
 2053TIP3    H227575   2.936   1.991   0.207 -0.0163 -1.2149 -0.0931
 2054TIP3   OH227576   5.637   1.438  16.910 -0.7210 -0.0068 -0.0257
 2054TIP3    H127577   5.724   1.416  16.943 -0.4248  1.0335 -0.0879
 2054TIP3    H227578   5.577   1.416  16.982 -0.3021  0.1705  0.3797
 2055TIP3   OH227579   1.571   4.657  11.727 -0.5005 -0.4399  0.6350
 2055TIP3    H127580   1.577   4.651  11.823 -1.5928 -0.7787  0.6885
 2055TIP3    H227581   1.477   4.658  11.709 -0.3135 -1.8001 -0.5138
 2056TIP3   OH227582   5.083   1.113   0.782 -0.3757  0.1358  0.0986
 2056TIP3    H127583   5.167   1.095   0.738  0.2018 -0.2731  1.3567
 2056TIP3    H227584   5.036   1.030   0.778 -0.4210  0.1649  0.0319
 2057TIP3   OH227585   1.933   1.158  12.963 -0.0118  0.3091  0.2615
 2057TIP3    H127586   1.886   1.135  13.043 -0.0301  0.3865  0.2719
 2057TIP3    H227587   1.933   1.077  12.912  0.3266  0.1537  0.5016
 2058TIP3   OH227588   1.235   5.787   1.647  0.1950 -0.6640 -0.8144
 2058TIP3    H127589   1.221   5.788   1.552  1.4324 -0.6230 -0.9982
 2058TIP3    H227590   1.278   5.704   1.665 -2.5001 -1.9198  0.0905
 2059TIP3   OH227591   5.098   4.813  15.182 -0.3361  0.0139 -0.5470
 2059TIP3    H127592   5.090   4.800  15.087 -0.2157 -0.4727 -0.4940
 2059TIP3    H227593   5.193   4.810  15.198 -0.2966  1.1332 -0.5519
 2060TIP3   OH227594   1.676   2.726   4.919 -0.2893  0.2133  0.6895
 2060TIP3    H127595   1.691   2.806   4.970  1.5889 -1.0607  2.1628
 2060TIP3    H227596   1.708   2.747   4.831  0.2754  1.0408  1.0892
 2061TIP3   OH227597   5.450   6.153  12.595 -0.0982 -0.5565 -0.2424
 2061TIP3    H127598   5.518   6.119  12.537 -2.3478 -0.2117 -3.1782
 2061TIP3    H227599   5.456   6.248  12.586 -1.2314 -0.5388 -0.8267
 2062TIP3   OH227600   4.856   2.397  12.599  0.2355  0.5798 -0.2617
 2062TIP3    H127601   4.778   2.346  12.620  0.3921  0.5596  0.2867
 2062TIP3    H227602   4.904   2.403  12.682  0.5516  1.0431 -0.4726
 2063TIP3   OH227603   4.484   4.940   5.238  0.0541  0.1627  0.6240
 2063TIP3    H127604   4.461   4.997   5.311  0.4029 -0.2928  1.0875
 2063TIP3    H227605   4.440   4.857   5.257  1.5685 -0.5283  1.2148
 2064TIP3   OH227606   0.595   2.997   5.727 -0.2133 -0.3439 -0.0572
 2064TIP3    H127607   0.660   3.065   5.745 -1.0141  0.2019  0.8049
 2064TIP3    H227608   0.644   2.930   5.678 -0.0338  2.0470 -3.2992
 2065TIP3   OH227609   3.012   0.536   2.784  0.1558  0.0558 -0.5377
 2065TIP3    H127610   3.106   0.546   2.767  0.2926 -0.8731 -0.3523
 2065TIP3    H227611   3.007   0.471   2.854 -0.6800 -0.6860 -1.2859
 2066TIP3   OH227612   3.689   5.649   5.842  0.4755 -0.5010  0.3641
 2066TIP3    H127613   3.716   5.640   5.933 -0.6554 -0.3407  0.7151
 2066TIP3    H227614   3.743   5.585   5.795 -0.5803 -2.2272  1.4586
 2067TIP3   OH227615   1.180   5.984   0.399  0.4358 -0.3015 -0.5924
 2067TIP3    H127616   1.214   5.900   0.369 -1.0757 -0.4109 -2.0726
 2067TIP3    H227617   1.154   5.969   0.489  2.3204 -0.7711 -0.0977
 2068TIP3   OH227618   3.986   0.377   5.325  0.0735 -0.4960 -0.3494
 2068TIP3    H127619   4.057   0.316   5.342  0.2877 -0.1486  0.0197
 2068TIP3    H227620   3.982   0.432   5.404 -2.2917 -2.1748  0.7506
 2069TIP3   OH227621   5.479   6.663  14.955  0.3241  0.5670 -0.2026
 2069TIP3    H127622   5.463   6.638  15.046  0.7060 -0.5615 -0.4392
 2069TIP3    H227623   5.491   6.580  14.909  1.2145  1.1694 -1.0770
 2070TIP3   OH227624   5.100   2.992   2.117 -0.1321  0.1558  0.4441
 2070TIP3    H127625   5.070   2.953   2.034 -1.2592  0.9527  0.4699
 2070TIP3    H227626   5.021   3.027   2.157  0.2337 -1.2034  2.4139
 2071TIP3   OH227627   5.777   3.181   4.152  0.2124  0.2150 -0.3936
 2071TIP3    H127628   5.689   3.210   4.176 -0.2838  2.0185 -4.1086
 2071TIP3    H227629   5.804   3.124   4.224 -3.8169 -0.0163  1.0354
 2072TIP3   OH227630   1.855   2.256   4.376  0.0100  0.1302  0.0509
 2072TIP3    H127631   1.878   2.284   4.287  0.0752 -0.4299 -0.1157
 2072TIP3    H227632   1.760   2.271   4.382  0.0201  0.2486 -0.0848
 2073TIP3   OH227633   1.828   6.273  16.362 -0.1024  0.0642  0.5180
 2073TIP3    H127634   1.815   6.358  16.403 -0.2304  0.4376 -0.2786
 2073TIP3    H227635   1.886   6.291  16.288  0.0963 -0.5904  0.5145
 2074TIP3   OH227636   3.645   0.574  11.058  0.0694  0.4025 -0.0850
 2074TIP3    H127637   3.610   0.498  11.103  0.0387 -0.1871 -1.0983
 2074TIP3    H227638   3.708   0.538  10.996  0.0116  1.1956 -0.6106
 2075TIP3   OH227639   4.851   5.250   3.984  0.1885  0.3058  0.4115
 2075TIP3    H127640   4.820   5.307   3.914  2.3932  1.7229  0.5288
 2075TIP3    H227641   4.942   5.230   3.960  0.0374 -1.6516  1.3361
 2076TIP3   OH227642   2.522   2.688  11.650 -1.0378  0.0702 -0.4789
 2076TIP3    H127643   2.604   2.660  11.610 -1.8155 -0.5183 -1.6755
 2076TIP3    H227644   2.537   2.780  11.673 -0.1185  0.0205 -0.8527
 2077TIP3   OH227645   1.535   4.822  12.498 -0.4840  0.0695  0.6275
 2077TIP3    H127646   1.456   4.782  12.534 -1.1357 -0.6239 -1.5392
 2077TIP3    H227647   1.594   4.749  12.479 -0.3472  0.3778 -0.1725
 2078TIP3   OH227648   5.789   5.401   3.026 -0.6551 -0.1359 -0.2025
 2078TIP3    H127649   5.750   5.485   3.051  1.1249  0.4383  0.7188
 2078TIP3    H227650   5.819   5.363   3.108  2.3908  0.3041 -1.0594
 2079TIP3   OH227651   2.847   0.843  14.985  0.1879 -0.4717  0.9060
 2079TIP3    H127652   2.764   0.830  14.940  0.5130  0.0243  0.1607
 2079TIP3    H227653   2.854   0.768  15.044 -0.0195 -1.3988 -0.2228
 2080TIP3   OH227654   5.510   1.953   3.352  0.0248  0.0663  0.3867
 2080TIP3    H127655   5.462   1.893   3.294 -0.9043  0.0750  1.1267
 2080TIP3    H227656   5.536   2.025   3.295 -0.1065 -0.3486 -0.2063
 2081TIP3   OH227657   2.113   3.025  13.393 -0.1524  0.5929 -0.4010
 2081TIP3    H127658   2.033   3.057  13.352  0.6877  1.4958 -1.3980
 2081TIP3    H227659   2.182   3.082  13.358  1.0604 -0.8077 -0.3444
 2082TIP3   OH227660   2.462   5.880  12.307 -0.2093  0.0162 -0.0765
 2082TIP3    H127661   2.516   5.913  12.379 -2.5529 -0.3178  1.9200
 2082TIP3    H227662   2.459   5.786  12.321 -2.8017  0.2233  0.9712
 2083TIP3   OH227663   6.289   5.049   0.310  0.0490  0.2202  0.2967
 2083TIP3    H127664   6.321   4.971   0.355  1.5998 -0.0954 -1.2747
 2083TIP3    H227665   6.285   5.023   0.218  0.5404  1.9757 -0.2478
 2084TIP3   OH227666   2.786   3.245  12.121 -0.1952 -0.5043  0.1581
 2084TIP3    H127667   2.857   3.256  12.058  0.2227  1.2134  0.8979
 2084TIP3    H227668   2.772   3.333  12.157 -1.9688 -1.0367  0.7987
 2085TIP3   OH227669   6.098   0.176   0.141  0.1699 -0.0784 -0.0631
 2085TIP3    H127670   6.044   0.240   0.190  0.7342  1.2978 -1.2068
 2085TIP3    H227671   6.050   0.094   0.150  0.0260  0.2144  2.4544
 2086TIP3   OH227672   4.471   5.804  16.915  0.2981 -0.1578  0.2789
 2086TIP3    H127673   4.557   5.837  16.940  1.3388  0.0901 -3.3839
 2086TIP3    H227674   4.465   5.718  16.957  1.8071  0.3040  1.5070
 2087TIP3   OH227675   1.452   3.637  16.523  0.1680  0.1824  0.1679
 2087TIP3    H127676   1.493   3.577  16.585 -0.1239  1.3072  1.4630
 2087TIP3    H227677   1.364   3.650  16.557  0.6881  2.4694  0.6966
 2088TIP3   OH227678   4.535   1.965   4.752 -0.1056  0.0421 -0.1045
 2088TIP3    H127679   4.564   1.880   4.786 -1.5183 -0.7140 -0.7726
 2088TIP3    H227680   4.563   2.028   4.818 -0.7006 -1.1408  1.2889
 2089TIP3   OH227681   3.924   4.010  14.698 -0.3705 -0.4157 -0.2862
 2089TIP3    H127682   4.019   3.999  14.692 -0.4284 -0.2686 -1.6791
 2089TIP3    H227683   3.912   4.103  14.720 -0.1669 -0.6273  0.7026
 2090TIP3   OH227684   0.619   1.555  12.905  0.5783  0.4503  0.2118
 2090TIP3    H127685   0.626   1.610  12.827  1.8518 -0.8117 -0.5855
 2090TIP3    H227686   0.562   1.605  12.964 -0.8979  1.1626 -1.7301
 2091TIP3   OH227687   1.032   2.405  14.336  0.2085  0.7340 -0.1741
 2091TIP3    H127688   1.049   2.316  14.367 -2.4931  0.5094  0.7652
 2091TIP3    H227689   1.049   2.461  14.412 -0.0587  0.8224 -0.1779
 2092TIP3   OH227690   5.348   2.335   1.733  0.0568 -0.6434  0.3306
 2092TIP3    H127691   5.253   2.327   1.732  0.1428 -1.7900  0.5747
 2092TIP3    H227692   5.377   2.269   1.796  1.0671 -0.9424 -0.4276
 2093TIP3   OH227693   4.848   1.415  12.931  0.0224  0.0280  0.3979
 2093TIP3    H127694   4.914   1.444  12.994  0.8136 -2.0871  0.6003
 2093TIP3    H227695   4.787   1.363  12.983  0.8198 -1.9528 -0.5877
 2094TIP3   OH227696   0.192   3.914  12.043  0.5349  0.6025 -0.4936
 2094TIP3    H127697   0.283   3.927  12.016  0.4438 -0.8972 -1.5470
 2094TIP3    H227698   0.144   3.899  11.962 -0.2902 -0.7097  0.2056
 2095TIP3   OH227699   0.368   2.323   0.151  0.0540  0.0876  1.0023
 2095TIP3    H127700   0.382   2.360   0.064  0.6613 -1.0939  0.5877
 2095TIP3    H227701   0.421   2.243   0.152 -1.0106 -0.6219  1.9789
 2096TIP3   OH227702   0.995   5.442  15.626 -0.2347 -0.3254  0.0025
 2096TIP3    H127703   1.052   5.365  15.632  1.4314  1.0265  2.2952
 2096TIP3    H227704   1.035   5.496  15.558 -0.3014 -0.6050 -0.2583
 2097TIP3   OH227705   3.860   1.878   1.566  0.4217 -0.1313 -0.3354
 2097TIP3    H127706   3.892   1.793   1.596 -1.5795 -1.6618 -2.3787
 2097TIP3    H227707   3.936   1.919   1.524  1.1925 -1.1976  0.0007
 2098TIP3   OH227708   2.794   1.469   0.817  0.4946  0.4090  0.5036
 2098TIP3    H127709   2.839   1.519   0.886  0.0104 -1.5690  2.3179
 2098TIP3    H227710   2.860   1.457   0.749  1.0658  2.1888  0.7036
 2099TIP3   OH227711   4.447   1.139   0.149 -0.1942  0.1868  0.2918
 2099TIP3    H127712   4.479   1.056   0.113  2.7327  0.8114  1.3178
 2099TIP3    H227713   4.446   1.199   0.075 -1.9797 -0.6052 -0.3783
 2100TIP3   OH227714   0.761   3.321   0.769 -0.1372  0.5804  0.4420
 2100TIP3    H127715   0.701   3.272   0.825 -1.3284  1.3290 -0.1739
 2100TIP3    H227716   0.844   3.322   0.818 -1.5135  2.3579  2.8067
 2101TIP3   OH227717   3.311   2.512  15.694  0.4680  0.6260 -0.6789
 2101TIP3    H127718   3.390   2.504  15.640  0.6146 -0.8631 -0.2679
 2101TIP3    H227719   3.334   2.575  15.762  2.6243 -2.5455  1.6897
 2102TIP3   OH227720   3.607   1.866   0.323  0.0239  0.0737 -0.4620
 2102TIP3    H127721   3.639   1.909   0.244  2.1989 -0.3657  0.1548
 2102TIP3    H227722   3.576   1.937   0.379  1.6691  0.6575 -0.2958
 2103TIP3   OH227723   1.057   0.041  17.210  0.1457  0.0387  0.0241
 2103TIP3    H127724   1.026   0.120  17.253 -0.0283 -0.0641  0.0890
 2103TIP3    H227725   1.115   0.072  17.140  3.4625  0.1227  2.6609
 2104TIP3   OH227726   4.282   6.414  14.125 -0.1705  0.0767 -0.4410
 2104TIP3    H127727   4.332   6.377  14.053 -1.0089  1.6310 -1.8464
 2104TIP3    H227728   4.337   6.486  14.157 -0.7763  0.7577 -0.9355
 2105TIP3   OH227729   2.405   6.773   2.490 -0.5733 -0.1425 -0.3066
 2105TIP3    H127730   2.485   6.730   2.460 -1.5387 -0.4525 -2.5141
 2105TIP3    H227731   2.396   6.745   2.581  1.5624 -0.4861 -0.1720
 2106TIP3   OH227732   1.430   4.186   1.003  0.5529  0.4505 -0.3160
 2106TIP3    H127733   1.500   4.231   1.051  0.1449 -0.2115  0.9196
 2106TIP3    H227734   1.390   4.254   0.950  1.4057  1.0771 -0.1634
 2107TIP3   OH227735   5.685   5.977  14.126 -0.3706 -0.7057 -0.2221
 2107TIP3    H127736   5.719   5.954  14.039  0.3326 -2.4550  0.4864
 2107TIP3    H227737   5.665   6.070  14.120  1.6879 -0.3242 -1.5974
 2108TIP3   OH227738   2.247   2.417   4.520  0.4564  0.0487  0.1454
 2108TIP3    H127739   2.171   2.366   4.547  1.0101 -1.6133 -1.2865
 2108TIP3    H227740   2.280   2.456   4.601 -2.1111  1.1278  0.7296
 2109TIP3   OH227741   2.479   3.251  11.753  0.0608  0.2744  0.3925
 2109TIP3    H127742   2.434   3.334  11.764 -0.4826 -0.1444  1.4756
 2109TIP3    H227743   2.527   3.239  11.835  1.8048  0.5080 -0.5724
 2110TIP3   OH227744   5.083   0.174  16.736  0.5728  0.5502  0.0542
 2110TIP3    H127745   5.090   0.253  16.682 -0.0567 -0.4891 -1.5906
 2110TIP3    H227746   5.125   0.106  16.684  0.8506 -0.2786  1.3366
 2111TIP3   OH227747   5.468   4.613  13.984  0.2700 -0.3575  0.1287
 2111TIP3    H127748   5.421   4.694  14.005  0.8333 -0.9139  4.0604
 2111TIP3    H227749   5.398   4.549  13.969 -0.2352 -0.0614  1.1192
 2112TIP3   OH227750   3.129   5.154   5.471  0.1892 -0.1234 -0.5910
 2112TIP3    H127751   3.203   5.213   5.455 -1.0857  1.6401 -0.1426
 2112TIP3    H227752   3.160   5.094   5.538  1.0312  0.9733  0.0172
 2113TIP3   OH227753   1.853   4.398   1.525  0.0756 -0.5995 -0.3261
 2113TIP3    H127754   1.808   4.335   1.582  0.5461 -1.1991 -0.6213
 2113TIP3    H227755   1.782   4.449   1.485 -0.2237  1.3439  2.4999
 2114TIP3   OH227756   5.522   2.615  11.336 -0.4924  0.0691 -0.5098
 2114TIP3    H127757   5.481   2.695  11.370 -2.3808 -0.6982 -0.9423
 2114TIP3    H227758   5.503   2.616  11.242  0.8548 -0.1043 -0.8053
 2115TIP3   OH227759   1.351   4.034   3.571 -0.3769 -0.1153  0.1479
 2115TIP3    H127760   1.405   4.102   3.609  0.6863 -1.0586  0.3593
 2115TIP3    H227761   1.262   4.067   3.578  0.2752  2.1690 -1.6672
 2116TIP3   OH227762   1.800   4.566  12.184  0.8206  0.2725  0.2851
 2116TIP3    H127763   1.741   4.491  12.181 -0.0474  0.9799 -0.9897
 2116TIP3    H227764   1.888   4.528  12.185  0.3768 -0.7652  0.2154
 2117TIP3   OH227765   5.526   4.405  16.182  0.8741  0.8976 -0.2392
 2117TIP3    H127766   5.460   4.338  16.203  0.5844  0.9914 -0.8447
 2117TIP3    H227767   5.608   4.357  16.173  0.3684  0.3943 -2.3294
 2118TIP3   OH227768   2.352   4.742   1.778  0.2377 -0.4680  0.0908
 2118TIP3    H127769   2.414   4.719   1.848 -0.1828 -2.2491 -0.1003
 2118TIP3    H227770   2.365   4.675   1.711 -1.2031 -0.2901 -0.3826
 2119TIP3   OH227771   0.813   0.980  15.710 -0.0929  0.0739  0.3972
 2119TIP3    H127772   0.843   0.981  15.619 -0.6802  1.9131  0.2191
 2119TIP3    H227773   0.720   0.956  15.705  0.6037 -2.9799  0.7700
 2120TIP3   OH227774   2.161   0.432   5.254  0.2042 -0.2943 -0.0623
 2120TIP3    H127775   2.175   0.432   5.349  0.9267 -0.2424 -0.1716
 2120TIP3    H227776   2.099   0.504   5.240  0.3092 -0.1226  0.3365
 2121TIP3   OH227777   0.104   4.963  13.767  0.5201 -0.1545  0.0797
 2121TIP3    H127778   0.054   5.010  13.833 -0.4480  0.0960 -0.8125
 2121TIP3    H227779   0.119   4.877  13.805  1.7512  0.6409  1.4640
 2122TIP3   OH227780   3.611   6.643   5.799 -0.2629 -0.0790  0.2829
 2122TIP3    H127781   3.637   6.622   5.709  0.3240 -1.4276  0.7489
 2122TIP3    H227782   3.694   6.654   5.846 -0.5656  0.0678  0.7887
 2123TIP3   OH227783   4.157   6.291  13.786 -1.0125  0.3052 -0.2020
 2123TIP3    H127784   4.219   6.273  13.856  0.4471  2.4415 -0.9036
 2123TIP3    H227785   4.183   6.233  13.715 -1.4318 -0.6377  0.4086
 2124TIP3   OH227786   0.412   5.849   0.975 -1.0863 -0.6097 -0.0404
 2124TIP3    H127787   0.422   5.759   0.942  1.3408 -0.1628 -0.6597
 2124TIP3    H227788   0.454   5.903   0.908 -2.6336  1.0210  0.2758
 2125TIP3   OH227789   2.928   2.626   2.517  0.0095  0.2463 -0.3432
 2125TIP3    H127790   2.859   2.650   2.579 -0.9613 -0.6540 -1.0716
 2125TIP3    H227791   2.936   2.703   2.460 -1.1939 -0.0743 -0.9667
 2126TIP3   OH227792   1.563   1.659  11.334 -0.1068 -0.0965  0.7796
 2126TIP3    H127793   1.490   1.612  11.293  0.4333 -1.2239  1.1048
 2126TIP3    H227794   1.613   1.694  11.261 -0.5329  0.0219  0.5411
 2127TIP3   OH227795   3.923   5.528   4.594  0.2773  0.4189  0.5404
 2127TIP3    H127796   3.995   5.521   4.657  0.3883  1.8150  0.5929
 2127TIP3    H227797   3.963   5.568   4.517 -0.0711 -0.4035 -0.0734
 2128TIP3   OH227798   6.085   4.988  11.930 -0.0368  0.5329  0.0277
 2128TIP3    H127799   6.073   5.009  12.022 -0.2900 -2.9495  0.8711
 2128TIP3    H227800   6.179   5.000  11.915 -0.0051  1.1645  0.7293
 2129TIP3   OH227801   4.047   6.318   5.670 -0.3798 -0.0454 -0.5681
 2129TIP3    H127802   4.142   6.323   5.686 -0.5706 -0.1116  0.6600
 2129TIP3    H227803   4.008   6.350   5.751 -1.4265 -1.0873 -0.6558
 2130TIP3   OH227804   1.197   6.249   5.199 -0.5878 -0.3031 -0.3429
 2130TIP3    H127805   1.123   6.265   5.140  0.8697 -3.3772 -3.1879
 2130TIP3    H227806   1.274   6.274   5.148  0.5709 -0.2965  1.3530
 2131TIP3   OH227807   4.699   0.172  13.017 -0.0091 -0.0078 -0.3669
 2131TIP3    H127808   4.624   0.117  13.037 -0.1954  0.5043  0.3780
 2131TIP3    H227809   4.745   0.126  12.947 -1.0925 -0.2455 -0.9289
 2132TIP3   OH227810   1.641   3.557  15.760  0.4528 -0.1373 -0.0371
 2132TIP3    H127811   1.614   3.598  15.843 -1.1323  0.3197 -0.7596
 2132TIP3    H227812   1.572   3.581  15.698  0.1795 -2.7831 -0.8126
 2133TIP3   OH227813   0.700   3.864   5.840  0.3515  0.1963 -0.4430
 2133TIP3    H127814   0.680   3.838   5.751 -0.7256  0.6822 -0.3460
 2133TIP3    H227815   0.714   3.782   5.887 -2.1507 -0.1857 -0.3372
 2134TIP3   OH227816   4.067   6.158   4.738 -0.2827 -0.1305  0.0971
 2134TIP3    H127817   3.988   6.114   4.708 -0.4454 -0.3250  0.8162
 2134TIP3    H227818   4.137   6.120   4.685 -0.1420 -2.6859  2.0620
 2135TIP3   OH227819   6.654   1.084   6.196  0.6907 -0.0057  0.2961
 2135TIP3    H127820   6.619   1.054   6.280 -0.8798  0.9485 -0.0045
 2135TIP3    H227821   6.579   1.079   6.136  1.9990 -1.4922 -1.2649
 2136TIP3   OH227822   0.511   5.498  13.491  0.6785  0.0895  0.2314
 2136TIP3    H127823   0.514   5.592  13.475 -0.3923  0.1900  0.5720
 2136TIP3    H227824   0.453   5.488  13.566  0.9772 -0.8246  0.3491
 2137TIP3   OH227825   2.044   5.153   2.691  0.1660  0.0463 -0.1702
 2137TIP3    H127826   2.071   5.072   2.647 -0.5544 -0.5986  0.5376
 2137TIP3    H227827   1.958   5.172   2.655 -0.1541 -0.1350  0.4769
 2138TIP3   OH227828   5.830   5.796  14.258  0.1620  0.5094  0.0597
 2138TIP3    H127829   5.809   5.719  14.206 -3.1558  0.8295  0.8538
 2138TIP3    H227830   5.791   5.869  14.211  2.1274  1.5663  0.0113
 2139TIP3   OH227831   3.310   5.641   0.475  0.2788 -0.2459 -0.0517
 2139TIP3    H127832   3.390   5.692   0.462 -0.4317  0.6692 -0.8755
 2139TIP3    H227833   3.334   5.551   0.450  1.7450 -0.5098  2.1288
 2140TIP3   OH227834   1.524   2.112  14.231 -0.2088 -0.0622  0.1625
 2140TIP3    H127835   1.483   2.186  14.277 -0.5807 -0.2680  0.1659
 2140TIP3    H227836   1.612   2.142  14.211 -0.7507  0.8456 -0.9313
 2141TIP3   OH227837   6.331   1.187   2.385 -0.3709 -0.2840 -0.8608
 2141TIP3    H127838   6.314   1.105   2.339  0.0308 -0.4697 -0.6710
 2141TIP3    H227839   6.245   1.214   2.418 -0.4442 -0.8048 -0.6238
 2142TIP3   OH227840   0.877   5.760   3.579 -0.0718  0.0425 -0.5800
 2142TIP3    H127841   0.813   5.829   3.562 -1.1402 -0.8833 -0.3610
 2142TIP3    H227842   0.951   5.806   3.619 -1.5073  0.8382  1.2713
 2143TIP3   OH227843   6.444   3.577  11.392 -0.4852 -0.1029 -0.3441
 2143TIP3    H127844   6.527   3.596  11.349 -0.5345  0.7469 -0.0902
 2143TIP3    H227845   6.467   3.528  11.471 -0.2651 -0.3215 -0.5479
 2144TIP3   OH227846   0.219   2.128  17.026  0.2208  0.0211 -0.4466
 2144TIP3    H127847   0.159   2.200  17.008  1.2017  0.2076 -3.2461
 2144TIP3    H227848   0.306   2.162  17.001  0.8480 -1.7223 -0.7240
 2145TIP3   OH227849   5.990   4.365  12.101  0.5463 -0.1813 -0.0872
 2145TIP3    H127850   6.078   4.339  12.076  1.4677  2.7166  0.0012
 2145TIP3    H227851   5.989   4.359  12.197  1.2941  1.7531  0.0424
 2146TIP3   OH227852   0.961   5.520  13.054 -0.2999  0.5619 -0.4164
 2146TIP3    H127853   1.026   5.452  13.072 -1.1963  0.0460  0.9809
 2146TIP3    H227854   0.907   5.484  12.984 -0.6907 -0.1471  0.2267
 2147TIP3   OH227855   0.989   6.115  14.765  0.3162  0.1331 -0.4882
 2147TIP3    H127856   0.906   6.137  14.808  0.3600 -0.1724 -0.2493
 2147TIP3    H227857   0.984   6.021  14.748  0.1956  0.2983 -1.3845
 2148TIP3   OH227858   4.660   5.483   1.035  0.6585 -0.2582  0.0921
 2148TIP3    H127859   4.684   5.487   0.942 -1.9821  1.1529 -0.6042
 2148TIP3    H227860   4.650   5.390   1.054  1.2737 -0.5601 -1.0178
 2149TIP3   OH227861   4.141   6.520   5.505 -0.5559 -0.5597 -0.0805
 2149TIP3    H127862   4.065   6.568   5.472 -0.3736 -1.1162 -1.3451
 2149TIP3    H227863   4.104   6.448   5.556 -0.8664 -0.8170 -0.6725
 2150TIP3   OH227864   3.935   1.970  17.139  0.7022  0.2630  0.8366
 2150TIP3    H127865   3.942   1.921  17.221 -0.6090 -1.2684  0.0669
 2150TIP3    H227866   3.864   2.032  17.153 -0.5516 -1.0440  0.3653
 2151TIP3   OH227867   4.648   1.220   2.200  0.1563 -0.2783 -0.1028
 2151TIP3    H127868   4.704   1.205   2.124 -0.5917 -0.9629 -0.5219
 2151TIP3    H227869   4.673   1.308   2.230  0.7647 -0.1790 -0.8666
 2152TIP3   OH227870   5.058   0.808  13.109  0.2755 -0.4695  0.9876
 2152TIP3    H127871   5.034   0.735  13.166  0.1733 -1.1149  0.1244
 2152TIP3    H227872   5.078   0.767  13.025  0.6562  0.4535  0.6256
 2153TIP3   OH227873   2.447   3.972  14.498  0.3552 -0.0680 -0.3225
 2153TIP3    H127874   2.371   4.028  14.514  1.9568  1.8904  0.6901
 2153TIP3    H227875   2.456   3.969  14.403  0.6230  1.9463 -0.3811
 2154TIP3   OH227876   0.027   0.491  13.932 -0.4602  0.1239  0.3812
 2154TIP3    H127877   0.109   0.537  13.914 -0.1264 -0.5846  0.0829
 2154TIP3    H227878  -0.042   0.555  13.913  0.0567  1.1156  1.8177
 2155TIP3   OH227879   2.923   0.066   5.484  0.2224 -0.2623 -0.4404
 2155TIP3    H127880   2.942   0.111   5.402 -1.0065  0.7635 -0.1773
 2155TIP3    H227881   2.911   0.136   5.548 -1.8138 -0.9232 -0.0537
 2156TIP3   OH227882   2.727   3.479  15.702 -0.1485  0.8632 -0.0240
 2156TIP3    H127883   2.714   3.522  15.617  1.4096  1.3355 -0.0395
 2156TIP3    H227884   2.780   3.540  15.752 -1.2871  0.7035  1.4157
 2157TIP3   OH227885   6.761   1.370   0.540 -1.5816  0.1994  0.3878
 2157TIP3    H127886   6.749   1.409   0.454 -0.3679  0.5601  0.3731
 2157TIP3    H227887   6.783   1.444   0.597  1.0148 -0.4456  0.3078
 2158TIP3   OH227888   5.778   5.925   1.416  0.2711 -0.1597  0.3409
 2158TIP3    H127889   5.739   5.993   1.360  1.4924  0.4142  0.1617
 2158TIP3    H227890   5.723   5.926   1.495  2.1149  3.3236  1.7164
 2159TIP3   OH227891   3.341   6.632   5.681  0.4234 -0.5011  0.5065
 2159TIP3    H127892   3.365   6.678   5.600  1.4033 -1.4811  0.2395
 2159TIP3    H227893   3.424   6.604   5.719 -0.1309 -1.4831  1.0084
 2160TIP3   OH227894   5.164   6.238  11.082 -0.0698 -0.1979 -0.0510
 2160TIP3    H127895   5.143   6.305  11.018 -1.2734 -0.9573 -0.4699
 2160TIP3    H227896   5.080   6.200  11.106  0.6352 -1.9737 -0.2893
 2161TIP3   OH227897   5.859   3.581  15.871 -0.1569 -0.0559  0.0962
 2161TIP3    H127898   5.806   3.661  15.864 -2.6543 -1.6883 -0.2230
 2161TIP3    H227899   5.948   3.610  15.850 -1.1538  2.4689 -0.8967
 2162TIP3   OH227900   3.108   6.357  12.667  0.3679 -0.5166 -0.5233
 2162TIP3    H127901   3.107   6.286  12.731 -0.7190 -0.1414 -0.1205
 2162TIP3    H227902   3.045   6.421  12.700  1.1531  0.5212 -1.0166
 2163TIP3   OH227903   1.913   2.391   5.458  0.4931 -0.3522  0.3452
 2163TIP3    H127904   1.916   2.474   5.507 -0.9948 -0.2319  0.2270
 2163TIP3    H227905   1.820   2.369   5.452  0.9491 -2.8995  1.8262
 2164TIP3   OH227906   1.040   3.225  12.137 -0.4394  0.2843  0.2715
 2164TIP3    H127907   1.081   3.291  12.082  0.1669  0.0875  0.4759
 2164TIP3    H227908   1.095   3.147  12.125 -2.5033 -0.8929 -1.8027
 2165TIP3   OH227909   2.025   3.773  15.409  0.0359  0.5139 -0.7880
 2165TIP3    H127910   2.090   3.793  15.476 -1.1302 -0.4967  0.6947
 2165TIP3    H227911   1.941   3.780  15.454 -0.7075 -1.6712 -1.7465
 2166TIP3   OH227912   2.393   5.402   4.261  0.3948 -0.0003 -0.9751
 2166TIP3    H127913   2.385   5.428   4.169  0.4484 -0.4907 -1.1216
 2166TIP3    H227914   2.487   5.386   4.273  0.6106  1.6124 -0.4066
 2167TIP3   OH227915   2.670   1.254   1.681 -0.2374  0.2745 -0.2798
 2167TIP3    H127916   2.660   1.338   1.635  0.5667 -0.2134 -1.3404
 2167TIP3    H227917   2.615   1.264   1.759  1.1737  2.4244  0.4701
 2168TIP3   OH227918   2.287   2.909  13.556 -0.0465  0.6430 -0.3031
 2168TIP3    H127919   2.206   2.958  13.544  0.4211  0.7873 -3.0052
 2168TIP3    H227920   2.354   2.962  13.514  1.2458 -0.1161  0.7658
 2169TIP3   OH227921   5.291   2.931   0.639 -0.2823 -0.2744  0.3944
 2169TIP3    H127922   5.356   2.878   0.685 -0.0523 -1.6807 -1.5054
 2169TIP3    H227923   5.284   2.891   0.552 -0.1438  2.7509 -1.0735
 2170TIP3   OH227924   6.379   5.145  11.432 -0.6502 -0.0832  0.1308
 2170TIP3    H127925   6.390   5.226  11.483  2.4907  0.2779 -0.9933
 2170TIP3    H227926   6.349   5.175  11.346  0.1377 -0.1248 -0.1644
 2171TIP3   OH227927   2.475   0.171  16.153  0.0477 -0.5801  0.2117
 2171TIP3    H127928   2.545   0.162  16.088 -0.4686 -0.8355 -0.3186
 2171TIP3    H227929   2.413   0.101  16.131 -0.0880 -0.7320  1.0420
 2172TIP3   OH227930   2.637   4.331   5.803 -0.1751  0.1859 -0.3087
 2172TIP3    H127931   2.692   4.320   5.726  0.8693 -0.4486  0.5132
 2172TIP3    H227932   2.557   4.372   5.770 -0.4590 -1.6533 -2.0040
 2173TIP3   OH227933   0.209   5.077  11.389  0.1545 -0.1860  0.1562
 2173TIP3    H127934   0.131   5.048  11.435 -1.7321  0.5972 -2.4353
 2173TIP3    H227935   0.223   5.011  11.321 -0.0589  1.2630 -1.3264
 2174TIP3   OH227936   2.174   4.953  11.229  0.3223  0.1432  0.1639
 2174TIP3    H127937   2.143   4.996  11.309 -0.7578  1.9124 -1.1668
 2174TIP3    H227938   2.099   4.903  11.198  0.0174  1.2056 -0.8822
 2175TIP3   OH227939   6.136   0.511   4.202 -0.3177 -0.2404  0.3554
 2175TIP3    H127940   6.123   0.418   4.182 -1.6494 -0.0004  0.0285
 2175TIP3    H227941   6.184   0.545   4.126 -1.4011 -0.2928 -0.3686
 2176TIP3   OH227942   4.819   3.268  15.314 -0.2635  0.1815  1.3308
 2176TIP3    H127943   4.782   3.181  15.329 -0.7774  0.3658  1.1541
 2176TIP3    H227944   4.745   3.328  15.327  0.0877  0.5895  1.4538
 2177TIP3   OH227945   3.167   2.296  16.346 -0.2947  0.2509 -0.2007
 2177TIP3    H127946   3.135   2.226  16.403 -1.0302 -1.7016 -2.9282
 2177TIP3    H227947   3.252   2.264  16.315  0.1447  1.3401 -0.1257
 2178TIP3   OH227948   2.415   2.648   5.167  0.5569  0.1304 -0.1154
 2178TIP3    H127949   2.367   2.685   5.092  1.8666 -0.1897 -1.1264
 2178TIP3    H227950   2.483   2.712   5.187 -0.1274  0.4707  1.1636
 2179TIP3   OH227951   0.905   3.090  16.920  0.0429 -0.2271  0.0284
 2179TIP3    H127952   0.966   3.139  16.864 -1.2975 -1.0973 -2.2745
 2179TIP3    H227953   0.825   3.141  16.919 -0.5223 -1.1064 -0.2048
 2180TIP3   OH227954   2.959   1.496   4.264  0.4332 -0.0153 -0.0485
 2180TIP3    H127955   2.869   1.496   4.296  0.2557  1.1335 -0.5282
 2180TIP3    H227956   2.955   1.451   4.179 -0.0192  1.6661 -0.9381
 2181TIP3   OH227957   2.599   0.474   1.057  0.1490 -0.5140 -0.3901
 2181TIP3    H127958   2.684   0.477   1.101  1.0090 -1.6591 -1.9531
 2181TIP3    H227959   2.566   0.386   1.074 -0.8507 -0.0022  0.4012
 2182TIP3   OH227960   6.488   4.724   0.902 -0.2181 -0.4711  0.0538
 2182TIP3    H127961   6.475   4.641   0.855  0.1691 -0.3472 -0.2755
 2182TIP3    H227962   6.572   4.712   0.948 -0.0506 -0.1736 -0.1766
 2183TIP3   OH227963   4.707   4.906   6.032  0.4750 -0.3049  0.6659
 2183TIP3    H127964   4.797   4.885   6.058  0.7530 -1.2136 -0.9490
 2183TIP3    H227965   4.659   4.824   6.046 -0.2529  0.3555  2.1226
 2184TIP3   OH227966   1.856   5.840  13.507 -0.3969 -0.1323 -0.0316
 2184TIP3    H127967   1.802   5.916  13.486 -2.5580 -1.5471  0.2714
 2184TIP3    H227968   1.889   5.858  13.596 -0.3763  0.7329 -0.2146
 2185TIP3   OH227969   0.455   0.510   2.451  0.8074 -0.2798 -0.4178
 2185TIP3    H127970   0.479   0.422   2.478 -0.3278 -0.5254 -0.2181
 2185TIP3    H227971   0.413   0.549   2.527  0.3972  0.0910 -0.8270
 2186TIP3   OH227972   1.465   1.129  15.328 -0.2391 -0.7467  0.0476
 2186TIP3    H127973   1.513   1.109  15.408  0.5592 -2.5376 -0.8747
 2186TIP3    H227974   1.501   1.070  15.262 -1.6912 -0.0926 -1.3626
 2187TIP3   OH227975   4.562   0.926   1.775 -0.7425  0.8364 -0.0498
 2187TIP3    H127976   4.534   0.868   1.846  0.7345  1.9833  1.5326
 2187TIP3    H227977   4.589   0.867   1.705  1.9063 -0.5054  1.9769
 2188TIP3   OH227978   5.379   6.304   4.383  0.0837 -0.0360 -0.2112
 2188TIP3    H127979   5.333   6.386   4.401  0.4855  0.1230  0.1163
 2188TIP3    H227980   5.312   6.245   4.350 -0.3365  0.2196  0.1802
 2189TIP3   OH227981   5.133   2.567   2.214 -0.0407  0.3630 -0.1103
 2189TIP3    H127982   5.206   2.516   2.178  0.6978  1.0791  0.3438
 2189TIP3    H227983   5.174   2.648   2.245 -1.1356  1.0654 -0.4756
 2190TIP3   OH227984   6.345   3.316   5.304  0.0780  0.1336 -0.1176
 2190TIP3    H127985   6.345   3.409   5.328 -0.4496 -0.3197  1.7717
 2190TIP3    H227986   6.279   3.277   5.362  2.9489 -2.0522  1.7946
 2191TIP3   OH227987   1.601   3.043   1.714  0.2862 -0.3746 -0.3905
 2191TIP3    H127988   1.628   3.035   1.806  0.1441  0.9263 -0.2258
 2191TIP3    H227989   1.658   3.110   1.677 -0.4356 -0.0497 -0.9400
 2192TIP3   OH227990   4.029   0.533   2.840  0.4213  0.0166  0.1615
 2192TIP3    H127991   4.055   0.534   2.748  0.2574 -2.1522  0.0765
 2192TIP3    H227992   4.055   0.447   2.872 -0.4092  0.3847  1.8967
 2193TIP3   OH227993   1.353   4.960   5.800 -0.4106 -0.0825  0.1864
 2193TIP3    H127994   1.377   4.939   5.890 -0.1421 -0.5533  0.0109
 2193TIP3    H227995   1.261   4.937   5.793 -0.5126  0.2518  0.4284
 2194TIP3   OH227996   1.931   2.287   2.156  0.1645  0.7753  0.0206
 2194TIP3    H127997   1.835   2.290   2.156  0.1194 -0.3037 -0.7077
 2194TIP3    H227998   1.956   2.325   2.240 -0.9638 -0.3730  0.9068
 2195TIP3   OH227999   1.651   5.330   1.977  0.7032  0.1220  0.0252
 2195TIP3    H128000   1.653   5.425   1.990 -0.9652  0.1117  0.4786
 2195TIP3    H228001   1.584   5.316   1.910  0.7219 -0.7488  0.1825
 2196TIP3   OH228002   4.377   2.108  11.592 -0.0146 -0.8597  0.5974
 2196TIP3    H128003   4.286   2.117  11.621 -0.0983 -1.0203  0.3815
 2196TIP3    H228004   4.423   2.177  11.639  0.0096 -1.6701  1.7725
 2197TIP3   OH228005   0.356   2.572   4.574  0.2289 -0.0222  0.1543
 2197TIP3    H128006   0.366   2.538   4.485 -1.3276 -1.2431  0.4190
 2197TIP3    H228007   0.378   2.665   4.567 -0.4268  0.0209 -1.6077
 2198TIP3   OH228008   0.939   4.640  12.777  0.3162  0.2061 -0.2662
 2198TIP3    H128009   0.850   4.669  12.796 -0.2648 -1.2951 -0.6189
 2198TIP3    H228010   0.993   4.681  12.845 -0.2811  3.0426 -1.4440
 2199TIP3   OH228011   3.136   0.042   1.329  0.3780  0.4620 -0.0517
 2199TIP3    H128012   3.225   0.039   1.295  0.1325 -0.0243 -0.6574
 2199TIP3    H228013   3.146   0.033   1.424  0.8686 -1.2062 -0.2548
 2200TIP3   OH228014   3.436   1.756   1.199  0.1218 -0.7932  0.0478
 2200TIP3    H128015   3.379   1.683   1.175 -0.7788  0.0362 -0.3621
 2200TIP3    H228016   3.403   1.830   1.149  0.2647  0.1839  1.3552
 2201TIP3   OH228017   6.515   6.649   2.281  0.2011 -0.0033  0.0206
 2201TIP3    H128018   6.603   6.626   2.254  0.3594  1.4302 -0.7313
 2201TIP3    H228019   6.461   6.638   2.203  0.2572  1.9386 -0.3362
 2202TIP3   OH228020   1.769   5.637  13.356 -0.0840  0.0593 -0.7331
 2202TIP3    H128021   1.692   5.596  13.394 -0.0461  0.2529 -0.4442
 2202TIP3    H228022   1.779   5.719  13.404  0.1321  0.1713 -0.9649
 2203TIP3   OH228023   0.172   4.752   1.826  0.1212 -0.1011 -0.1929
 2203TIP3    H128024   0.098   4.812   1.838  0.4333  0.7355 -2.2733
 2203TIP3    H228025   0.192   4.757   1.732  0.5056 -3.0488 -0.3072
 2204TIP3   OH228026   2.970   5.481  15.832  0.6468 -0.0296  0.1968
 2204TIP3    H128027   2.952   5.491  15.925  0.9465 -0.0025  0.2549
 2204TIP3    H228028   2.928   5.557  15.791  0.6427  0.0392  0.3301
 2205TIP3   OH228029   3.698   3.313   1.319 -0.4721  0.8725  0.2081
 2205TIP3    H128030   3.715   3.373   1.246 -0.1700  0.2856 -0.2050
 2205TIP3    H228031   3.642   3.363   1.378 -1.3159  1.1016 -0.7687
 2206TIP3   OH228032   6.401   2.787   2.027  0.0073 -0.0907 -0.2407
 2206TIP3    H128033   6.485   2.761   2.065  0.8894  1.6919 -0.8939
 2206TIP3    H228034   6.388   2.876   2.058 -1.4161 -0.1788 -0.5647
 2207TIP3   OH228035   5.648   5.360  13.101 -0.2429  0.1395  0.7271
 2207TIP3    H128036   5.655   5.292  13.168 -1.6681 -0.9641 -0.2350
 2207TIP3    H228037   5.697   5.434  13.138  0.0054 -0.8552  2.4644
 2208TIP3   OH228038   3.637   1.612   0.651 -0.2902  0.8668 -0.8069
 2208TIP3    H128039   3.571   1.619   0.583 -0.9222  1.4465 -0.1433
 2208TIP3    H228040   3.613   1.679   0.715  1.1920  1.3889 -0.7676
 2209TIP3   OH228041   3.041   4.348   3.801 -0.6224  0.8610  0.2957
 2209TIP3    H128042   2.979   4.333   3.730  1.4765  0.7691 -1.5863
 2209TIP3    H228043   3.049   4.263   3.845  0.0452  0.2237 -1.0320
 2210TIP3   OH228044   6.288   6.276   3.368 -0.6812  0.4064  0.6678
 2210TIP3    H128045   6.324   6.364   3.378 -0.3189  0.1600  1.6674
 2210TIP3    H228046   6.194   6.289   3.356 -0.5551  0.9574  0.2792
 2211TIP3   OH228047   3.740   2.154  13.512 -0.4574  0.4795 -0.0451
 2211TIP3    H128048   3.674   2.192  13.453 -0.4220 -1.2451 -1.2341
 2211TIP3    H228049   3.708   2.066  13.530  0.4248  0.4001  1.1341
 2212TIP3   OH228050   3.677   6.490   5.053  0.0162 -0.3673  0.0252
 2212TIP3    H128051   3.589   6.468   5.082  0.3674 -0.9122  0.6858
 2212TIP3    H228052   3.699   6.423   4.988  0.6145 -1.2628  1.1422
 2213TIP3   OH228053   2.708   5.797   0.235 -0.5348 -0.5470  0.2485
 2213TIP3    H128054   2.719   5.821   0.327 -1.7484 -0.2697  0.3272
 2213TIP3    H228055   2.679   5.705   0.238  1.1687 -1.1132  0.0622
 2214TIP3   OH228056   1.242   6.384   3.157  0.1602  0.4410  0.4248
 2214TIP3    H128057   1.305   6.436   3.108 -2.0581  0.4914 -2.4734
 2214TIP3    H228058   1.179   6.448   3.190  0.1662  0.0892  1.1428
 2215TIP3   OH228059   1.782   6.639  15.056 -0.2229  0.1860 -0.4411
 2215TIP3    H128060   1.697   6.677  15.079  0.6566  1.4209  0.8348
 2215TIP3    H228061   1.842   6.670  15.124  1.6042  0.6627 -2.1939
 2216TIP3   OH228062   1.363   5.576  14.625 -0.1838 -0.6350 -0.4387
 2216TIP3    H128063   1.323   5.640  14.567  1.8829  1.1855  0.0759
 2216TIP3    H228064   1.406   5.513  14.567 -2.7879 -2.0184 -0.9626
 2217TIP3   OH228065   4.339   1.441   0.052  0.9986 -0.0682  0.0066
 2217TIP3    H128066   4.320   1.467   0.142 -0.7762 -0.2063 -0.3158
 2217TIP3    H228067   4.424   1.482   0.033  1.4248 -0.0972  1.7458
 2218TIP3   OH228068   3.463   0.394   5.157  0.1043 -0.5316 -0.0085
 2218TIP3    H128069   3.395   0.425   5.097  0.0869 -0.4874  0.0347
 2218TIP3    H228070   3.504   0.473   5.191  0.0857 -0.5563  0.0715
 2219TIP3   OH228071   3.225   1.601   6.195  0.5680 -0.4117 -0.5833
 2219TIP3    H128072   3.244   1.508   6.202  0.7157 -0.1407  3.4631
 2219TIP3    H228073   3.299   1.644   6.236  0.3673  1.5225 -2.1634
 2220TIP3   OH228074   2.976   0.350   5.939  0.1445  0.4982 -0.4553
 2220TIP3    H128075   2.922   0.349   6.018 -0.6646  0.3656 -1.0132
 2220TIP3    H228076   3.020   0.266   5.939 -0.2924  0.2694 -0.4470
 2221TIP3   OH228077   5.524   6.655   4.561 -0.0240  0.1020  0.5767
 2221TIP3    H128078   5.449   6.633   4.507 -0.4187  0.3114  1.0404
 2221TIP3    H228079   5.599   6.646   4.503 -0.3839 -0.3651  0.1862
 2222TIP3   OH228080   3.048   5.713  17.185 -0.1554  0.7812  0.4150
 2222TIP3    H128081   3.132   5.757  17.171  1.1314 -1.6389  0.1843
 2222TIP3    H228082   3.032   5.666  17.104 -0.6126 -0.5722  1.2752
 2223TIP3   OH228083   1.992   4.130  14.364  0.3734 -0.0021 -0.3650
 2223TIP3    H128084   1.931   4.089  14.303  0.3284 -2.0201  0.9598
 2223TIP3    H228085   1.947   4.208  14.395 -1.1476 -0.9528 -0.1398
 2224TIP3   OH228086   1.212   1.395  11.107 -0.1420 -0.5500  0.0310
 2224TIP3    H128087   1.124   1.421  11.076 -0.0002 -0.1967 -0.0811
 2224TIP3    H228088   1.269   1.411  11.032 -0.2465 -2.3831 -0.4623
 2225TIP3   OH228089   2.384   2.203  14.228 -0.5351  0.5365 -0.1022
 2225TIP3    H128090   2.330   2.157  14.292  1.2074  0.0221  1.0325
 2225TIP3    H228091   2.363   2.295  14.240 -0.6557  0.3896  0.7878
 2226TIP3   OH228092   6.413   2.906   2.935  0.1241  0.1907 -0.4183
 2226TIP3    H128093   6.418   2.817   2.969  0.5973  0.4281  0.1406
 2226TIP3    H228094   6.504   2.937   2.933 -0.1858  1.2115  0.8902
 2227TIP3   OH228095   5.608   5.127   1.119  0.1961 -0.2818  0.4030
 2227TIP3    H128096   5.606   5.088   1.206 -0.1934 -0.4457  0.3202
 2227TIP3    H228097   5.619   5.221   1.134  0.5216 -0.3551  0.6190
 2228TIP3   OH228098   1.597   5.662  14.764  0.6510 -0.0324 -0.3139
 2228TIP3    H128099   1.601   5.599  14.836 -0.9671 -1.0130 -1.0493
 2228TIP3    H228100   1.509   5.652  14.728  0.5808  2.2152 -0.8599
 2229TIP3   OH228101   2.135   2.913   2.256  0.0806 -0.6470 -0.1542
 2229TIP3    H128102   2.212   2.963   2.283 -0.8118  0.8781 -0.3532
 2229TIP3    H228103   2.132   2.922   2.161 -1.2563  0.7040 -0.0051
 2230TIP3   OH228104   2.495   2.497  15.138 -0.3816 -0.1577 -0.1031
 2230TIP3    H128105   2.577   2.456  15.110  0.0277  1.4198 -1.3762
 2230TIP3    H228106   2.501   2.502  15.233  1.8580  1.5993 -0.3029
 2231TIP3   OH228107   3.048   6.744   0.128  0.5630  0.4150 -0.6597
 2231TIP3    H128108   3.141   6.761   0.117  0.7555  0.6491  1.1540
 2231TIP3    H228109   3.007   6.830   0.125  0.2812  0.2504 -2.2885
 2232TIP3   OH228110   0.718   3.520  16.346  0.1509 -0.6071 -0.4314
 2232TIP3    H128111   0.775   3.567  16.285  0.6019 -1.2939 -0.5503
 2232TIP3    H228112   0.774   3.504  16.423 -0.4065  0.2360  0.1560
 2233TIP3   OH228113   5.649   0.582  16.645 -0.0566  0.0261 -0.9411
 2233TIP3    H128114   5.570   0.632  16.628  0.5442  0.9307 -1.1309
 2233TIP3    H228115   5.710   0.609  16.576  0.9295  0.4832  0.1042
 2234TIP3   OH228116   3.863   5.221   5.781  0.0280 -0.0526 -0.8321
 2234TIP3    H128117   3.851   5.126   5.772 -1.3340  0.0223  0.0228
 2234TIP3    H228118   3.958   5.234   5.773  0.2954 -1.5569 -0.3052
 2235TIP3   OH228119   2.177   1.776  15.620  0.2141 -0.2729  0.4715
 2235TIP3    H128120   2.245   1.834  15.655 -0.3979 -0.1026  1.3987
 2235TIP3    H228121   2.187   1.696  15.671  0.0583 -0.4358  0.2430
 2236TIP3   OH228122   3.418   4.240  12.370 -0.4648 -0.8424  0.3452
 2236TIP3    H128123   3.346   4.194  12.327  0.3098 -1.4902 -0.2793
 2236TIP3    H228124   3.386   4.258  12.458 -2.2752  0.9928 -0.6647
 2237TIP3   OH228125   4.541   3.696  11.430 -0.0703 -0.3527  0.1081
 2237TIP3    H128126   4.590   3.775  11.452  0.6793 -0.9517  0.6563
 2237TIP3    H228127   4.471   3.692  11.496 -1.3766  0.9401 -1.1702
 2238TIP3   OH228128   5.705   0.428   1.547 -0.6744  0.2617  0.3678
 2238TIP3    H128129   5.651   0.471   1.480 -0.8599  0.4839  0.6639
 2238TIP3    H228130   5.699   0.484   1.624  1.8780  1.5647 -0.3058
 2239TIP3   OH228131   1.657   1.535  15.821 -0.1130 -0.5833 -1.1242
 2239TIP3    H128132   1.613   1.620  15.821  2.1160  0.5934  0.2898
 2239TIP3    H228133   1.690   1.525  15.732 -0.0072  0.2077 -1.1762
 2240TIP3   OH228134   0.495   1.103   5.541  0.1117 -0.4202  0.4340
 2240TIP3    H128135   0.402   1.123   5.538  0.3557  1.1290  2.6098
 2240TIP3    H228136   0.515   1.093   5.634  2.2233 -0.2588  0.0248
 2241TIP3   OH228137   0.756   3.752   3.208  0.4372 -0.2527  0.2814
 2241TIP3    H128138   0.777   3.834   3.162  3.3345 -1.9070 -1.4721
 2241TIP3    H228139   0.832   3.735   3.263 -0.8145 -1.0083  1.8418
 2242TIP3   OH228140   1.922   2.964  16.941 -0.3955  0.0393  0.1542
 2242TIP3    H128141   1.881   2.906  16.878 -1.9282  2.3767 -1.0667
 2242TIP3    H228142   1.857   2.972  17.012 -0.6819  1.1366 -0.2209
 2243TIP3   OH228143   1.496   6.603  14.117  0.3819 -0.1696 -0.4859
 2243TIP3    H128144   1.565   6.641  14.171  0.0302 -0.6191  0.2984
 2243TIP3    H228145   1.458   6.534  14.172 -1.0457  0.4305 -0.6936
 2244TIP3   OH228146   6.666   4.648  13.803  0.5425  0.0796  0.2891
 2244TIP3    H128147   6.661   4.665  13.897 -0.9473 -1.1227  0.4466
 2244TIP3    H228148   6.609   4.715  13.764  1.7863  1.0783  0.1668
 2245TIP3   OH228149   3.467   5.681  16.882 -0.6579 -0.1457  0.3185
 2245TIP3    H128150   3.544   5.631  16.910 -0.1247  0.8620  0.6722
 2245TIP3    H228151   3.501   5.766  16.855 -1.8433  1.0612  2.4465
 2246TIP3   OH228152   4.745   2.425  14.932 -0.0127 -0.8017  0.4905
 2246TIP3    H128153   4.700   2.425  14.848  1.2597  0.7473 -0.2167
 2246TIP3    H228154   4.675   2.419  14.997 -1.2337  1.2845 -0.5816
 2247TIP3   OH228155   4.921   3.773   5.721 -0.9262  0.5449 -0.1308
 2247TIP3    H128156   4.901   3.752   5.630  2.9840  0.7398 -1.1042
 2247TIP3    H228157   4.881   3.701   5.771 -0.4125 -1.2848 -2.2657
 2248TIP3   OH228158   2.057   5.141  11.435  0.5081  0.3178 -0.3208
 2248TIP3    H128159   2.065   5.208  11.503 -1.2841 -2.5003  2.8608
 2248TIP3    H228160   1.967   5.147  11.405 -0.1186 -1.6308  1.1021
 2249TIP3   OH228161   0.791   5.112  17.201  0.1438  0.0440 -0.5883
 2249TIP3    H128162   0.861   5.151  17.149 -0.1249  0.0150 -0.9767
 2249TIP3    H228163   0.713   5.118  17.145 -0.6401  1.9963  0.6253
 2250TIP3   OH228164   6.661   3.328  13.207  0.3362 -0.2069  0.1706
 2250TIP3    H128165   6.683   3.420  13.217 -1.2224  0.2507 -0.5793
 2250TIP3    H228166   6.566   3.325  13.206  0.3720 -1.6883 -1.1381
 2251TIP3   OH228167   4.198   0.579   0.397 -0.2618 -0.1127  0.1078
 2251TIP3    H128168   4.111   0.582   0.357 -0.2761  2.6357  0.2497
 2251TIP3    H228169   4.201   0.655   0.454  1.9031 -0.7289  0.8687
 2252TIP3   OH228170   0.250   2.390  12.569  0.1325 -0.3514 -1.0232
 2252TIP3    H128171   0.288   2.311  12.608  0.4162 -0.7811 -2.1537
 2252TIP3    H228172   0.222   2.443  12.644 -0.6216 -1.8013 -0.2678
 2253TIP3   OH228173   4.143   2.933  14.600 -0.1443 -0.4331  0.1713
 2253TIP3    H128174   4.185   2.869  14.657 -0.2529 -1.0826 -0.4752
 2253TIP3    H228175   4.103   2.881  14.531  2.3620  0.5099 -2.0728
 2254TIP3   OH228176   3.934   3.873   5.169  0.0891  0.7463  0.9442
 2254TIP3    H128177   3.848   3.840   5.143 -0.3259  2.6071 -0.1676
 2254TIP3    H228178   3.996   3.804   5.142 -0.7821  0.6585 -0.9018
 2255TIP3   OH228179   3.459   3.882   1.144  0.1643  0.2794  0.2324
 2255TIP3    H128180   3.416   3.966   1.157  0.3303  0.4085 -0.0395
 2255TIP3    H228181   3.493   3.887   1.055  0.6680  0.1482  0.4169
 2256TIP3   OH228182   4.652   4.180  11.455 -0.3088 -0.0956  0.7178
 2256TIP3    H128183   4.646   4.085  11.451 -3.0194  0.0051  1.1412
 2256TIP3    H228184   4.637   4.208  11.364  0.2112 -0.0645  0.6421
 2257TIP3   OH228185   3.374   3.460   3.720 -0.1598 -0.0696 -0.9901
 2257TIP3    H128186   3.287   3.419   3.719 -0.1730 -0.0485 -3.7395
 2257TIP3    H228187   3.409   3.439   3.806 -2.9736  0.0924  0.2418
 2258TIP3   OH228188   1.853   6.401  15.807 -0.3217  0.5354  0.6108
 2258TIP3    H128189   1.792   6.472  15.829 -0.2677  0.6761  0.2994
 2258TIP3    H228190   1.851   6.396  15.712 -2.0525 -1.3954  0.7135
 2259TIP3   OH228191   2.391   3.168  11.275  0.2425 -0.4002 -0.7874
 2259TIP3    H128192   2.429   3.082  11.290 -0.9338 -1.1918 -2.2868
 2259TIP3    H228193   2.297   3.153  11.269 -0.0397  1.0818 -0.4521
 2260TIP3   OH228194   2.820   1.134  12.048  0.3882 -0.8705 -0.0099
 2260TIP3    H128195   2.914   1.117  12.045  0.6157  0.5893 -2.7959
 2260TIP3    H228196   2.813   1.226  12.072 -0.2680 -0.5242 -1.5185
 2261TIP3   OH228197   4.017   0.840  10.329 -0.2552  0.1133 -0.1289
 2261TIP3    H128198   3.924   0.858  10.327 -0.2198  0.1628 -1.8632
 2261TIP3    H228199   4.059   0.926  10.320 -0.0473 -0.0293 -0.5356
 2262TIP3   OH228200   2.885   1.054  13.622 -0.5267  1.0405 -0.7159
 2262TIP3    H128201   2.973   1.029  13.596  0.0491  1.0533  1.1438
 2262TIP3    H228202   2.869   1.005  13.703 -1.4940  2.4846 -0.0114
 2263TIP3   OH228203   5.625   3.132  15.636  0.1245 -0.3099 -0.2504
 2263TIP3    H128204   5.542   3.085  15.641 -0.2120  0.2865 -0.1478
 2263TIP3    H228205   5.680   3.092  15.703  0.3571 -1.5481 -1.1633
 2264TIP3   OH228206   2.745   3.554   3.319  0.6240 -0.0160  0.2460
 2264TIP3    H128207   2.840   3.564   3.316  0.4273  1.4436 -1.5788
 2264TIP3    H228208   2.718   3.551   3.227 -1.1759  0.3072  0.7478
 2265TIP3   OH228209   3.813   2.281   6.441 -0.3393  0.0919  0.4501
 2265TIP3    H128210   3.798   2.187   6.438 -1.8259  0.2561  2.0759
 2265TIP3    H228211   3.887   2.292   6.500  0.5601 -0.1173 -0.6212
 2266TIP3   OH228212   6.168   4.970  12.204 -0.4725 -0.6344 -0.0978
 2266TIP3    H128213   6.263   4.969  12.215 -0.4458  1.7898  0.0343
 2266TIP3    H228214   6.136   4.907  12.268  1.0248 -1.3289 -0.0013
 2267TIP3   OH228215   6.678   4.147   0.229 -0.0421 -0.3530  0.5629
 2267TIP3    H128216   6.679   4.079   0.162  0.1654  0.1859  0.0150
 2267TIP3    H228217   6.592   4.138   0.270 -0.7481  0.2576 -0.7541
 2268TIP3   OH228218   2.625   3.343  15.900 -0.4992  0.4370  0.2716
 2268TIP3    H128219   2.633   3.425  15.852 -0.7232  0.0837 -0.3749
 2268TIP3    H228220   2.703   3.293  15.875  0.2048  0.8796  1.5093
 2269TIP3   OH228221   3.534   2.989  14.844  0.1499  0.5180 -0.5590
 2269TIP3    H128222   3.583   3.025  14.918 -1.5369 -0.0493  0.8528
 2269TIP3    H228223   3.602   2.962  14.782  1.6090  0.5048  1.0054
 2270TIP3   OH228224   2.002   0.843   0.958 -0.0964  0.1554  0.3775
 2270TIP3    H128225   2.076   0.782   0.949 -1.8963 -2.0068 -0.4444
 2270TIP3    H228226   2.042   0.927   0.978  2.6071 -0.9056 -0.3246
 2271TIP3   OH228227   3.933   2.550  11.412 -0.0850 -0.4574  0.3446
 2271TIP3    H128228   3.997   2.596  11.358 -0.6622  0.5907  0.5389
 2271TIP3    H228229   3.950   2.580  11.501 -0.6364 -0.4181  0.4393
 2272TIP3   OH228230   1.299   4.027  14.095  0.3915 -0.1701  0.3016
 2272TIP3    H128231   1.255   3.986  14.020 -3.1537  2.1199  1.0124
 2272TIP3    H228232   1.331   4.110  14.061  1.3784 -0.4073  0.6317
 2273TIP3   OH228233   4.052   1.402   6.032 -0.4704 -0.2673 -0.3949
 2273TIP3    H128234   4.080   1.333   5.971 -0.4564  0.2354 -0.9663
 2273TIP3    H228235   4.117   1.401   6.102  0.0570 -0.2027 -0.8826
 2274TIP3   OH228236   1.009   2.835  14.157 -0.0206 -0.3034  0.0464
 2274TIP3    H128237   1.005   2.926  14.186  0.3211  0.2294 -1.5592
 2274TIP3    H228238   1.089   2.801  14.198  1.4613  0.9725 -1.6679
 2275TIP3   OH228239   2.035   5.958  14.182  0.6659 -0.3856  0.3692
 2275TIP3    H128240   2.031   5.862  14.179  1.9165 -0.4299 -0.3745
 2275TIP3    H228241   1.966   5.983  14.243 -0.1577 -1.7201  0.0021
 2276TIP3   OH228242   4.843   0.114   0.966  0.4919  0.4170 -0.7176
 2276TIP3    H128243   4.914   0.138   0.906  0.1531 -1.0501 -1.7579
 2276TIP3    H228244   4.780   0.068   0.910 -0.9962  1.1812  0.3149
 2277TIP3   OH228245   1.669   3.789   4.812  0.1681  0.3273 -0.2299
 2277TIP3    H128246   1.736   3.849   4.846 -0.2659  1.1835 -0.8709
 2277TIP3    H228247   1.711   3.749   4.736  0.4930 -0.2625  0.2546
 2278TIP3   OH228248   0.337   1.819   2.687 -0.4810  0.3297 -0.6761
 2278TIP3    H128249   0.313   1.832   2.779 -0.1497  0.0298 -0.5442
 2278TIP3    H228250   0.257   1.838   2.638 -0.9122 -0.4015 -0.2634
 2279TIP3   OH228251   3.432   4.966  15.331  0.3972 -0.3997 -0.1511
 2279TIP3    H128252   3.449   4.872  15.339 -1.1290 -0.6267  0.6310
 2279TIP3    H228253   3.508   5.008  15.371  1.3859 -1.2829 -1.0880
 2280TIP3   OH228254   1.148   6.006   4.480 -0.4350 -0.1303 -0.4049
 2280TIP3    H128255   1.075   5.945   4.487 -1.6287  1.2264 -0.7224
 2280TIP3    H228256   1.146   6.054   4.563 -0.1810  0.2040 -0.5932
 2281TIP3   OH228257   6.119   3.257  10.645 -0.0985  0.2200  0.1484
 2281TIP3    H128258   6.181   3.297  10.706  0.8704 -0.2016 -0.5437
 2281TIP3    H228259   6.122   3.314  10.568  1.3530 -1.1877 -0.8761
 2282TIP3   OH228260   3.643   4.866   4.550  0.0906 -0.3219  0.0043
 2282TIP3    H128261   3.680   4.779   4.531  1.9782  0.2246  1.0948
 2282TIP3    H228262   3.707   4.908   4.607 -1.1738  1.5203  0.1189
 2283TIP3   OH228263   4.882   5.319  10.436  0.5743 -1.1184  0.1498
 2283TIP3    H128264   4.804   5.279  10.475  0.3090 -2.2965 -1.5314
 2283TIP3    H228265   4.858   5.333  10.345  1.5413  0.6477  0.1494
 2284TIP3   OH228266   0.765   1.873   5.288 -0.1190 -0.4606  0.2315
 2284TIP3    H128267   0.838   1.837   5.339  0.7384 -0.8725 -1.2639
 2284TIP3    H228268   0.724   1.936   5.348  2.4191  0.9384  0.6060
 2285TIP3   OH228269   2.025   1.226   1.680  0.0220  0.1628  0.3960
 2285TIP3    H128270   2.036   1.225   1.776 -0.0859 -1.9744  0.4195
 2285TIP3    H228271   1.936   1.192   1.666  0.1886  0.0767 -0.4641
 2286TIP3   OH228272   4.463   1.171  14.521  0.5266 -0.4596 -0.0369
 2286TIP3    H128273   4.535   1.214  14.567  0.2832 -1.9569  1.8180
 2286TIP3    H228274   4.489   1.079  14.516  1.1045 -0.1656 -4.0684
 2287TIP3   OH228275   2.500   0.791  10.948 -0.0061 -0.2180 -0.1105
 2287TIP3    H128276   2.479   0.867  10.895 -1.4490 -0.5411 -0.0057
 2287TIP3    H228277   2.543   0.827  11.026  2.7449  0.2133 -1.7693
 2288TIP3   OH228278   6.220   1.992  15.026  0.2725 -0.3173 -0.7047
 2288TIP3    H128279   6.270   2.063  15.065  0.5351 -0.0406 -1.5331
 2288TIP3    H228280   6.163   1.961  15.097  1.4133 -0.4605  0.1609
 2289TIP3   OH228281   2.560   4.617  16.420 -0.3656  0.1289  0.4406
 2289TIP3    H128282   2.482   4.670  16.432  0.3770  1.6666 -1.2879
 2289TIP3    H228283   2.626   4.658  16.477  0.2830  1.2852 -1.0901
 2290TIP3   OH228284   4.665   4.822   5.634  0.5250  0.9430 -0.1143
 2290TIP3    H128285   4.686   4.784   5.720 -0.2788  0.1514 -0.2602
 2290TIP3    H228286   4.734   4.789   5.576  0.7253  0.9867  0.0957
 2291TIP3   OH228287   2.181   4.742  13.183  0.7101  0.0564 -0.3659
 2291TIP3    H128288   2.178   4.659  13.134 -3.4459 -0.3551  0.4302
 2291TIP3    H228289   2.178   4.809  13.115 -1.1875 -0.5066 -0.8742
 2292TIP3   OH228290   4.562   6.377   2.088 -0.2402 -0.4113  0.1083
 2292TIP3    H128291   4.610   6.381   2.171  0.0691 -0.2266 -0.0774
 2292TIP3    H228292   4.496   6.446   2.095 -0.2429 -0.4247  0.2184
 2293TIP3   OH228293   6.393   1.513  14.796  0.2651 -0.5812  0.2797
 2293TIP3    H128294   6.330   1.563  14.848 -2.2093 -2.2918 -0.9947
 2293TIP3    H228295   6.379   1.541  14.706  1.2142 -1.1004 -0.0462
 2294TIP3   OH228296   4.407   0.844  13.786  0.1359 -0.1010 -0.0258
 2294TIP3    H128297   4.419   0.764  13.734  0.7362  0.1599 -0.2800
 2294TIP3    H228298   4.322   0.830  13.830  0.2027 -0.8479 -0.1196
 2295TIP3   OH228299   4.654   1.179   5.776 -0.0228 -0.6231 -0.1143
 2295TIP3    H128300   4.728   1.119   5.781  1.0829  0.6897 -0.5475
 2295TIP3    H228301   4.586   1.130   5.728  1.2478 -1.1447 -1.4148
 2296TIP3   OH228302   1.297   1.694  16.462 -0.5376 -0.1998 -0.3544
 2296TIP3    H128303   1.258   1.652  16.539  1.0382 -2.4848 -0.7638
 2296TIP3    H228304   1.329   1.778  16.494  0.5047 -1.3266  1.5915
 2297TIP3   OH228305   0.420   3.749  11.412 -0.5801  0.0781  0.5087
 2297TIP3    H128306   0.405   3.818  11.348  0.0457 -0.3552 -0.1220
 2297TIP3    H228307   0.384   3.670  11.371  1.8463 -0.6563 -0.3406
 2298TIP3   OH228308   5.925   6.617   4.530  0.4160 -0.0062 -0.3579
 2298TIP3    H128309   5.835   6.617   4.497 -0.1978 -1.2548  1.2532
 2298TIP3    H228310   5.974   6.563   4.468  0.1305  0.8718 -1.3719
 2299TIP3   OH228311   6.021   5.154   4.288  0.3458 -0.2840  0.1825
 2299TIP3    H128312   6.098   5.164   4.344  0.0545  0.3364  0.4722
 2299TIP3    H228313   6.054   5.168   4.199  0.3226  1.2843  0.4122
 2300TIP3   OH228314   1.647   6.640   1.774 -0.3979 -0.6618  0.0797
 2300TIP3    H128315   1.676   6.726   1.805  1.4438 -0.3100 -2.4182
 2300TIP3    H228316   1.718   6.580   1.798 -0.5385 -1.0166 -0.3733
 2301TIP3   OH228317   4.362   3.889  14.939 -0.0423  0.3012  0.1472
 2301TIP3    H128318   4.295   3.825  14.962 -0.5497  1.1227  1.0310
 2301TIP3    H228319   4.409   3.850  14.865 -1.1447 -0.5240 -0.1308
 2302TIP3   OH228320   0.124   5.603  14.487  0.5169  0.5919  0.2515
 2302TIP3    H128321   0.168   5.688  14.495  0.2434  0.7572  0.0032
 2302TIP3    H228322   0.069   5.612  14.409  1.2368 -0.1430 -0.3447
 2303TIP3   OH228323   5.216   6.640  16.222 -0.1450 -0.2757 -0.2653
 2303TIP3    H128324   5.242   6.553  16.254  0.1982  0.5555  1.7717
 2303TIP3    H228325   5.139   6.623  16.169  0.5092 -1.9530 -0.7434
 2304TIP3   OH228326   2.114   4.319  15.870 -0.4857 -0.1460  0.2370
 2304TIP3    H128327   2.202   4.325  15.834 -0.6302 -1.1077 -0.2870
 2304TIP3    H228328   2.124   4.267  15.950 -0.4771  0.2938  0.5247
 2305TIP3   OH228329   3.087   6.594  13.293 -0.1345 -0.7882  0.3977
 2305TIP3    H128330   3.006   6.568  13.336  1.5818 -1.2328  3.5019
 2305TIP3    H228331   3.157   6.563  13.351  2.2326  1.7595 -0.9475
 2306TIP3   OH228332   3.792   5.658  16.695 -0.7127  0.2363 -0.0107
 2306TIP3    H128333   3.806   5.743  16.736 -0.3057  0.0468  0.2509
 2306TIP3    H228334   3.770   5.600  16.768 -1.6317  0.2591 -0.2616
 2307TIP3   OH228335   3.433   4.395   1.654 -0.3753  0.0101  0.2522
 2307TIP3    H128336   3.489   4.390   1.576 -2.1601  1.0912 -1.1392
 2307TIP3    H228337   3.492   4.377   1.727  1.1140 -2.2081 -1.4335
 2308TIP3   OH228338   5.720   2.776   3.274 -0.5824  0.6388 -0.9705
 2308TIP3    H128339   5.651   2.792   3.338 -1.7056 -0.3446 -1.9085
 2308TIP3    H228340   5.801   2.782   3.325 -1.5050 -1.5569  0.8906
 2309TIP3   OH228341   2.186   1.495  14.709  0.2535  0.1974  0.2906
 2309TIP3    H128342   2.181   1.583  14.746  0.4047 -0.3491  1.6094
 2309TIP3    H228343   2.197   1.510  14.615  0.4677  1.5870  0.5243
 2310TIP3   OH228344   1.032   2.546  13.554 -0.0821  0.2247  0.4711
 2310TIP3    H128345   1.054   2.572  13.643  1.0326  1.9363 -0.2770
 2310TIP3    H228346   1.056   2.622  13.500 -0.8482 -0.7341 -1.2708
 2311TIP3   OH228347   3.409   1.834  14.243 -0.5944  0.2867  0.6028
 2311TIP3    H128348   3.398   1.784  14.324  1.9296 -1.3995 -0.0543
 2311TIP3    H228349   3.499   1.864  14.245 -0.9866  1.6199 -0.8316
 2312TIP3   OH228350   5.015   6.447  15.575 -0.4427  0.0284  0.0556
 2312TIP3    H128351   4.937   6.488  15.614 -1.2300 -1.4031  0.0515
 2312TIP3    H228352   5.021   6.484  15.487  0.0639  1.6500  0.7654
 2313TIP3   OH228353   3.611   4.080  12.951  0.0009 -0.6303  0.1434
 2313TIP3    H128354   3.626   3.996  12.909 -0.2292 -0.7525  0.3039
 2313TIP3    H228355   3.690   4.095  13.004 -0.0874 -0.8874  0.3524
 2314TIP3   OH228356   5.074   3.667  14.455 -0.2808 -0.2414 -0.1335
 2314TIP3    H128357   5.116   3.745  14.418 -1.3744  0.4292  0.0168
 2314TIP3    H228358   5.111   3.595  14.405  1.1850  0.3194  0.1220
 2315TIP3   OH228359   3.693   5.034  11.945  0.0505  0.1642  0.2831
 2315TIP3    H128360   3.626   4.994  11.889  1.9034 -0.8104 -1.3063
 2315TIP3    H228361   3.714   4.966  12.009 -0.0309  0.2485  0.3996
 2316TIP3   OH228362   3.160   6.384   6.021  0.2314  0.0471  0.2118
 2316TIP3    H128363   3.130   6.469   5.989 -0.4367 -0.0460  0.5727
 2316TIP3    H228364   3.148   6.388   6.116 -0.1436 -0.5747  0.1971
 2317TIP3   OH228365   3.387   2.814   3.433 -0.6569  0.7727 -0.0954
 2317TIP3    H128366   3.456   2.774   3.379 -0.4929  1.7093 -0.5936
 2317TIP3    H228367   3.310   2.759   3.417 -1.0809  2.0106 -2.6675
 2318TIP3   OH228368   0.860   1.260  11.192  0.6327 -0.1519  0.4114
 2318TIP3    H128369   0.859   1.182  11.136 -1.8869  0.3205 -0.2768
 2318TIP3    H228370   0.920   1.320  11.148  1.2147 -1.0337 -0.0134
 2319TIP3   OH228371   4.050   2.000   1.424 -0.1880  0.0925 -0.0629
 2319TIP3    H128372   4.133   1.956   1.440 -0.7283 -0.7062  0.5877
 2319TIP3    H228373   4.074   2.084   1.385  0.9205 -0.1036  0.1952
 2320TIP3   OH228374   5.504   4.985  17.138  0.3185  0.2590  0.4248
 2320TIP3    H128375   5.561   4.981  17.215  1.2415 -0.3217 -0.2700
 2320TIP3    H228376   5.557   5.030  17.072 -0.5575  0.9829  0.2053
 2321TIP3   OH228377   0.839   2.731  16.754  0.3812 -0.2224  0.3568
 2321TIP3    H128378   0.895   2.728  16.832 -0.6278 -0.2104  1.0865
 2321TIP3    H228379   0.752   2.752  16.788 -0.4679 -2.1633 -0.5550
 2322TIP3   OH228380   2.726   0.225   1.840  0.4756 -0.4366 -0.1736
 2322TIP3    H128381   2.757   0.158   1.778  1.0131 -0.2921 -0.0659
 2322TIP3    H228382   2.740   0.308   1.795 -0.3870 -0.4054 -0.3899
 2323TIP3   OH228383   6.156   6.394  10.577 -0.1467  1.0434  0.1612
 2323TIP3    H128384   6.173   6.338  10.652 -1.0782 -0.0541 -0.4291
 2323TIP3    H228385   6.200   6.351  10.504 -3.5650 -0.7196 -0.9654
 2324TIP3   OH228386   4.718   0.055   6.364 -0.0322  0.0200  0.0949
 2324TIP3    H128387   4.726   0.058   6.459  1.4978 -1.1803  0.0186
 2324TIP3    H228388   4.625   0.039   6.348 -0.0005 -1.5355  1.4264
 2325TIP3   OH228389   1.172   3.743   0.223 -0.6858 -0.4253  0.0638
 2325TIP3    H128390   1.178   3.777   0.312  1.4000  1.2297 -0.6583
 2325TIP3    H228391   1.082   3.761   0.196 -1.2937 -0.8236  1.7800
 2326TIP3   OH228392   3.136   1.586   0.832 -0.2670 -0.0960 -0.3430
 2326TIP3    H128393   3.121   1.629   0.748  0.3414  1.2567  0.2415
 2326TIP3    H228394   3.179   1.503   0.809 -1.3888 -0.3867 -1.4569
 2327TIP3   OH228395   4.477   4.589  14.375  0.1112 -0.1169 -0.3691
 2327TIP3    H128396   4.493   4.613  14.283  1.2758  2.6840  0.5022
 2327TIP3    H228397   4.385   4.609  14.390  0.1747  0.4034 -0.6571
 2328TIP3   OH228398   2.103   0.858   2.385  0.2480 -0.4323 -0.0541
 2328TIP3    H128399   2.198   0.859   2.397  0.2435 -0.1250 -0.0501
 2328TIP3    H228400   2.068   0.850   2.474  0.3162 -3.1031 -0.2105
 2329TIP3   OH228401   3.950   1.363  14.175 -0.3062 -0.1193  0.1909
 2329TIP3    H128402   3.929   1.270  14.184  1.3193 -0.6980 -1.6702
 2329TIP3    H228403   3.884   1.398  14.116 -0.2226 -0.3669 -0.0511
 2330TIP3   OH228404   0.859   1.429  14.831 -0.0936  0.4306 -0.4281
 2330TIP3    H128405   0.952   1.437  14.809 -0.2510 -1.0186 -1.7123
 2330TIP3    H228406   0.840   1.335  14.821 -1.6596  0.6889 -0.0304
 2331TIP3   OH228407   1.181   4.133  11.011 -0.6110  0.1278 -0.4121
 2331TIP3    H128408   1.253   4.196  11.006 -1.8120  1.4457 -1.4240
 2331TIP3    H228409   1.135   4.155  11.092 -0.1159 -0.4801  0.0459
 2332TIP3   OH228410   3.677   1.305   1.151 -0.2557 -0.2600  0.2972
 2332TIP3    H128411   3.640   1.249   1.219  0.9769 -0.7005  0.6014
 2332TIP3    H228412   3.754   1.345   1.192  0.1101 -0.0188 -0.6259
 2333TIP3   OH228413   6.726   4.200   1.834  0.3042 -0.8186  0.3038
 2333TIP3    H128414   6.652   4.243   1.877 -0.1723  1.6514 -2.8127
 2333TIP3    H228415   6.799   4.211   1.895 -0.4198  2.3277  0.6695
 2334TIP3   OH228416   1.468   6.711   2.790  0.1899 -0.5174 -0.4873
 2334TIP3    H128417   1.375   6.726   2.774  0.1203  0.0737  0.4028
 2334TIP3    H228418   1.470   6.638   2.852  0.3504 -0.9904 -1.0440
 2335TIP3   OH228419   5.705   4.733  15.219  0.1535  0.4546 -0.1553
 2335TIP3    H128420   5.703   4.651  15.171  0.2633  0.8027 -0.7541
 2335TIP3    H228421   5.773   4.785  15.176 -0.7297  1.3165 -0.5262
 2336TIP3   OH228422   2.946   2.235  11.901  0.6280 -0.4998 -0.0610
 2336TIP3    H128423   2.959   2.311  11.958  0.2149  1.3152 -2.3488
 2336TIP3    H228424   2.864   2.252  11.856  1.6097 -1.2402 -2.2117
 2337TIP3   OH228425   4.172   1.953  11.351  0.1697 -0.1872 -0.0700
 2337TIP3    H128426   4.165   1.883  11.415  1.3249  1.3328  1.7874
 2337TIP3    H228427   4.085   1.961  11.314 -0.7012 -0.6233  1.8361
 2338TIP3   OH228428   1.108   3.630  11.764 -0.1130 -0.2352 -0.2658
 2338TIP3    H128429   1.037   3.673  11.716 -0.6764 -0.3764  0.4177
 2338TIP3    H228430   1.185   3.685  11.748 -0.5448  0.3271 -0.4305
 2339TIP3   OH228431   5.987   4.720   5.616 -0.2921 -0.0023 -0.2050
 2339TIP3    H128432   5.983   4.814   5.602  0.1597  0.6181  3.4493
 2339TIP3    H228433   6.079   4.697   5.603 -0.2648  0.1766 -0.3187
 2340TIP3   OH228434   4.607   4.968  15.908 -0.0291  0.0719 -0.1741
 2340TIP3    H128435   4.648   5.016  15.980 -0.0079 -0.4683  0.1674
 2340TIP3    H228436   4.517   4.955  15.935 -1.0287  3.0706 -1.7879
 2341TIP3   OH228437   4.711   1.986   2.768 -0.1366 -0.0058 -0.3018
 2341TIP3    H128438   4.746   1.899   2.789 -1.1172  0.0742  1.8402
 2341TIP3    H228439   4.638   1.969   2.710  1.6603 -0.3599 -2.5374
 2342TIP3   OH228440   0.253   0.395  15.227 -0.3874  0.1334 -0.0230
 2342TIP3    H128441   0.291   0.396  15.315  0.0587 -0.3200 -0.2009
 2342TIP3    H228442   0.173   0.344  15.235 -1.1078  1.3168  0.4089
 2343TIP3   OH228443   4.814   0.873   2.166  0.2475  0.6419 -0.1909
 2343TIP3    H128444   4.829   0.856   2.259  1.5065 -0.5983 -0.5998
 2343TIP3    H228445   4.722   0.853   2.152  0.7692 -2.2618  0.1611
 2344TIP3   OH228446   6.021   1.481   0.089  0.2332 -0.5323 -0.1092
 2344TIP3    H128447   5.984   1.396   0.112  1.0931 -1.0757 -0.7279
 2344TIP3    H228448   6.060   1.468   0.003  1.4149  0.1735  0.3107
 2345TIP3   OH228449   4.271   2.571   3.256 -0.1085  0.9659 -0.7524
 2345TIP3    H128450   4.310   2.654   3.283  1.3151 -0.2082  0.8863
 2345TIP3    H228451   4.345   2.512   3.243 -0.9568  0.4527 -3.8560
 2346TIP3   OH228452   4.866   6.725   2.155 -0.0363  0.4980  0.1935
 2346TIP3    H128453   4.945   6.712   2.208 -0.2270 -0.5193  0.2378
 2346TIP3    H228454   4.864   6.649   2.097 -1.6473 -0.1347  1.0492
 2347TIP3   OH228455   0.538   4.168   3.946  0.2491 -0.3917  0.7747
 2347TIP3    H128456   0.532   4.252   3.991  1.2375  0.8548 -1.2931
 2347TIP3    H228457   0.597   4.115   4.000  2.9974  1.7465  0.0007
 2348TIP3   OH228458   5.223   6.121   2.350 -0.3555  0.5966 -0.0066
 2348TIP3    H128459   5.182   6.102   2.266  1.2452 -1.0377 -0.4421
 2348TIP3    H228460   5.313   6.144   2.328 -0.0815  0.7401  1.2111
 2349TIP3   OH228461   2.975   5.515   6.424 -0.3689 -0.3846  0.6056
 2349TIP3    H128462   3.023   5.432   6.429 -0.9758 -0.9881 -2.7500
 2349TIP3    H228463   2.883   5.489   6.431 -0.4975  0.1700  0.9956
 2350TIP3   OH228464   2.673   4.862  12.576 -0.2882 -0.1117 -0.0699
 2350TIP3    H128465   2.681   4.874  12.482  0.1930  1.4553  0.1581
 2350TIP3    H228466   2.760   4.883  12.611 -0.3786 -0.9551  0.7045
 2351TIP3   OH228467   1.980   0.133  13.170  0.0535  0.4006  0.2583
 2351TIP3    H128468   2.043   0.166  13.233  0.7960 -0.4879 -0.0085
 2351TIP3    H228469   2.002   0.178  13.088 -0.6216  1.2104  0.5078
 2352TIP3   OH228470   4.192   2.371   2.463  0.7581 -0.1035  0.5668
 2352TIP3    H128471   4.248   2.445   2.487 -0.2578  0.3968  1.4295
 2352TIP3    H228472   4.229   2.297   2.511  0.9394  0.1389  0.8063
 2353TIP3   OH228473   6.193   3.888  17.237  0.1300  0.1237  0.1860
 2353TIP3    H128474   6.137   3.854  17.167  0.1202 -0.6137  0.5486
 2353TIP3    H228475   6.246   3.957  17.195  1.2316 -1.3752 -0.9196
 2354TIP3   OH228476   5.083   0.516  14.227  0.3779  0.0352 -0.3693
 2354TIP3    H128477   5.005   0.517  14.172  0.4698 -0.0204 -0.5005
 2354TIP3    H228478   5.120   0.603  14.219  0.6398 -0.1119 -0.7510
 2355TIP3   OH228479   1.474   5.373  12.959 -0.4978  0.5897  0.0327
 2355TIP3    H128480   1.413   5.327  12.901 -0.9595  0.5922  0.5074
 2355TIP3    H228481   1.487   5.458  12.917  1.7705 -0.6118 -1.7710
 2356TIP3   OH228482   2.470   5.459  13.982  0.3970  0.3815  0.2029
 2356TIP3    H128483   2.538   5.408  14.025  0.5000  1.4416  1.3168
 2356TIP3    H228484   2.393   5.449  14.039  0.4030  1.4154  0.3994
 2357TIP3   OH228485   0.881   5.724   2.318  0.2559 -0.1068  0.3485
 2357TIP3    H128486   0.816   5.793   2.323 -1.8870 -1.9094 -1.3897
 2357TIP3    H228487   0.952   5.760   2.265 -2.0752 -0.1372 -2.8837
 2358TIP3   OH228488   0.900   1.851   3.332 -0.4919  0.1490 -0.0229
 2358TIP3    H128489   0.961   1.895   3.392 -0.5455  1.5262 -0.9606
 2358TIP3    H228490   0.915   1.892   3.247 -1.0291 -1.1883 -0.7907
 2359TIP3   OH228491   5.750   5.158  12.479  0.7151  0.1037 -0.3949
 2359TIP3    H128492   5.826   5.139  12.424  1.9325  2.2740  0.4651
 2359TIP3    H228493   5.684   5.191  12.418  0.3001 -2.1124 -1.1920
 2360TIP3   OH228494   5.913   5.766   4.989 -0.1837  0.1283  0.0012
 2360TIP3    H128495   5.870   5.768   5.074 -0.4974 -0.8918 -0.1244
 2360TIP3    H228496   5.894   5.679   4.954  0.5917  0.2558 -0.7765
 2361TIP3   OH228497   1.722   0.620  15.508  0.6778 -0.0009 -0.0956
 2361TIP3    H128498   1.754   0.593  15.422  0.9479  1.8688 -0.6113
 2361TIP3    H228499   1.774   0.569  15.570  2.2233  0.4613 -0.9954
 2362TIP3   OH228500   1.433   3.179   5.775 -0.0793 -0.2928  0.0439
 2362TIP3    H128501   1.360   3.141   5.727  0.4563 -0.5193 -0.6021
 2362TIP3    H228502   1.421   3.150   5.866 -3.3740  3.4005  0.9517
 2363TIP3   OH228503   2.284   3.370  13.695  0.0726  0.0322 -0.2228
 2363TIP3    H128504   2.261   3.330  13.611 -1.5046 -1.3258  0.8370
 2363TIP3    H228505   2.301   3.297  13.753 -1.3726  0.9121  1.3456
 2364TIP3   OH228506   3.252   1.163   3.113  0.4109  0.0663 -0.3054
 2364TIP3    H128507   3.261   1.070   3.094 -0.0221 -0.6589  2.7643
 2364TIP3    H228508   3.246   1.205   3.027 -0.6959 -2.8645 -1.7253
 2365TIP3   OH228509   2.732   0.431   3.168  0.0918  0.0702  0.1186
 2365TIP3    H128510   2.824   0.457   3.162  0.1560 -0.2604 -0.4491
 2365TIP3    H228511   2.720   0.370   3.094 -0.4327 -0.3355  0.5338
 2366TIP3   OH228512   3.553   3.110  10.555  0.6972  0.2787 -0.7967
 2366TIP3    H128513   3.635   3.062  10.566  1.6351  2.1391  0.6372
 2366TIP3    H228514   3.579   3.193  10.515 -0.6295  0.4746 -1.2786
 2367TIP3   OH228515   4.172   0.990  15.031  0.1949  0.3925 -0.2475
 2367TIP3    H128516   4.173   1.061  15.096  0.8568 -1.1379  1.4692
 2367TIP3    H228517   4.264   0.972  15.014  0.0262  0.1727 -0.9285
 2368TIP3   OH228518   4.796   5.000  13.599  0.2345 -0.0248  0.2452
 2368TIP3    H128519   4.849   4.930  13.560  0.8371  0.3825  0.3272
 2368TIP3    H228520   4.708   4.987  13.562 -0.0242 -1.7312  1.3971
 2369TIP3   OH228521   1.069   6.030   2.331 -0.4117 -0.5303  0.3028
 2369TIP3    H128522   1.100   6.036   2.421 -0.5846  1.3275  0.2515
 2369TIP3    H228523   0.992   6.086   2.328  0.1943  0.2557 -1.2516
 2370TIP3   OH228524   5.258   2.306  14.998 -0.0415 -0.2348  0.1892
 2370TIP3    H128525   5.262   2.220  14.957  0.0123  0.8191 -2.1354
 2370TIP3    H228526   5.165   2.324  15.007 -0.0888  0.2137 -1.0480
 2371TIP3   OH228527   4.617   2.503  14.499 -0.1309 -0.3172  0.2033
 2371TIP3    H128528   4.565   2.440  14.549  0.2601  0.1389  1.2073
 2371TIP3    H228529   4.682   2.450  14.453 -0.2432 -0.7078  0.4904
 2372TIP3   OH228530   4.200   5.323   4.208  0.2883  0.0134  0.4558
 2372TIP3    H128531   4.135   5.388   4.233  0.2043 -1.1221  3.4223
 2372TIP3    H228532   4.283   5.360   4.238  0.6514  0.1467 -0.6908
 2373TIP3   OH228533   1.390   4.415  11.978 -0.0915  0.0539 -0.1425
 2373TIP3    H128534   1.423   4.442  11.892 -0.7371  0.7002 -0.1939
 2373TIP3    H228535   1.455   4.353  12.010 -0.1392 -0.6307 -1.3459
 2374TIP3   OH228536   1.027   6.727   5.458  0.1316  0.2459 -0.0317
 2374TIP3    H128537   0.960   6.730   5.389 -0.4913  0.5226  0.5906
 2374TIP3    H228538   1.098   6.782   5.424  0.0413 -0.0385 -0.6875
 2375TIP3   OH228539   0.946   3.009  15.520 -0.8937 -0.3135 -0.2106
 2375TIP3    H128540   0.996   2.928  15.534 -0.4800 -0.0840 -0.3601
 2375TIP3    H228541   0.922   3.006  15.428 -1.9714 -0.8843  0.0761
 2376TIP3   OH228542   5.735   0.368   2.777  0.8379 -0.2300 -0.8237
 2376TIP3    H128543   5.791   0.439   2.809  0.3669  0.5697 -1.7519
 2376TIP3    H228544   5.698   0.402   2.696 -0.1946 -1.1435 -0.7389
 2377TIP3   OH228545   1.254   2.604  10.152  0.2626 -0.1190  0.4078
 2377TIP3    H128546   1.180   2.661  10.171  1.2455  1.9671 -1.7255
 2377TIP3    H228547   1.306   2.605  10.233  0.9493  3.1476  0.0123
 2378TIP3   OH228548   1.083   5.154  11.433  0.0631 -0.1503  0.2117
 2378TIP3    H128549   1.004   5.209  11.427 -0.0485 -0.2282  1.0233
 2378TIP3    H228550   1.057   5.080  11.487  0.5805 -0.3847  0.1390
 2379TIP3   OH228551   5.781   0.542  11.757 -0.3064 -0.1140  0.1646
 2379TIP3    H128552   5.716   0.483  11.718 -0.1365  0.8875 -1.7176
 2379TIP3    H228553   5.842   0.484  11.802  0.0524 -1.4278 -1.9386
 2380TIP3   OH228554   5.539   4.116  13.756  0.0663  0.1579 -0.0208
 2380TIP3    H128555   5.528   4.021  13.762  1.1727  0.0082 -0.4158
 2380TIP3    H228556   5.548   4.144  13.847 -0.0511 -0.1341  0.0846
 2381TIP3   OH228557   1.185   4.515  12.696  0.2176  0.2927  0.0605
 2381TIP3    H128558   1.093   4.533  12.681 -0.2450 -1.2874  0.8644
 2381TIP3    H228559   1.188   4.422  12.721  2.0378  0.2618 -0.1547
 2382TIP3   OH228560   1.373   1.347   5.524 -0.1368  0.5264  0.5595
 2382TIP3    H128561   1.357   1.429   5.571  2.1814  0.9850  0.5973
 2382TIP3    H228562   1.288   1.325   5.485 -1.5002  1.4280  2.8884
 2383TIP3   OH228563   5.178   4.466  14.991  0.5451 -0.2239 -0.0766
 2383TIP3    H128564   5.193   4.392  15.049  0.3801 -1.2731 -1.3697
 2383TIP3    H228565   5.111   4.518  15.035  0.6160 -0.8723  0.7910
 2384TIP3   OH228566   3.388   0.471   0.052  0.0136 -0.6799  0.2016
 2384TIP3    H128567   3.293   0.463   0.043  0.1297 -2.7418  0.6415
 2384TIP3    H228568   3.416   0.387   0.090  2.2094 -0.7277 -1.4534
 2385TIP3   OH228569   3.982   1.146  12.000 -0.1691 -0.4744  0.7179
 2385TIP3    H128570   3.970   1.233  12.037  0.6851 -0.2123  0.3862
 2385TIP3    H228571   4.049   1.157  11.933 -1.8731 -0.8801 -1.0952
 2386TIP3   OH228572   1.101   0.413  15.438  0.2757  0.1707 -0.2594
 2386TIP3    H128573   1.104   0.362  15.519 -1.0842 -0.3980 -0.5604
 2386TIP3    H228574   1.019   0.461  15.443 -0.1084 -0.3269 -1.5690
 2387TIP3   OH228575   0.915   5.989  11.679 -0.4180 -0.1921  0.4683
 2387TIP3    H128576   0.877   5.907  11.712 -0.9467  0.1626  0.7577
 2387TIP3    H228577   0.880   5.998  11.590 -0.1409 -0.4194  0.3356
 2388TIP3   OH228578   3.371   3.404  13.469  0.5181  0.9221 -0.0227
 2388TIP3    H128579   3.363   3.402  13.564 -1.6401  1.6669 -0.1475
 2388TIP3    H228580   3.357   3.314  13.442  1.9976  0.5494  0.4007
 2389TIP3   OH228581   2.686   4.719   5.987  0.2163 -0.4162  0.1051
 2389TIP3    H128582   2.725   4.632   5.979  0.0263 -0.5304  0.4058
 2389TIP3    H228583   2.705   4.762   5.904 -0.6905 -1.1484 -0.4775
 2390TIP3   OH228584   0.480   2.840   5.410  0.8607 -0.4458  0.2420
 2390TIP3    H128585   0.434   2.777   5.465  1.1375 -0.2943  0.6525
 2390TIP3    H228586   0.572   2.831   5.434  1.1476 -1.3328 -1.1810
 2391TIP3   OH228587   1.909   4.056   3.325 -0.2484  0.4433 -0.1590
 2391TIP3    H128588   1.827   4.078   3.370 -0.5699 -0.0827 -0.4824
 2391TIP3    H228589   1.977   4.072   3.390 -0.5812  1.2041  0.0048
 2392TIP3   OH228590   0.556   2.761   4.312 -0.9607 -0.0612  0.0913
 2392TIP3    H128591   0.614   2.834   4.290 -0.0275 -0.3555  1.4707
 2392TIP3    H228592   0.489   2.800   4.369  0.3013 -0.4957  1.9315
 2393TIP3   OH228593   3.157   2.326  11.474 -0.4568 -0.4244 -0.2638
 2393TIP3    H128594   3.102   2.342  11.396 -0.9335  1.1872  0.3669
 2393TIP3    H228595   3.222   2.397  11.471 -0.7127 -0.1337  1.0009
 2394TIP3   OH228596   2.801   2.242   4.419  0.3158 -0.0678  0.3026
 2394TIP3    H128597   2.808   2.336   4.434 -1.8810  0.0043  1.0392
 2394TIP3    H228598   2.842   2.228   4.334  1.7811  1.3546  0.7398
 2395TIP3   OH228599   1.439   5.480   5.943 -0.4989 -0.1421  0.0801
 2395TIP3    H128600   1.373   5.456   5.878 -0.1497 -0.7990 -0.0304
 2395TIP3    H228601   1.401   5.452   6.027 -1.0342  0.8813  0.1921
 2396TIP3   OH228602   3.907   5.518  13.841 -0.9539 -0.2088 -0.2330
 2396TIP3    H128603   3.984   5.574  13.842  0.6039 -2.2915 -0.0953
 2396TIP3    H228604   3.865   5.536  13.756 -0.1553  0.7188 -0.4376
 2397TIP3   OH228605   1.377   0.169  14.540 -0.0229 -0.1403  0.1703
 2397TIP3    H128606   1.369   0.146  14.632  2.0424  1.7582  0.8533
 2397TIP3    H228607   1.306   0.231  14.524 -1.3134 -1.5993  0.0560
 2398TIP3   OH228608   1.375   3.146   3.192 -0.0101  0.0902 -0.0641
 2398TIP3    H128609   1.341   3.230   3.225 -0.6958  0.5397 -1.8717
 2398TIP3    H228610   1.446   3.124   3.253 -0.5936  1.3889  1.1269
 2399TIP3   OH228611   6.760   1.088  13.320 -0.1244  0.3494 -0.3018
 2399TIP3    H128612   6.704   1.060  13.248 -1.0734  0.6635  0.3001
 2399TIP3    H228613   6.703   1.083  13.397  1.1579 -0.9807  0.5896
 2400TIP3   OH228614   4.200   4.936   4.833 -0.1208 -0.0911  0.4043
 2400TIP3    H128615   4.288   4.901   4.819 -0.6934 -1.4103  0.0113
 2400TIP3    H228616   4.168   4.957   4.745  0.6948  2.6513  0.7301
 2401TIP3   OH228617   3.151   3.736  16.939 -0.1232 -0.2732  0.0688
 2401TIP3    H128618   3.076   3.791  16.957 -0.3994  0.1347 -2.1820
 2401TIP3    H228619   3.180   3.762  16.852  3.2245  0.2635  1.2574
 2402TIP3   OH228620   6.459   4.743   5.461  0.3827 -0.6503  0.3526
 2402TIP3    H128621   6.445   4.760   5.367  0.7892 -0.6816  0.2847
 2402TIP3    H228622   6.552   4.763   5.474  0.5444 -1.5565  0.5570
 2403TIP3   OH228623   4.026   0.640  11.938 -0.0193  0.1464 -0.4674
 2403TIP3    H128624   4.033   0.725  11.893  1.5607  0.1915 -0.1665
 2403TIP3    H228625   4.095   0.587  11.900  0.5973 -0.1996  1.1024
 2404TIP3   OH228626   1.005   1.809  15.745  0.1820 -0.3886 -0.2986
 2404TIP3    H128627   0.931   1.864  15.721 -1.6949 -1.3031  2.9443
 2404TIP3    H228628   1.076   1.870  15.765 -1.0251  0.7288  0.6226
 2405TIP3   OH228629   6.251   5.382   2.015 -0.5341 -0.5311 -0.2240
 2405TIP3    H128630   6.192   5.317   1.977  1.4171 -2.6006  0.1880
 2405TIP3    H228631   6.274   5.345   2.101  0.5983  0.7126  0.0075
 2406TIP3   OH228632   4.397   0.719   4.179 -0.1686 -0.3475  0.4276
 2406TIP3    H128633   4.492   0.720   4.176 -0.0987  0.1570  2.0881
 2406TIP3    H228634   4.371   0.811   4.178 -0.6605 -0.4844 -0.2954
 2407TIP3   OH228635   1.305   3.740   3.522 -0.2072 -0.1456 -0.0707
 2407TIP3    H128636   1.336   3.828   3.540  2.3598 -1.0409  0.1046
 2407TIP3    H228637   1.351   3.715   3.441  0.4406 -1.9400  0.8270
 2408TIP3   OH228638   1.380   3.613   1.510  0.4810 -0.2903  0.2817
 2408TIP3    H128639   1.469   3.589   1.535  1.1134  2.7779  1.2101
 2408TIP3    H228640   1.389   3.699   1.468 -1.9021 -0.5083 -0.7677
 2409TIP3   OH228641   2.815   2.594  13.036 -0.4808  0.7002 -0.5668
 2409TIP3    H128642   2.824   2.556  12.948 -1.0282  2.0065 -1.2033
 2409TIP3    H228643   2.836   2.686  13.024  0.3038  0.7194  0.8642
 2410TIP3   OH228644   0.358   4.884  11.548  0.0837  0.3425 -0.3759
 2410TIP3    H128645   0.446   4.893  11.511 -0.3894 -0.0412 -1.6499
 2410TIP3    H228646   0.306   4.949  11.501 -0.7251 -0.7611 -1.0471
 2411TIP3   OH228647   0.178   6.722   4.671  0.2390  0.7733  0.3712
 2411TIP3    H128648   0.237   6.689   4.739  1.3034  0.5175 -0.6645
 2411TIP3    H228649   0.095   6.676   4.688  1.3176 -1.4901 -0.2258
 2412TIP3   OH228650   5.098   0.995   2.783 -0.0414 -0.4401  0.6195
 2412TIP3    H128651   5.020   1.032   2.824  0.8797  1.5473  0.6855
 2412TIP3    H228652   5.155   0.972   2.857 -0.3110 -1.2840  0.5604
 2413TIP3   OH228653   2.900   4.259   3.596 -0.3180 -0.3900  0.0118
 2413TIP3    H128654   2.867   4.272   3.507 -0.7683  1.5403  0.4432
 2413TIP3    H228655   2.834   4.204   3.638 -2.6109  2.6397  0.5689
 2414TIP3   OH228656   6.451   2.831  15.758 -0.2415  0.3140  0.0163
 2414TIP3    H128657   6.423   2.849  15.668  0.1361  2.3833  0.2958
 2414TIP3    H228658   6.492   2.912  15.787 -0.1936 -0.4012  2.0083
 2415TIP3   OH228659   4.587   1.689   4.337 -0.1827 -0.2183 -1.0439
 2415TIP3    H128660   4.618   1.780   4.343 -2.1746  0.5455 -1.7279
 2415TIP3    H228661   4.560   1.679   4.246 -2.9811 -0.4400 -0.2378
 2416TIP3   OH228662   0.131   2.670   4.688  0.5288 -0.1470 -0.4071
 2416TIP3    H128663   0.199   2.627   4.741  0.5120 -1.2810 -1.2951
 2416TIP3    H228664   0.133   2.624   4.604 -3.3880 -2.2420  0.5270
 2417TIP3   OH228665   1.189   5.354  12.322 -0.2640 -0.2232  0.6036
 2417TIP3    H128666   1.142   5.422  12.273 -0.8045 -0.0353  1.3804
 2417TIP3    H228667   1.265   5.399  12.358 -0.6359 -0.0215  1.1395
 2418TIP3   OH228668   0.618   6.387   1.012 -0.2676 -0.3543 -0.2180
 2418TIP3    H128669   0.669   6.376   0.932  0.2611 -1.0559  0.2073
 2418TIP3    H228670   0.616   6.482   1.027 -0.5798 -0.2045 -1.1895
 2419TIP3   OH228671   1.298   6.717   3.601  0.0866  0.3864  0.0443
 2419TIP3    H128672   1.203   6.725   3.601  0.1008  0.5653 -0.1731
 2419TIP3    H228673   1.327   6.773   3.529  0.3850  0.6728  0.3836
 2420TIP3   OH228674   1.686   6.628   5.186  0.2594 -0.0536  0.4339
 2420TIP3    H128675   1.632   6.641   5.108 -0.2054 -1.7398  0.4569
 2420TIP3    H228676   1.692   6.715   5.225  1.8661  1.1258 -2.3464
 2421TIP3   OH228677   6.460   4.850   2.972 -0.3708  0.2632  0.1409
 2421TIP3    H128678   6.433   4.813   2.887 -0.4699  0.5108  0.0653
 2421TIP3    H228679   6.393   4.822   3.033 -0.1457 -0.1618  0.1963
 2422TIP3   OH228680   0.379   4.799   3.076  0.0092  0.1329 -0.0651
 2422TIP3    H128681   0.368   4.875   3.133 -1.3443 -0.3013  0.2712
 2422TIP3    H228682   0.428   4.736   3.129  1.2804  0.8209 -0.4026
 2423TIP3   OH228683   4.353   5.325  16.753 -0.8061  0.3047 -0.1797
 2423TIP3    H128684   4.309   5.241  16.735 -1.3451  0.5503 -0.0089
 2423TIP3    H228685   4.429   5.301  16.806 -1.5557  0.0352  0.7883
 2424TIP3   OH228686   3.647   1.747  12.475 -0.3409 -0.7374 -0.4244
 2424TIP3    H128687   3.604   1.828  12.447 -2.1155 -1.1836  0.9374
 2424TIP3    H228688   3.716   1.777  12.536  0.0389 -0.1587 -1.1266
 2425TIP3   OH228689   6.040   6.439  11.632 -0.1046 -0.3294 -0.1008
 2425TIP3    H128690   6.115   6.499  11.644  0.3092 -0.5665 -1.4171
 2425TIP3    H228691   6.045   6.413  11.540  0.5506 -3.4991  0.7640
 2426TIP3   OH228692   5.272   2.679   6.139 -0.5511 -0.0613  0.2068
 2426TIP3    H128693   5.271   2.730   6.219 -0.9934 -0.5146  0.4965
 2426TIP3    H228694   5.271   2.744   6.069  0.4375  0.3393  0.5646
 2427TIP3   OH228695   4.363   5.792   1.612  0.3111 -0.1759  0.3178
 2427TIP3    H128696   4.356   5.775   1.706  0.5618 -0.0394  0.3630
 2427TIP3    H228697   4.291   5.853   1.593  0.9625  0.7003  0.6468
 2428TIP3   OH228698   2.067   5.219   3.306  0.5287  0.0452  0.2510
 2428TIP3    H128699   2.110   5.303   3.319  1.2831 -0.3616  0.4624
 2428TIP3    H228700   1.974   5.236   3.320  0.6346  0.9175 -0.0906
 2429TIP3   OH228701   6.495   1.096  15.322  0.6069  0.8653 -0.2796
 2429TIP3    H128702   6.442   1.025  15.287 -1.5630  2.7303 -0.8753
 2429TIP3    H228703   6.584   1.076  15.292  0.2866 -2.2705  0.6929
 2430TIP3   OH228704   5.409   2.399   4.775 -0.1995  0.7347 -0.7238
 2430TIP3    H128705   5.377   2.353   4.853  0.1114  2.6805  0.5689
 2430TIP3    H228706   5.483   2.346   4.746  1.1996  1.2414  1.7236
 2431TIP3   OH228707   0.908   1.157   4.796 -0.3563 -0.0580  0.1915
 2431TIP3    H128708   0.950   1.201   4.869 -1.0047  0.9428 -0.0179
 2431TIP3    H228709   0.973   1.159   4.726 -0.5003  0.8780  0.0773
 2432TIP3   OH228710   1.311   0.148  13.429 -0.1686  0.3892 -0.2238
 2432TIP3    H128711   1.270   0.066  13.401 -0.7217 -0.0499  1.7869
 2432TIP3    H228712   1.331   0.134  13.522 -0.1120  2.4648  0.0966
 2433TIP3   OH228713   1.898   1.921  11.565 -0.2043 -0.1239  0.1970
 2433TIP3    H128714   1.846   1.919  11.644  1.2903  0.3350  1.2168
 2433TIP3    H228715   1.906   1.829  11.538  0.4697 -0.4261  1.3908
 2434TIP3   OH228716   3.015   5.256   0.930  0.4083  0.1439 -0.2264
 2434TIP3    H128717   3.003   5.310   1.008 -0.1271 -0.3304  0.0269
 2434TIP3    H228718   2.948   5.286   0.869 -0.5007 -0.8286  0.2567
 2435TIP3   OH228719   2.166   2.097   2.169  0.0902 -0.4466  0.1960
 2435TIP3    H128720   2.224   2.172   2.186  1.0834 -1.2568  0.4205
 2435TIP3    H228721   2.117   2.086   2.251 -0.5235  0.3543 -0.0573
 2436TIP3   OH228722   2.993   4.245  16.956 -0.1790  0.2360  0.6068
 2436TIP3    H128723   2.977   4.224  17.048  0.3031 -1.8577  0.2393
 2436TIP3    H228724   3.054   4.319  16.958 -0.2971  0.3057  1.9559
 2437TIP3   OH228725   3.345   2.109   1.658 -0.3201 -0.1247  0.1829
 2437TIP3    H128726   3.361   2.014   1.664 -1.1836 -0.2167  1.1569
 2437TIP3    H228727   3.316   2.134   1.746 -0.3641  1.0005 -0.1458
 2438TIP3   OH228728   1.388   4.991   2.653  0.1341 -0.5716  0.4164
 2438TIP3    H128729   1.403   4.908   2.697 -0.1067 -0.5803  0.4793
 2438TIP3    H228730   1.325   5.037   2.708 -2.2008 -1.6591 -1.2540
 2439TIP3   OH228731   2.406   2.843   2.064 -0.5404 -0.0850  0.0279
 2439TIP3    H128732   2.453   2.769   2.102 -0.3211  0.3530  0.6245
 2439TIP3    H228733   2.328   2.804   2.024  0.5160 -0.8694 -1.3151
 2440TIP3   OH228734   4.843   4.891   6.355 -0.6071 -0.3227 -0.0228
 2440TIP3    H128735   4.818   4.979   6.383 -0.1029 -0.7497  1.8502
 2440TIP3    H228736   4.847   4.840   6.436 -0.1113 -1.8727 -0.9938
 2441TIP3   OH228737   2.564   6.468   5.221  1.1136 -0.3802  0.0151
 2441TIP3    H128738   2.558   6.549   5.272  0.5282  0.5038 -1.4169
 2441TIP3    H228739   2.645   6.478   5.172 -1.1204  1.4091 -3.5344
 2442TIP3   OH228740   6.731   4.624  11.430  0.8287  0.8359 -0.0942
 2442TIP3    H128741   6.817   4.588  11.450 -0.3431 -0.9624  1.9590
 2442TIP3    H228742   6.700   4.572  11.355  0.8481  0.3329  0.2396
 2443TIP3   OH228743   6.599   3.958  16.588  0.3244  0.2565  0.1478
 2443TIP3    H128744   6.652   4.037  16.575  1.3044 -0.0916  1.8639
 2443TIP3    H228745   6.509   3.990  16.596  0.6092  1.1158 -0.0774
 2444TIP3   OH228746   3.624   2.187   2.478 -0.8317 -0.0423 -0.2395
 2444TIP3    H128747   3.604   2.123   2.546 -0.7578 -0.2016 -0.3691
 2444TIP3    H228748   3.626   2.271   2.525  2.1168 -0.4696  0.5034
 2445TIP3   OH228749   3.631   2.834  16.427 -0.3321 -0.0355 -0.5066
 2445TIP3    H128750   3.560   2.877  16.475  0.0192 -1.8626  1.6865
 2445TIP3    H228751   3.590   2.808  16.344 -2.5593 -2.0160  1.1525
 2446TIP3   OH228752   4.483   3.674   0.222 -0.9723  0.6024 -0.1229
 2446TIP3    H128753   4.538   3.752   0.229  1.2741 -0.8068 -1.4009
 2446TIP3    H228754   4.508   3.620   0.298  1.9696 -1.5194 -2.4385
 2447TIP3   OH228755   1.261   5.189   3.612  0.2764  0.2978  0.3221
 2447TIP3    H128756   1.278   5.274   3.653  0.8009  0.3833 -0.0568
 2447TIP3    H228757   1.247   5.130   3.686 -0.5360  0.7987  0.5769
 2448TIP3   OH228758   1.123   1.229  16.080  0.0757  0.4122  0.2749
 2448TIP3    H128759   1.083   1.149  16.045  0.9124 -0.8956  2.1938
 2448TIP3    H228760   1.096   1.298  16.020 -0.6355 -1.3256 -1.4454
 2449TIP3   OH228761   3.913   0.677  16.356 -0.0054  0.2596  0.4559
 2449TIP3    H128762   3.974   0.664  16.283  1.3098 -0.2618  1.6310
 2449TIP3    H228763   3.958   0.738  16.414 -0.9345  0.4488  0.9802
 2450TIP3   OH228764   5.685   3.075   2.405  0.5293 -0.0118 -0.0626
 2450TIP3    H128765   5.650   3.086   2.494 -1.1743 -0.6077 -0.6274
 2450TIP3    H228766   5.607   3.056   2.352  1.9460 -3.4530 -1.0407
 2451TIP3   OH228767   4.620   6.471  11.573 -0.7272 -0.8234 -0.3952
 2451TIP3    H128768   4.608   6.377  11.566 -0.9204 -0.8788  0.6094
 2451TIP3    H228769   4.576   6.495  11.655  1.0651 -0.1681  0.3980
 2452TIP3   OH228770   0.600   0.662  15.419 -0.0971  0.3790 -0.2318
 2452TIP3    H128771   0.558   0.742  15.387 -1.2412 -0.2960 -0.4337
 2452TIP3    H228772   0.527   0.605  15.444  0.7245 -0.0650  1.2286
 2453TIP3   OH228773   3.045   2.794  14.928  0.0497 -0.3308  0.1430
 2453TIP3    H128774   3.021   2.710  14.968 -0.1183 -0.4190 -0.1378
 2453TIP3    H228775   3.137   2.807  14.953 -0.5032  0.3845  1.8703
 2454TIP3   OH228776   2.014   6.458   6.278  0.4131 -0.8152  0.2603
 2454TIP3    H128777   1.987   6.535   6.229 -0.2200 -1.9041 -1.1172
 2454TIP3    H228778   1.934   6.427   6.321  0.3474 -1.5252 -0.3527
 2455TIP3   OH228779   4.169   3.113  13.562 -0.2325  0.0696 -0.5378
 2455TIP3    H128780   4.160   3.021  13.539 -2.4547  0.1428 -0.0859
 2455TIP3    H228781   4.225   3.114  13.640 -1.5522 -1.0313  0.4290
 2456TIP3   OH228782   2.718   4.587   1.534  0.5407 -0.7248 -0.0698
 2456TIP3    H128783   2.791   4.583   1.473  1.5190 -0.6782  1.0847
 2456TIP3    H228784   2.751   4.637   1.609 -0.7635 -0.4281  0.3313
 2457TIP3   OH228785   4.944   1.702  14.011 -0.4331  0.3020 -0.1783
 2457TIP3    H128786   4.942   1.649  14.091  2.1737  0.4796  0.0445
 2457TIP3    H228787   5.004   1.656  13.952 -0.7941  1.2078 -1.2887
 2458TIP3   OH228788   6.170   5.354  13.360 -0.3111 -0.0043  0.5251
 2458TIP3    H128789   6.255   5.369  13.320  0.2151  0.6278  1.8806
 2458TIP3    H228790   6.184   5.280  13.419 -0.4665  0.7337  1.4859
 2459TIP3   OH228791   2.677   1.988  15.670 -0.0591 -0.7411 -0.0660
 2459TIP3    H128792   2.751   2.013  15.616 -0.3126  0.0358 -0.0629
 2459TIP3    H228793   2.715   1.967  15.755  0.2476 -1.1699 -0.3088
 2460TIP3   OH228794   1.765   3.420  11.926  0.1879  0.0576  0.0329
 2460TIP3    H128795   1.844   3.455  11.968  0.4726 -0.0374 -0.4132
 2460TIP3    H228796   1.782   3.325  11.919 -0.6938 -0.2107  1.4847
 2461TIP3   OH228797   2.022   0.617  14.567 -0.2084 -0.1684  0.2562
 2461TIP3    H128798   2.076   0.591  14.493 -3.3666 -0.5161 -2.0172
 2461TIP3    H228799   2.035   0.711  14.576  0.2104 -0.1360 -0.7354
 2462TIP3   OH228800   0.671   4.679  10.365 -0.7666  0.3671  0.7928
 2462TIP3    H128801   0.677   4.584  10.376 -2.6010  0.2492  0.8671
 2462TIP3    H228802   0.709   4.715  10.445  0.2439 -0.2880  0.6216
 2463TIP3   OH228803   1.011   4.031   2.400 -0.0330  0.2370 -0.6148
 2463TIP3    H128804   0.985   3.943   2.374  1.2517 -0.2116 -0.4309
 2463TIP3    H228805   0.929   4.078   2.413 -0.7428 -1.3563  0.7429
 2464TIP3   OH228806   4.659   3.023   2.730  0.6251  0.1915  0.0703
 2464TIP3    H128807   4.726   3.036   2.797  1.6370  0.0379 -0.9013
 2464TIP3    H228808   4.600   3.098   2.742  0.6135  0.0037  1.3241
 2465TIP3   OH228809   6.766   5.248  13.644 -0.1724 -0.0499  0.3808
 2465TIP3    H128810   6.778   5.300  13.565  2.7679 -1.1816  0.0322
 2465TIP3    H228811   6.821   5.170  13.631 -0.5377 -0.8228  3.0326
 2466TIP3   OH228812   4.812   4.467  12.506 -0.0417  0.3982  0.3085
 2466TIP3    H128813   4.896   4.441  12.544  0.0419  0.0791 -0.0914
 2466TIP3    H228814   4.765   4.385  12.492  0.7121  0.3237 -2.1051
 2467TIP3   OH228815   3.575   3.379   0.722 -0.0153 -0.1604 -0.4753
 2467TIP3    H128816   3.497   3.353   0.770  1.5035 -0.8821  1.6253
 2467TIP3    H228817   3.579   3.474   0.732  0.5044 -0.3508  1.1571
 2468TIP3   OH228818   3.779   2.819   1.324  0.2127  0.3313  0.2742
 2468TIP3    H128819   3.840   2.786   1.390 -0.1783 -0.7388  0.1176
 2468TIP3    H228820   3.735   2.893   1.366  1.0882  0.6421  0.6468
 2469TIP3   OH228821   3.529   1.436   1.844  0.3518 -0.1255 -0.0224
 2469TIP3    H128822   3.450   1.425   1.791 -0.9483 -1.0870  2.0683
 2469TIP3    H228823   3.533   1.358   1.898  2.2029  0.3909  0.6247
 2470TIP3   OH228824   1.889   6.689   6.146  0.1688  0.0773  0.1957
 2470TIP3    H128825   1.796   6.668   6.155  0.1251  0.5112  0.7550
 2470TIP3    H228826   1.894   6.783   6.161  0.6156  0.1673 -0.4906
 2471TIP3   OH228827   2.637   2.678  15.763  0.3508  0.5309  0.6316
 2471TIP3    H128828   2.727   2.659  15.735  0.7660  1.9459  0.9391
 2471TIP3    H228829   2.613   2.605  15.821  0.4989 -0.9802 -1.1627
 2472TIP3   OH228830   3.235   4.379   3.609  0.6170  0.2814  0.0540
 2472TIP3    H128831   3.175   4.344   3.674  2.1811  0.6117  1.6861
 2472TIP3    H228832   3.313   4.405   3.658  2.5070 -1.0094 -2.1627
 2473TIP3   OH228833   4.704   5.526  13.392 -0.4048  0.8183 -0.4978
 2473TIP3    H128834   4.668   5.468  13.459 -3.2687  0.4529 -2.2999
 2473TIP3    H228835   4.789   5.552  13.427 -0.4653 -1.8616  1.8438
 2474TIP3   OH228836   1.937   2.417  11.420 -0.0221 -0.3136  0.2596
 2474TIP3    H128837   2.013   2.369  11.454  0.2525 -0.3535 -0.3953
 2474TIP3    H228838   1.864   2.356  11.431  0.4074 -1.0818 -1.0010
 2475TIP3   OH228839   4.235   6.080  14.015 -0.3105  0.5481  0.3294
 2475TIP3    H128840   4.304   6.033  13.969 -0.4080  0.1927  0.5489
 2475TIP3    H228841   4.278   6.120  14.090  0.2417  2.6593 -1.0416
 2476TIP3   OH228842   3.420   5.004   4.501 -0.0659  0.1383 -0.4233
 2476TIP3    H128843   3.418   4.997   4.406  1.4322  1.1196 -0.5438
 2476TIP3    H228844   3.497   4.954   4.527 -0.1498  0.3414  0.2335
 2477TIP3   OH228845   6.177   3.698  12.578  0.0524 -0.5190  0.6969
 2477TIP3    H128846   6.151   3.758  12.648  0.0641 -0.4822  0.6693
 2477TIP3    H228847   6.113   3.712  12.509  1.4032  1.1800 -0.2629
 2478TIP3   OH228848   1.958   2.150   5.322  0.4243 -0.0037  0.2727
 2478TIP3    H128849   1.943   2.218   5.387 -0.5503 -1.1930  1.3059
 2478TIP3    H228850   1.876   2.145   5.272  0.6483 -0.1056 -0.0917
 2479TIP3   OH228851   6.130   0.742  16.853  0.0711  0.0933  0.4138
 2479TIP3    H128852   6.162   0.727  16.942  2.2468  0.0848 -0.3516
 2479TIP3    H228853   6.084   0.661  16.831 -0.4838  0.0903  1.5140
 2480TIP3   OH228854   1.459   2.717  17.191  0.4575  0.3576 -0.7285
 2480TIP3    H128855   1.421   2.802  17.169  0.3705  0.3809 -0.4913
 2480TIP3    H228856   1.445   2.708  17.286  0.5442  0.1171 -0.7375
 2481TIP3   OH228857   3.577   5.633   2.954 -0.1530  0.0716 -0.7206
 2481TIP3    H128858   3.522   5.679   2.891 -0.7507  1.1203  0.5429
 2481TIP3    H228859   3.575   5.541   2.926 -1.5214  0.3050 -1.4027
 2482TIP3   OH228860   0.903   0.260   3.275 -0.2893  0.1756 -0.1941
 2482TIP3    H128861   0.884   0.209   3.196 -0.5127  1.1468 -0.7780
 2482TIP3    H228862   0.953   0.335   3.244  0.3835  0.1164  0.7098
 2483TIP3   OH228863   6.500   3.874   1.637  0.0990 -0.1322  0.2351
 2483TIP3    H128864   6.456   3.895   1.555  0.7205  1.4048  0.2881
 2483TIP3    H228865   6.583   3.921   1.633  0.8678 -1.3797  1.0243
 2484TIP3   OH228866   4.675   1.569   2.108  0.8459 -0.1250  0.5484
 2484TIP3    H128867   4.604   1.633   2.104  3.0813  2.4447  0.5086
 2484TIP3    H228868   4.681   1.534   2.019 -0.7573 -0.8459  0.7044
 2485TIP3   OH228869   5.789   6.163   3.209  0.3319  0.4466 -0.2605
 2485TIP3    H128870   5.799   6.166   3.114 -1.2131 -1.0259 -0.4893
 2485TIP3    H228871   5.758   6.074   3.227  0.9678  0.6048  1.6568
 2486TIP3   OH228872   5.837   1.673   3.516 -0.5893 -0.0893 -0.3238
 2486TIP3    H128873   5.760   1.671   3.460 -0.4816 -1.2061 -0.4500
 2486TIP3    H228874   5.837   1.588   3.560 -0.0395  0.3288  0.5102
 2487TIP3   OH228875   5.921   6.509   3.810  0.1344  0.3210  0.3983
 2487TIP3    H128876   5.849   6.570   3.826  0.1838 -0.0094  2.0124
 2487TIP3    H228877   5.879   6.422   3.809  0.4674  0.1482  1.0986
 2488TIP3   OH228878   3.030   4.092   1.032 -0.2227  0.4869 -0.3759
 2488TIP3    H128879   3.101   4.101   0.969 -0.2175  1.4084 -0.2395
 2488TIP3    H228880   3.063   4.032   1.099 -0.2672 -0.5958 -1.2987
 2489TIP3   OH228881   2.198   5.074  13.178 -0.5218  0.3455 -0.2553
 2489TIP3    H128882   2.109   5.064  13.210 -0.5424  0.0234 -0.4113
 2489TIP3    H228883   2.231   5.152  13.222 -0.5995 -0.0084  0.4323
 2490TIP3   OH228884   5.552   0.365  16.977 -0.0839 -0.0045 -0.3121
 2490TIP3    H128885   5.469   0.403  16.946  0.1172 -0.6550 -1.7118
 2490TIP3    H228886   5.593   0.434  17.028  0.0775  1.5616 -2.4754
 2491TIP3   OH228887   5.829   1.876  15.955  0.3237  0.2025 -0.0658
 2491TIP3    H128888   5.740   1.908  15.938  0.1135 -0.9607 -1.1703
 2491TIP3    H228889   5.838   1.882  16.050 -0.6657  1.0330 -0.0115
 2492TIP3   OH228890   5.449   0.538   0.736 -0.0849  0.3068  0.0102
 2492TIP3    H128891   5.412   0.609   0.684  0.6408 -0.7725 -2.0525
 2492TIP3    H228892   5.543   0.544   0.721  0.1316 -0.0726  1.1592
 2493TIP3   OH228893   2.129   0.960   2.817 -0.4430 -0.0087  0.8453
 2493TIP3    H128894   2.094   0.943   2.729 -1.1075  1.0683  0.9058
 2493TIP3    H228895   2.217   0.995   2.801 -1.1794  1.7306  0.5538
 2494TIP3   OH228896   0.358   3.555   4.575 -0.0412 -0.1627  0.0891
 2494TIP3    H128897   0.398   3.617   4.637  0.5453  0.0384 -0.4810
 2494TIP3    H228898   0.432   3.512   4.533 -0.3667  1.4861 -2.2642
 2495TIP3   OH228899   1.250   5.522  13.104  0.0694 -0.2140  0.1590
 2495TIP3    H128900   1.249   5.606  13.150 -0.7045 -0.6132  0.8640
 2495TIP3    H228901   1.267   5.546  13.013 -0.2593  0.7172  0.3311
 2496TIP3   OH228902   2.018   6.725  12.902  0.3884  0.2958 -0.6765
 2496TIP3    H128903   2.074   6.800  12.922  0.8007  0.1181 -1.1750
 2496TIP3    H228904   2.077   6.660  12.865 -0.3506  0.5453 -2.3269
 2497TIP3   OH228905   5.339   1.475   3.869 -0.0549 -0.0467 -0.3605
 2497TIP3    H128906   5.359   1.565   3.894  1.3111 -0.0118 -1.4946
 2497TIP3    H228907   5.406   1.453   3.804 -0.1577 -2.0050  0.1676
 2498TIP3   OH228908   1.468   5.363   0.562 -0.4395  0.3587  0.2649
 2498TIP3    H128909   1.530   5.318   0.503 -0.6088 -0.6350  0.8307
 2498TIP3    H228910   1.385   5.363   0.513 -0.2752  0.6686 -0.0185
 2499TIP3   OH228911   2.624   1.668  17.196 -0.0148  0.3240 -0.2601
 2499TIP3    H128912   2.713   1.701  17.181  0.0391  0.5672  0.5797
 2499TIP3    H228913   2.568   1.745  17.190 -0.2692  0.0394 -1.6282
 2500TIP3   OH228914   3.935   0.563  11.168 -0.0636  0.1317  0.1789
 2500TIP3    H128915   3.890   0.647  11.172 -1.5190 -0.6634  1.1411
 2500TIP3    H228916   3.905   0.524  11.086 -0.0851  0.1939  0.1567
 2501TIP3   OH228917   1.453   0.513   3.377 -0.2044  0.0848 -0.3608
 2501TIP3    H128918   1.412   0.546   3.457 -0.3042 -2.5299  0.7038
 2501TIP3    H228919   1.379   0.495   3.318 -0.2449  0.2654 -0.3662
 2502TIP3   OH228920   0.120   1.499   0.043 -0.4983  0.2229  0.3662
 2502TIP3    H128921   0.189   1.443   0.081 -0.4335 -0.7996 -1.2029
 2502TIP3    H228922   0.049   1.438   0.024 -0.5437  0.7289 -1.0931
 2503TIP3   OH228923   3.811   0.169   4.916 -0.1802 -0.0801  0.2147
 2503TIP3    H128924   3.784   0.087   4.958  2.2055 -0.3700  1.2645
 2503TIP3    H228925   3.774   0.238   4.972  1.2776 -0.4612  1.6629
 2504TIP3   OH228926   1.991   4.872  13.872 -0.2625 -0.0826 -0.1503
 2504TIP3    H128927   1.944   4.789  13.858 -1.0257  0.3021  0.0856
 2504TIP3    H228928   2.021   4.867  13.963 -0.5398  0.0161 -0.0530
 2505TIP3   OH228929   3.074   5.232  13.909  0.4758  0.0466  0.0044
 2505TIP3    H128930   3.017   5.161  13.880  1.4306 -0.2309 -1.1834
 2505TIP3    H228931   3.157   5.189  13.931  0.5942  0.6050  0.6746
 2506TIP3   OH228932   4.331   3.686  13.099  1.0832 -0.2145  0.1378
 2506TIP3    H128933   4.344   3.684  13.005  1.2573 -0.2768  0.1625
 2506TIP3    H228934   4.328   3.594  13.126 -3.2643 -0.2916 -0.3726
 2507TIP3   OH228935   1.020   6.757   3.612 -0.1996 -0.2368  0.1052
 2507TIP3    H128936   0.989   6.839   3.650  0.1668 -0.4688  0.9021
 2507TIP3    H228937   0.964   6.744   3.535 -0.4560  0.6024  0.1424
 2508TIP3   OH228938   2.207   4.933  15.825  0.7039 -0.2704  0.5665
 2508TIP3    H128939   2.227   4.906  15.915 -0.3416  1.3686  1.3052
 2508TIP3    H228940   2.282   4.987  15.800  1.3141 -1.2708  0.1995
 2509TIP3   OH228941   6.624   0.839  16.725 -0.1547 -0.2008  0.1066
 2509TIP3    H128942   6.567   0.864  16.651 -0.1502  0.6611  0.3894
 2509TIP3    H228943   6.659   0.922  16.757  0.5942 -0.6578  0.4834
 2510TIP3   OH228944   4.106   5.078   4.600  0.2138 -0.0572  0.0146
 2510TIP3    H128945   4.080   5.039   4.516  1.2693  0.6978 -0.6814
 2510TIP3    H228946   4.197   5.105   4.587 -0.2408  1.9578  0.6916
 2511TIP3   OH228947   0.174   1.885   0.049 -0.0600  0.1705 -0.2350
 2511TIP3    H128948   0.222   1.890   0.132 -0.9647 -0.5060  0.3397
 2511TIP3    H228949   0.224   1.822  -0.003 -0.6222 -0.9889  0.5829
 2512TIP3   OH228950   5.762   2.011  16.604 -0.1963 -0.1171  0.1836
 2512TIP3    H128951   5.809   2.077  16.654 -1.3879 -0.4272  1.7613
 2512TIP3    H228952   5.827   1.941  16.590  0.3335  0.2518  0.7532
 2513TIP3   OH228953   5.256   6.537  11.587  0.5753  0.2933 -0.3691
 2513TIP3    H128954   5.184   6.513  11.529 -1.0471 -1.1113  2.1406
 2513TIP3    H228955   5.308   6.457  11.595  0.9230  0.5450 -0.0858
 2514TIP3   OH228956   0.176   0.531   3.326  0.1919  0.2113 -0.1728
 2514TIP3    H128957   0.231   0.583   3.386 -0.7481  0.0697  0.8209
 2514TIP3    H228958   0.208   0.554   3.239  2.3477 -0.4461  0.4249
 2515TIP3   OH228959   0.924   5.667  10.709  0.0624  0.2176 -1.3519
 2515TIP3    H128960   1.016   5.677  10.733 -0.7104  1.9149  1.1471
 2515TIP3    H228961   0.918   5.579  10.672  2.6710  0.0988 -1.6101
 2516TIP3   OH228962   0.784   1.032  14.344  0.0154  0.3437 -0.3879
 2516TIP3    H128963   0.855   1.014  14.406  0.5015  2.5898 -0.2488
 2516TIP3    H228964   0.809   1.115  14.303 -2.2083  0.8146 -0.8328
 2517TIP3   OH228965   2.749   2.609  11.549  0.4388  0.4035  0.2407
 2517TIP3    H128966   2.803   2.625  11.626  0.3577  1.7200  0.0351
 2517TIP3    H228967   2.803   2.639  11.476  0.9841 -1.9010 -0.3579
 2518TIP3   OH228968   4.780   6.507   2.708  0.0098  0.1363 -0.1980
 2518TIP3    H128969   4.848   6.460   2.755  0.7698  0.4055 -1.0066
 2518TIP3    H228970   4.806   6.501   2.616 -1.0180  0.3094 -0.5062
 2519TIP3   OH228971   2.966   1.107  13.941 -0.1680 -0.5010 -0.8666
 2519TIP3    H128972   2.889   1.065  13.904 -0.9233  0.5804 -0.5284
 2519TIP3    H228973   2.998   1.045  14.006 -1.3247 -0.5207 -0.3125
 2520TIP3   OH228974   6.783   5.701  15.470  0.4942 -0.4521  0.1801
 2520TIP3    H128975   6.863   5.651  15.486  0.3996 -1.8093 -3.1050
 2520TIP3    H228976   6.712   5.643  15.497  0.4310 -1.7751 -2.6329
 2521TIP3   OH228977   4.220   4.396  15.446 -0.1328  0.2215 -0.1909
 2521TIP3    H128978   4.211   4.310  15.405  1.8717  0.2994 -0.8533
 2521TIP3    H228979   4.183   4.457  15.381  1.2772  0.1531 -1.0735
 2522TIP3   OH228980   6.545   0.248   6.887  0.3341  0.1013  0.5826
 2522TIP3    H128981   6.451   0.257   6.872  0.0148 -2.8870  0.4203
 2522TIP3    H228982   6.585   0.267   6.802 -0.3688 -1.5475 -0.1495
 2523TIP3   OH228983   2.426   0.323  14.142  0.1754 -0.5797 -0.1311
 2523TIP3    H128984   2.441   0.417  14.131  1.4622 -0.7225  0.3711
 2523TIP3    H228985   2.480   0.282  14.074 -0.6945 -0.9460 -0.6116
 2524TIP3   OH228986   4.452   4.475  11.938  0.0893 -0.2845 -0.0798
 2524TIP3    H128987   4.401   4.498  11.861  2.2661 -2.2016 -2.2050
 2524TIP3    H228988   4.408   4.398  11.975 -0.7191  0.3837  0.3446
 2525TIP3   OH228989   6.115   1.677  12.423 -0.6441 -0.5410 -0.2541
 2525TIP3    H128990   6.047   1.743  12.436 -0.0523 -0.0053  0.1751
 2525TIP3    H228991   6.131   1.643  12.511 -0.8710 -1.1929 -0.4597
 2526TIP3   OH228992   6.269   1.300  11.110 -0.0503  0.0566 -0.1180
 2526TIP3    H128993   6.223   1.381  11.133  2.3244  2.0337 -2.0904
 2526TIP3    H228994   6.205   1.231  11.127 -2.7054  2.4584  0.0315
 2527TIP3   OH228995   5.298   1.764  11.736 -0.0962 -0.0593 -0.0291
 2527TIP3    H128996   5.274   1.824  11.666 -2.1805 -0.7019  0.1085
 2527TIP3    H228997   5.215   1.740  11.777  0.6529 -3.3017 -0.3031
 2528TIP3   OH228998   0.881   4.883  16.574  0.0762  0.3722  0.5600
 2528TIP3    H128999   0.824   4.854  16.502  1.3033  0.2177 -0.3592
 2528TIP3    H229000   0.931   4.955  16.537  0.2751  0.7003  1.4604
 2529TIP3   OH229001   1.065   3.121   0.471  0.2501 -0.2592 -0.3030
 2529TIP3    H129002   1.127   3.062   0.426 -0.3720 -0.6383 -0.6709
 2529TIP3    H229003   1.068   3.202   0.420  2.6233  0.7614  1.3745
 2530TIP3   OH229004   5.246   6.226   1.780  0.3384  0.3530  0.6259
 2530TIP3    H129005   5.249   6.195   1.690 -1.3112 -0.1478  0.7244
 2530TIP3    H229006   5.177   6.292   1.781 -0.6050 -0.6205  1.8003
 2531TIP3   OH229007   3.927   3.408  13.276  0.8335  0.2847  0.1178
 2531TIP3    H129008   3.989   3.354  13.324  1.6503  0.1270 -1.0797
 2531TIP3    H229009   3.917   3.487  13.329  1.3205 -0.1039  0.7901
 2532TIP3   OH229010   3.968   4.013   4.376  0.2050 -0.2258 -0.4802
 2532TIP3    H129011   3.907   3.940   4.366  0.0930  0.1170 -2.4841
 2532TIP3    H229012   3.985   4.017   4.471  0.4794 -3.0340 -0.3688
 2533TIP3   OH229013   5.104   2.588  15.062  0.2748 -0.0484 -0.4937
 2533TIP3    H129014   5.125   2.620  15.150  0.7937  1.8646 -1.2693
 2533TIP3    H229015   5.045   2.514  15.076  1.9518 -1.0470  1.5255
 2534TIP3   OH229016   0.569   4.268  15.140 -0.3019 -0.3318  0.4504
 2534TIP3    H129017   0.494   4.328  15.135 -0.2371 -0.3219 -0.5744
 2534TIP3    H229018   0.547   4.198  15.078  0.0645 -0.8761  0.9291
 2535TIP3   OH229019   6.725   5.731  15.189 -0.5186 -0.2529 -0.6404
 2535TIP3    H129020   6.763   5.739  15.277 -0.4593  0.9120 -0.7576
 2535TIP3    H229021   6.766   5.653  15.153  0.6253  0.1161 -0.1879
 2536TIP3   OH229022   5.287   3.940  16.522 -0.0307  0.1999  0.0419
 2536TIP3    H129023   5.225   3.875  16.555  0.5497 -1.6606 -2.3545
 2536TIP3    H229024   5.271   4.018  16.576 -2.8530 -0.9398  0.9786
 2537TIP3   OH229025   4.668   6.740   4.060 -0.3954 -0.4929  0.3793
 2537TIP3    H129026   4.675   6.820   4.008 -0.1607 -0.0332  1.1234
 2537TIP3    H229027   4.591   6.695   4.024 -0.8838  0.3480  0.3555
 2538TIP3   OH229028   4.263   1.306   6.427 -0.0354  0.5494 -0.3754
 2538TIP3    H129029   4.169   1.289   6.428 -0.5353  3.1304  0.2540
 2538TIP3    H229030   4.275   1.372   6.359  1.3823 -0.0597 -0.7344
 2539TIP3   OH229031   1.746   3.627  11.763 -0.1507 -0.0314  0.5629
 2539TIP3    H129032   1.812   3.676  11.813 -3.5936  2.2734  3.1479
 2539TIP3    H229033   1.745   3.540  11.802  0.2093  0.4587  1.6826
 2540TIP3   OH229034   1.409   0.196  12.005 -0.3554  0.3279 -0.7944
 2540TIP3    H129035   1.382   0.209  11.914 -2.1772 -0.6677 -0.4059
 2540TIP3    H229036   1.474   0.125  12.000 -0.6824  0.0575 -1.3014
 2541TIP3   OH229037   3.432   6.774  11.741 -0.3342  0.2808  0.2883
 2541TIP3    H129038   3.445   6.759  11.648 -0.2074  2.0694  0.0024
 2541TIP3    H229039   3.516   6.754  11.781  0.0705  1.0273 -0.1825
 2542TIP3   OH229040   1.441   6.134   5.085 -0.9839 -0.0821 -0.0515
 2542TIP3    H129041   1.522   6.088   5.108 -0.9384  0.2888  0.5469
 2542TIP3    H229042   1.463   6.182   5.006 -0.4307  0.4990  0.4468
 2543TIP3   OH229043   2.147   6.194   4.242  0.4037 -0.1185  0.2240
 2543TIP3    H129044   2.184   6.247   4.314 -1.9977  2.2116 -0.1665
 2543TIP3    H229045   2.152   6.252   4.166 -0.2870 -1.3000 -0.7217
 2544TIP3   OH229046   6.306   1.634   4.628  0.4689  0.0541  0.1209
 2544TIP3    H129047   6.243   1.598   4.692 -0.0766  0.9019  0.0629
 2544TIP3    H229048   6.265   1.618   4.543  0.2809  0.6972  0.0890
 2545TIP3   OH229049   3.314   3.397  14.398  0.1075  0.2316 -0.0012
 2545TIP3    H129050   3.308   3.376  14.491  1.1254 -0.2702 -0.0431
 2545TIP3    H229051   3.244   3.346  14.357  0.8627 -1.0221  0.2450
 2546TIP3   OH229052   0.149   3.315  12.808 -0.3639  0.2183  0.7116
 2546TIP3    H129053   0.179   3.251  12.873  0.6774  1.0599  1.0832
 2546TIP3    H229054   0.053   3.315  12.816 -0.4477 -2.1522 -0.1464
 2547TIP3   OH229055   3.802   4.236  13.693  0.0817 -0.0364 -0.1365
 2547TIP3    H129056   3.860   4.298  13.739 -0.3679  0.1027  0.2567
 2547TIP3    H229057   3.770   4.285  13.617 -1.1566  0.6159  0.7846
 2548TIP3   OH229058   3.883   1.780   0.860  0.7394  0.2654  0.2214
 2548TIP3    H129059   3.839   1.858   0.894 -1.0675 -0.1227 -1.1581
 2548TIP3    H229060   3.878   1.716   0.931 -0.2511  0.4851  0.3481
 2549TIP3   OH229061   4.810   2.897  14.719  0.5100  0.0641  0.0767
 2549TIP3    H129062   4.796   2.838  14.645  1.4615 -0.5678  0.3961
 2549TIP3    H229063   4.887   2.862  14.764  2.3032  2.6833 -0.8462
 2550TIP3   OH229064   5.610   3.750  12.432 -0.3164  0.1630  0.0908
 2550TIP3    H129065   5.705   3.742  12.431 -0.3372 -0.5383  1.9290
 2550TIP3    H229066   5.577   3.666  12.401 -0.3560  0.3413 -0.3653
 2551TIP3   OH229067   5.194   2.541  13.552  0.0654 -0.3262 -0.0333
 2551TIP3    H129068   5.264   2.550  13.487 -1.2407  0.7986 -1.3242
 2551TIP3    H229069   5.123   2.496  13.505 -0.8665  0.4360  0.6264
 2552TIP3   OH229070   6.259   1.760  13.655 -0.1423  0.0315 -0.5629
 2552TIP3    H129071   6.313   1.829  13.694 -0.9358  1.4124 -1.8574
 2552TIP3    H229072   6.272   1.771  13.560 -1.4012 -0.6841 -0.8257
 2553TIP3   OH229073   2.218   4.710   4.420 -0.7084 -0.2746  0.5766
 2553TIP3    H129074   2.220   4.741   4.329  0.0114 -1.0790  0.3055
 2553TIP3    H229075   2.244   4.786   4.472 -0.7480  0.0823  0.0782
 2554TIP3   OH229076   5.058   4.024  15.665 -0.5071 -0.0219  0.1676
 2554TIP3    H129077   5.125   4.081  15.627 -0.6436 -0.6325 -0.9868
 2554TIP3    H229078   5.081   4.020  15.758 -1.3039  3.0843  0.5779
 2555TIP3   OH229079   2.965   2.765   0.989 -0.0071 -0.2229  0.0547
 2555TIP3    H129080   3.001   2.677   0.980  0.6010  0.1740 -1.6108
 2555TIP3    H229081   2.988   2.809   0.907 -0.6901  1.3477  0.6803
 2556TIP3   OH229082   6.506   6.283  17.021  0.5903  0.1137 -0.3711
 2556TIP3    H129083   6.579   6.330  17.062 -0.0140 -0.0236  0.8880
 2556TIP3    H229084   6.536   6.193  17.013 -0.4089 -0.5724  2.7113
 2557TIP3   OH229085   5.439   3.447  16.035  0.1134 -0.0794  0.5142
 2557TIP3    H129086   5.461   3.359  16.005 -0.8606  0.6386 -2.4453
 2557TIP3    H229087   5.515   3.500  16.010 -0.4790  0.4218 -0.2538
 2558TIP3   OH229088   6.575   6.395   6.571 -0.3945 -0.8596  0.3509
 2558TIP3    H129089   6.501   6.381   6.630 -1.0973  0.6719 -0.1392
 2558TIP3    H229090   6.546   6.361   6.486 -0.6179 -0.0662  0.1081
 2559TIP3   OH229091   3.519   5.760   1.972 -0.6285 -0.6027  0.4898
 2559TIP3    H129092   3.578   5.819   1.925 -0.7493  0.1740  1.2821
 2559TIP3    H229093   3.432   5.782   1.938 -0.6595 -0.3999  0.6941
 2560TIP3   OH229094   4.200   2.765   3.464  0.2226 -0.1254 -0.6561
 2560TIP3    H129095   4.174   2.676   3.440 -0.2602 -0.7870  2.1997
 2560TIP3    H229096   4.134   2.794   3.527  1.8473  1.2538  0.4618
 2561TIP3   OH229097   1.863   4.378  14.372  0.3770  0.1823 -0.0390
 2561TIP3    H129098   1.798   4.325  14.418  3.3718 -2.1000  1.7084
 2561TIP3    H229099   1.876   4.454  14.428  1.1321 -0.6604  0.9444
 2562TIP3   OH229100   0.251   0.393   0.035 -0.2877 -0.5117  0.0645
 2562TIP3    H129101   0.331   0.353   0.068 -0.2610 -0.9278 -0.4914
 2562TIP3    H229102   0.280   0.464  -0.021 -0.3355  0.2791  1.0325
 2563TIP3   OH229103   2.215   2.144  16.807 -0.4081  0.3454  0.1286
 2563TIP3    H129104   2.215   2.143  16.712 -0.9934 -0.2830  0.1325
 2563TIP3    H229105   2.306   2.160  16.832 -0.5416  2.2480 -0.5540
 2564TIP3   OH229106   0.240   6.446  16.907  0.7793  0.0082  0.1238
 2564TIP3    H129107   0.224   6.517  16.970 -0.8521 -1.3090  1.2387
 2564TIP3    H229108   0.194   6.475  16.827  0.1472  0.2174  0.5608
 2565TIP3   OH229109   6.599   2.206  14.379  0.3216  0.2454 -0.5069
 2565TIP3    H129110   6.611   2.279  14.440  0.8137 -0.7787  0.6234
 2565TIP3    H229111   6.577   2.249  14.296  1.1265  1.7044  0.0108
 2566TIP3   OH229112   0.264   0.518  13.509 -0.3975 -0.0123  0.0253
 2566TIP3    H129113   0.286   0.554  13.594 -1.2131  1.5398 -0.4067
 2566TIP3    H229114   0.190   0.460  13.525  2.3381 -3.3995  1.0959
 2567TIP3   OH229115   4.162   4.436   1.673 -0.3704  0.2618  0.0562
 2567TIP3    H129116   4.190   4.495   1.603 -1.3156  2.6626  1.6319
 2567TIP3    H229117   4.241   4.388   1.696  0.1069 -0.0833 -2.1755
 2568TIP3   OH229118   4.350   6.784  16.634 -0.2011  0.1143 -0.3699
 2568TIP3    H129119   4.435   6.777  16.677 -0.4593  0.3473  0.1945
 2568TIP3    H229120   4.366   6.758  16.544  0.0026 -2.2091  0.3005
 2569TIP3   OH229121   3.013   1.162   1.094 -0.0969  0.0966 -0.3924
 2569TIP3    H129122   3.005   1.159   0.999  0.6352  0.6191 -0.4765
 2569TIP3    H229123   3.055   1.246   1.112  1.7586 -0.9327  0.2326
 2570TIP3   OH229124   1.040   5.670   0.542 -0.1149  0.4242 -0.3088
 2570TIP3    H129125   0.991   5.690   0.622  0.4339  1.5155 -0.2284
 2570TIP3    H229126   0.972   5.648   0.477 -0.8661  3.2824 -0.5937
 2571TIP3   OH229127   4.165   2.874   4.954 -0.4713  0.4271 -0.1171
 2571TIP3    H129128   4.087   2.833   4.992 -0.8382  1.7681  0.6190
 2571TIP3    H229129   4.170   2.839   4.865 -1.3993 -0.3705  0.1381
 2572TIP3   OH229130   5.658   2.578  15.436  1.4293 -0.3811 -0.6002
 2572TIP3    H129131   5.668   2.631  15.357 -1.6716  0.1696 -0.6966
 2572TIP3    H229132   5.640   2.490  15.405 -0.5858 -0.0107 -0.5858
 2573TIP3   OH229133   3.455   2.228   5.594 -0.1392 -0.3379  0.4887
 2573TIP3    H129134   3.447   2.321   5.572 -0.5294 -0.0029  1.9695
 2573TIP3    H229135   3.448   2.183   5.510 -1.5233  0.8781 -0.0709
 2574TIP3   OH229136   6.707   5.248  11.486  0.6368 -0.0018 -0.2295
 2574TIP3    H129137   6.700   5.329  11.436  2.3922  0.1151 -0.3248
 2574TIP3    H229138   6.786   5.260  11.539 -0.2403 -0.8208  1.2799
 2575TIP3   OH229139   0.054   5.598  12.788 -0.4099  0.3575  0.4759
 2575TIP3    H129140   0.060   5.681  12.834  0.5446  0.3922  0.3046
 2575TIP3    H229141   0.009   5.539  12.849  2.7294 -0.2107  2.3509
 2576TIP3   OH229142   2.664   0.519  17.119  0.5622  0.0518  0.1212
 2576TIP3    H129143   2.699   0.608  17.130  0.8588 -0.2341  1.5760
 2576TIP3    H229144   2.684   0.475  17.202  1.8316 -1.8623 -1.1419
 2577TIP3   OH229145   4.151   4.899  15.829  0.4305 -0.3878  0.1911
 2577TIP3    H129146   4.121   4.858  15.910 -0.1989  0.0892  0.2021
 2577TIP3    H229147   4.088   4.871  15.763  0.5065 -0.1634  0.0209
 2578TIP3   OH229148   4.234   1.873   4.230  0.6172 -0.0754 -0.5064
 2578TIP3    H129149   4.326   1.890   4.211  0.0841  1.5790 -1.7407
 2578TIP3    H229150   4.235   1.828   4.315  2.5605 -0.2484 -0.5926
 2579TIP3   OH229151   1.009   3.533  14.094 -0.0576 -0.0703  0.0488
 2579TIP3    H129152   0.961   3.594  14.151  1.2016 -0.7796  1.9156
 2579TIP3    H229153   0.944   3.502  14.031 -1.2305  1.5278  0.4638
 2580TIP3   OH229154   2.884   1.992   1.517  0.3238  0.4793  0.1045
 2580TIP3    H129155   2.928   2.077   1.528  2.2001 -0.3207 -0.9782
 2580TIP3    H229156   2.954   1.932   1.491 -0.5414 -1.9554  3.1289
 2581TIP3   OH229157   0.745   2.119  16.646  0.1301  0.1221 -0.5157
 2581TIP3    H129158   0.808   2.047  16.649  1.1140  0.9551 -0.6190
 2581TIP3    H229159   0.660   2.077  16.649  0.6977 -0.9660  0.8647
 2582TIP3   OH229160   2.301   2.142  14.928  0.6576  0.7835 -0.4680
 2582TIP3    H129161   2.384   2.159  14.974 -1.3599 -1.3706  4.3636
 2582TIP3    H229162   2.247   2.219  14.947  0.1494  0.3370 -0.1089
 2583TIP3   OH229163   0.101   6.603  14.013 -0.1356  0.0153  0.0087
 2583TIP3    H129164   0.173   6.544  13.989  0.1901  0.9386 -1.3019
 2583TIP3    H229165   0.082   6.653  13.934 -1.2029  0.8595  0.7718
 2584TIP3   OH229166   6.747   2.679  15.826  0.0984 -0.3989 -0.0110
 2584TIP3    H129167   6.786   2.633  15.901 -1.9060 -0.1588  1.2038
 2584TIP3    H229168   6.654   2.658  15.830 -0.4899  1.8858 -0.7898
 2585TIP3   OH229169   1.646   1.598   3.213  0.1453 -0.0271  0.0610
 2585TIP3    H129170   1.729   1.591   3.260 -1.1255 -0.3862  2.2754
 2585TIP3    H229171   1.627   1.692   3.211  1.1496  0.1687 -1.4749
 2586TIP3   OH229172   2.467   0.076   4.707  0.4121 -0.5625 -0.6320
 2586TIP3    H129173   2.429   0.071   4.619  0.7405  0.8284 -0.8730
 2586TIP3    H229174   2.508  -0.010   4.721 -0.0618 -0.9551 -1.6435
 2587TIP3   OH229175   6.593   1.940  14.288 -0.1048 -0.0890 -0.1938
 2587TIP3    H129176   6.676   1.905  14.321  0.1423  0.5344 -0.1408
 2587TIP3    H229177   6.575   2.015  14.344  0.7369  1.4656 -1.9533
 2588TIP3   OH229178   0.537   2.915   5.025  0.0091 -0.7232  0.1511
 2588TIP3    H129179   0.497   3.000   5.041  1.0707 -0.0335 -0.7755
 2588TIP3    H229180   0.475   2.869   4.968  1.1566  0.9112 -2.5359
 2589TIP3   OH229181   2.422   3.348   2.154 -0.2222  0.2818  0.0441
 2589TIP3    H129182   2.327   3.358   2.143  0.0261  1.8337 -1.0326
 2589TIP3    H229183   2.447   3.424   2.207  0.4479  0.0331  0.0764
 2590TIP3   OH229184   6.198   4.450   1.729 -0.1420  0.2934  0.3482
 2590TIP3    H129185   6.230   4.468   1.817 -0.4765  0.0317  0.5272
 2590TIP3    H229186   6.271   4.472   1.671  0.8839 -1.7103  0.8514
 2591TIP3   OH229187   0.808   6.501   1.652 -0.0227  0.0506 -0.4554
 2591TIP3    H129188   0.800   6.405   1.647 -1.2563 -0.0215  1.9978
 2591TIP3    H229189   0.723   6.530   1.686  1.8376  1.5798  3.0977
 2592TIP3   OH229190   4.316   2.016   2.656 -0.3655 -0.0087  0.0001
 2592TIP3    H129191   4.275   1.962   2.588 -0.8799  2.6016 -1.8427
 2592TIP3    H229192   4.405   2.030   2.625 -0.2705  0.3110  0.4103
 2593TIP3   OH229193   2.496   1.346   4.692 -0.4797 -0.6262  0.1989
 2593TIP3    H129194   2.435   1.284   4.730  0.4518 -1.6882  0.0028
 2593TIP3    H229195   2.533   1.301   4.616 -0.3937  0.4768 -0.4332
 2594TIP3   OH229196   4.676   1.244   4.310 -0.3672 -0.0661  0.5685
 2594TIP3    H129197   4.748   1.244   4.247 -0.0850  0.7502  0.8971
 2594TIP3    H229198   4.692   1.319   4.366 -0.1190 -1.3066  2.2140
 2595TIP3   OH229199   0.570   4.106  12.195  0.4964 -0.4586  0.3326
 2595TIP3    H129200   0.649   4.108  12.249  1.8970  0.3235 -1.6870
 2595TIP3    H229201   0.521   4.031  12.228  1.5602 -0.3228  2.3218
 2596TIP3   OH229202   3.096   0.809   3.806 -1.0515 -0.0566 -0.0704
 2596TIP3    H129203   3.028   0.807   3.873 -0.5635 -1.1865  0.4157
 2596TIP3    H229204   3.164   0.867   3.841 -0.5335 -1.1033  0.6918
 2597TIP3   OH229205   3.712   2.157   4.843  0.4563 -0.0145  0.1903
 2597TIP3    H129206   3.750   2.073   4.867 -2.4095 -1.5697 -0.4171
 2597TIP3    H229207   3.733   2.167   4.750  0.8459 -0.0152  0.2763
 2598TIP3   OH229208   0.132   2.350  11.263 -0.4445  0.6133 -0.6292
 2598TIP3    H129209   0.223   2.331  11.285 -0.4215 -0.9411 -1.9806
 2598TIP3    H229210   0.137   2.421  11.198 -0.3145  2.0593  0.9368
 2599TIP3   OH229211   0.019   3.611  16.440 -0.0645 -0.6954 -0.2923
 2599TIP3    H129212   0.100   3.656  16.465 -0.4219 -0.6778  0.8643
 2599TIP3    H229213  -0.013   3.659  16.364  1.0009 -0.6911 -0.7435
 2600TIP3   OH229214   1.872   1.365   5.621 -0.7275  0.0803 -0.0087
 2600TIP3    H129215   1.820   1.324   5.689  0.7418 -1.8592 -0.0203
 2600TIP3    H229216   1.892   1.295   5.559  2.2522  0.6518  0.2205
 2601TIP3   OH229217   3.426   0.149   6.453  0.1443 -0.2412 -0.5310
 2601TIP3    H129218   3.455   0.240   6.453 -1.4156  0.2857  0.5624
 2601TIP3    H229219   3.506   0.098   6.451  1.0513  1.1684 -0.7159
 2602TIP3   OH229220   3.296   3.639  15.802  0.1870 -0.5677  0.5218
 2602TIP3    H129221   3.346   3.595  15.733 -1.5904 -0.7048 -0.6824
 2602TIP3    H229222   3.346   3.719  15.819 -0.4654  0.5224 -2.4267
 2603TIP3   OH229223   1.350   3.023   4.575  0.0695 -0.5557 -0.1797
 2603TIP3    H129224   1.378   3.058   4.660 -0.7040 -0.6228  0.1043
 2603TIP3    H229225   1.429   2.982   4.540  0.3061 -0.8440  0.6676
 2604TIP3   OH229226   0.171   5.416   4.574 -0.1005  0.6832  0.3157
 2604TIP3    H129227   0.155   5.502   4.538 -1.9722 -0.1472 -0.8819
 2604TIP3    H229228   0.264   5.400   4.557 -0.0835  1.8527 -0.7385
 2605TIP3   OH229229   5.562   5.696   4.086 -0.3749 -0.2970  0.6142
 2605TIP3    H129230   5.602   5.766   4.035 -0.1509 -0.6592  0.2784
 2605TIP3    H229231   5.604   5.616   4.053 -0.2256 -0.5334  1.3807
 2606TIP3   OH229232   6.512   5.343   3.973  0.0499 -0.1418  0.3746
 2606TIP3    H129233   6.459   5.280   3.924  0.8335 -2.3100  2.1984
 2606TIP3    H229234   6.586   5.291   4.006  1.7815  2.1878  0.2855
 2607TIP3   OH229235   3.571   6.140  15.788  0.1908 -0.1867  0.3997
 2607TIP3    H129236   3.601   6.073  15.727 -0.3788  0.7868 -0.9859
 2607TIP3    H229237   3.647   6.158  15.843  0.8820 -0.7053 -0.3677
 2608TIP3   OH229238   3.257   5.739  13.694 -0.4194 -0.2327  0.6531
 2608TIP3    H129239   3.337   5.711  13.738  0.4670  1.2531  0.0215
 2608TIP3    H229240   3.194   5.752  13.766  0.6650  1.0138  1.4148
 2609TIP3   OH229241   4.569   4.275   2.075  0.2147  0.3255 -0.0845
 2609TIP3    H129242   4.601   4.191   2.044  0.2652  0.0272  0.7676
 2609TIP3    H229243   4.543   4.259   2.166 -1.2634  0.8324 -0.3964
 2610TIP3   OH229244   5.080   3.097  17.004  0.2237  0.0255 -0.1696
 2610TIP3    H129245   5.167   3.057  17.000  0.0348 -0.3274 -0.8131
 2610TIP3    H229246   5.075   3.135  17.091  0.9632 -0.1000 -0.0688
 2611TIP3   OH229247   4.938   2.464  16.155  0.0986 -0.0537 -0.1399
 2611TIP3    H129248   4.917   2.411  16.078  0.1051 -0.8284  0.3874
 2611TIP3    H229249   4.861   2.454  16.212  0.3628  0.0151  0.2281
 2612TIP3   OH229250   0.079   0.320   5.480 -0.3318 -0.1927 -0.5523
 2612TIP3    H129251   0.044   0.237   5.512  0.5274 -0.2830  0.1734
 2612TIP3    H229252   0.055   0.384   5.547  0.9267 -0.2677 -0.0214
 2613TIP3   OH229253   6.691   5.070  16.470 -0.4164  0.3755  0.1127
 2613TIP3    H129254   6.721   4.982  16.491  1.4657  1.4469  2.1635
 2613TIP3    H229255   6.601   5.058  16.437  0.5018 -2.4403 -1.5384
 2614TIP3   OH229256   4.445   5.469   3.432  0.1404 -0.3397  0.1172
 2614TIP3    H129257   4.412   5.492   3.345  1.0339  2.5607  0.4904
 2614TIP3    H229258   4.534   5.504   3.434  0.1992 -0.5712  2.1156
 2615TIP3   OH229259   3.455   4.057   6.391  0.4434 -0.1019  0.0733
 2615TIP3    H129260   3.406   3.994   6.445 -0.1873  1.0546  0.8801
 2615TIP3    H229261   3.388   4.114   6.354  1.0209  0.1742 -0.5597
 2616TIP3   OH229262   5.750   2.566  12.289  0.6240  0.0843 -0.0453
 2616TIP3    H129263   5.803   2.632  12.244  0.0546  0.2458 -0.4905
 2616TIP3    H229264   5.766   2.485  12.240  0.4076  0.1473 -0.2191
 2617TIP3   OH229265   2.016   2.492  14.303  0.2101 -0.1598 -0.2565
 2617TIP3    H129266   2.034   2.572  14.352  0.8653 -0.1978 -0.4312
 2617TIP3    H229267   2.097   2.474  14.255  0.1248 -1.0190 -0.0914
 2618TIP3   OH229268   2.026   1.745   0.541 -0.8869 -0.4310  0.1838
 2618TIP3    H129269   1.982   1.817   0.497 -3.4909 -2.7434 -1.1504
 2618TIP3    H229270   2.077   1.702   0.472 -0.2462 -0.5560  0.7209
 2619TIP3   OH229271   1.609   2.152  11.050  0.0289 -0.6692 -0.4917
 2619TIP3    H129272   1.659   2.084  11.004 -2.3899 -1.2457 -2.3474
 2619TIP3    H229273   1.615   2.229  10.994 -3.2992 -1.4978 -2.0959
 2620TIP3   OH229274   4.195   0.692   0.106 -0.5834  0.0482 -0.0036
 2620TIP3    H129275   4.264   0.626   0.113  0.0074  0.4888 -1.6429
 2620TIP3    H229276   4.134   0.657   0.041  0.7660  2.0158 -2.3696
 2621TIP3   OH229277   4.127   1.198  15.199 -0.0639  0.1793  0.0771
 2621TIP3    H129278   4.041   1.233  15.176  2.0706  4.3982 -2.0384
 2621TIP3    H229279   4.149   1.241  15.281 -0.4989 -1.9643  1.3530
 2622TIP3   OH229280   0.646   3.550  15.770 -0.2904  0.0973  0.7346
 2622TIP3    H129281   0.666   3.604  15.846 -1.1864  0.5310  0.6681
 2622TIP3    H229282   0.598   3.475  15.805 -0.6006  0.2378  0.6048
 2623TIP3   OH229283   2.897   2.694   4.478  0.0287 -0.4193  0.0553
 2623TIP3    H129284   2.824   2.633   4.467 -0.2692  0.2762 -1.9404
 2623TIP3    H229285   2.866   2.758   4.541 -2.2171  1.5560 -2.9672
 2624TIP3   OH229286   0.420   4.354  15.721 -0.1971  0.0308  0.8854
 2624TIP3    H129287   0.375   4.370  15.804 -1.3542 -0.1195  0.2957
 2624TIP3    H229288   0.362   4.294  15.674  0.0889  0.7226 -0.3512
 2625TIP3   OH229289   1.830   3.569  12.708  0.4453  0.7754  0.6882
 2625TIP3    H129290   1.738   3.590  12.717 -0.3295 -1.7478 -0.8867
 2625TIP3    H229291   1.867   3.582  12.796 -1.0220  3.3030  0.9799
 2626TIP3   OH229292   1.122   2.060  14.891 -0.1617 -0.2777  0.0187
 2626TIP3    H129293   1.113   1.965  14.903  0.1901 -0.2160  0.7590
 2626TIP3    H229294   1.189   2.086  14.953  1.6388  0.0437 -2.0164
 2627TIP3   OH229295   6.387   1.463   2.387 -0.2419 -0.3242 -0.6174
 2627TIP3    H129296   6.403   1.370   2.405 -0.0100 -0.3421 -0.8972
 2627TIP3    H229297   6.354   1.499   2.469  1.8869 -0.1501  0.1896
 2628TIP3   OH229298   5.290   5.181   4.330  0.4676  0.1136  0.1180
 2628TIP3    H129299   5.362   5.243   4.338  0.3869  0.1997  0.1807
 2628TIP3    H229300   5.213   5.230   4.361  0.7362 -0.6516  2.0897
 2629TIP3   OH229301   5.728   2.976  15.851  0.1935  0.1404 -0.9560
 2629TIP3    H129302   5.763   2.906  15.795 -1.0334 -1.3434  0.0716
 2629TIP3    H229303   5.669   2.930  15.912 -1.2844  2.1941 -0.7983
 2630TIP3   OH229304   2.698   1.349  14.345  0.5604  0.1733 -0.5226
 2630TIP3    H129305   2.743   1.275  14.305 -0.7507 -0.4187 -0.9131
 2630TIP3    H229306   2.769   1.406  14.375  1.5994 -1.8503  0.9669
 2631TIP3   OH229307   0.334   5.718   4.113 -0.0201 -0.0538 -0.0938
 2631TIP3    H129308   0.324   5.643   4.172  1.0757  0.0739  0.2638
 2631TIP3    H229309   0.376   5.683   4.036  0.3611  0.1660  0.0134
 2632TIP3   OH229310   5.591   2.839  15.340 -0.1321 -0.1874 -0.1865
 2632TIP3    H129311   5.581   2.816  15.433  2.3789 -1.3796 -0.1736
 2632TIP3    H229312   5.677   2.805  15.316  0.2018  2.0805 -2.3960
 2633TIP3   OH229313   0.838   6.491   4.201  0.4032  0.0512 -0.1008
 2633TIP3    H129314   0.843   6.581   4.171  0.9447  0.1241  0.1922
 2633TIP3    H229315   0.745   6.471   4.203  0.1044  1.5578  2.6552
 2634TIP3   OH229316   4.979   2.265  15.588  0.1513 -0.7822  0.1799
 2634TIP3    H129317   4.940   2.275  15.501 -0.9104  2.0077  0.9261
 2634TIP3    H229318   5.069   2.297  15.578  0.8953 -3.0307 -0.5038
 2635TIP3   OH229319   0.105   2.939   4.625  0.1886 -0.1890 -0.0528
 2635TIP3    H129320   0.194   2.964   4.600  0.8443 -0.9655  1.4796
 2635TIP3    H229321   0.106   2.844   4.629 -1.6435 -0.4145 -3.3726
 2636TIP3   OH229322   1.427   6.179   2.483  0.0953  0.0320 -0.2777
 2636TIP3    H129323   1.402   6.209   2.570  1.5200 -3.0162  1.2670
 2636TIP3    H229324   1.502   6.233   2.459 -0.5133  1.1071  0.2130
 2637TIP3   OH229325   0.696   5.157  15.492 -0.1379  0.3447  0.0418
 2637TIP3    H129326   0.652   5.109  15.562  0.4276 -0.6096 -0.2432
 2637TIP3    H229327   0.789   5.136  15.503  0.0083  0.5771 -0.6894
 2638TIP3   OH229328   1.062   1.838   5.116  0.4553  0.0598 -0.2965
 2638TIP3    H129329   1.113   1.784   5.175  0.5858  0.6259  0.1112
 2638TIP3    H229330   0.985   1.785   5.095  0.1607  0.0537  0.7737
 2639TIP3   OH229331   2.423   1.871  11.292  0.5794 -0.8601 -0.0876
 2639TIP3    H129332   2.481   1.895  11.365 -1.5242  1.8484  0.7766
 2639TIP3    H229333   2.357   1.814  11.332  0.7699 -1.2961 -0.3895
 2640TIP3   OH229334   2.722   5.649   4.139  0.3775  0.4523  0.8507
 2640TIP3    H129335   2.668   5.727   4.129  0.6293  0.7279  1.6479
 2640TIP3    H229336   2.800   5.666   4.087  0.0997  0.4288  0.4279
 2641TIP3   OH229337   1.330   1.979   5.452 -0.1725 -0.6726 -0.1025
 2641TIP3    H129338   1.236   1.969   5.466 -0.0836 -2.3406 -0.5948
 2641TIP3    H229339   1.339   2.001   5.359 -0.0757 -0.2890 -0.0068
 2642TIP3   OH229340   3.147   5.720  13.960  0.0021  0.2860 -0.0866
 2642TIP3    H129341   3.128   5.783  14.029 -0.6772  0.5367 -0.4900
 2642TIP3    H229342   3.077   5.654  13.969 -0.4511  0.6459 -0.9120
 2643TIP3   OH229343   6.063   1.270   2.431 -0.4191 -0.4441 -0.6091
 2643TIP3    H129344   6.011   1.255   2.352 -0.6413  0.5242 -0.6480
 2643TIP3    H229345   6.064   1.365   2.442  1.9948 -0.3734 -1.0616
 2644TIP3   OH229346   2.626   4.331  16.286 -0.2242  0.0069 -0.9264
 2644TIP3    H129347   2.649   4.414  16.328  1.5898 -0.7369 -0.3757
 2644TIP3    H229348   2.556   4.295  16.339 -1.0459  1.1980 -1.1872
 2645TIP3   OH229349   4.885   0.657   4.093 -0.6126 -0.7592 -0.2424
 2645TIP3    H129350   4.952   0.638   4.027  0.5660  1.1373  0.3661
 2645TIP3    H229351   4.929   0.646   4.177 -1.0612  0.4884  0.1631
 2646TIP3   OH229352   3.710   2.524  11.265  0.5841  0.0258 -0.5499
 2646TIP3    H129353   3.674   2.435  11.261  2.5018 -0.6977 -3.4214
 2646TIP3    H229354   3.786   2.515  11.324  1.1579 -0.3938 -1.3482
 2647TIP3   OH229355   3.348   1.821   0.097  0.8984 -0.0024 -0.2792
 2647TIP3    H129356   3.375   1.857   0.181  2.1577 -0.4904 -0.4684
 2647TIP3    H229357   3.389   1.878   0.032 -0.3996  0.6121 -0.5633
 2648TIP3   OH229358   5.241   3.687  12.624 -0.2604  0.1178  0.0092
 2648TIP3    H129359   5.249   3.662  12.532  0.0415  0.6718 -0.1172
 2648TIP3    H229360   5.332   3.700  12.653 -0.1986 -2.1449  0.9784
 2649TIP3   OH229361   6.604   3.654  13.010  0.5108  0.0651  0.1196
 2649TIP3    H129362   6.685   3.627  13.054  0.0346  0.7552  1.4633
 2649TIP3    H229363   6.545   3.678  13.082 -0.5477  0.5116 -0.8836
 2650TIP3   OH229364   1.028   0.237   1.750 -0.5104  0.0125  0.3775
 2650TIP3    H129365   1.046   0.328   1.726 -0.8777  0.0329  0.1740
 2650TIP3    H229366   1.061   0.185   1.677  0.7319 -0.0983  0.9978
 2651TIP3   OH229367   5.729   4.029   3.166 -0.4904 -0.5599  0.1597
 2651TIP3    H129368   5.808   4.078   3.140 -0.9451 -0.5138 -1.1963
 2651TIP3    H229369   5.758   3.939   3.174  0.0269 -0.3079  1.1655
 2652TIP3   OH229370   3.255   3.540   2.927  0.0335  0.5994 -0.6026
 2652TIP3    H129371   3.173   3.586   2.939 -0.0191 -0.0347  1.6942
 2652TIP3    H229372   3.323   3.605   2.947  0.0021  0.2596  0.6523
 2653TIP3   OH229373   6.114   4.551   1.239 -0.2341  0.0452 -0.4327
 2653TIP3    H129374   6.169   4.583   1.310 -1.3270  1.7667 -0.3221
 2653TIP3    H229375   6.165   4.568   1.160 -0.1923  0.7689 -0.2572
 2654TIP3   OH229376   5.382   0.791  16.310  0.2008 -0.0434  0.1759
 2654TIP3    H129377   5.475   0.768  16.304  0.4039  0.7254  0.3326
 2654TIP3    H229378   5.374   0.871  16.258 -0.1314  0.5908  1.1948
 2655TIP3   OH229379   6.102   1.134   3.888 -0.2822  0.2117 -0.0110
 2655TIP3    H129380   6.107   1.039   3.877  1.3519  0.4148 -1.2976
 2655TIP3    H229381   6.180   1.157   3.937 -0.7439  0.8853  0.4146
 2656TIP3   OH229382   3.296   6.654   4.994 -0.2188  0.1715 -0.1660
 2656TIP3    H129383   3.353   6.721   5.032  0.2308  0.6430 -1.6337
 2656TIP3    H229384   3.217   6.655   5.048  0.3224  0.9700  0.6120
 2657TIP3   OH229385   6.025   1.469   1.026 -0.0726  0.2517  0.0969
 2657TIP3    H129386   5.942   1.487   1.069  0.8098  1.8398  1.1981
 2657TIP3    H229387   6.088   1.525   1.071  1.8338 -1.8247  0.1025
 2658TIP3   OH229388   4.905   2.535   1.708  0.0546 -0.1829 -0.4558
 2658TIP3    H129389   4.830   2.571   1.754 -0.6551  0.2982 -1.9790
 2658TIP3    H229390   4.949   2.611   1.669  0.1310 -0.6673 -1.3322
 2659TIP3   OH229391   0.051   2.063  15.129 -0.0089  0.7701 -0.5226
 2659TIP3    H129392   0.052   1.970  15.151  1.2598  0.4152 -2.0179
 2659TIP3    H229393   0.050   2.107  15.214  0.9373 -0.6004  0.2191
 2660TIP3   OH229394   1.147   2.350  12.919 -0.0400 -0.1449 -0.2904
 2660TIP3    H129395   1.132   2.391  13.004  0.0777  0.3362 -0.5040
 2660TIP3    H229396   1.204   2.275  12.939 -0.2308 -0.1873  0.0917
 2661TIP3   OH229397   0.755   0.444   0.590 -0.2780 -0.2187  0.5002
 2661TIP3    H129398   0.760   0.439   0.495  1.8449  1.4538  0.4686
 2661TIP3    H229399   0.693   0.515   0.607  0.8571  0.8544  0.2902
 2662TIP3   OH229400   3.494   4.246  14.092  0.3384 -0.4573 -0.1078
 2662TIP3    H129401   3.462   4.251  14.182 -0.3323 -1.4924 -0.2769
 2662TIP3    H229402   3.544   4.164  14.090  1.6096  0.3216 -0.2867
 2663TIP3   OH229403   2.175   5.724  12.709 -0.2162  0.1359 -0.0119
 2663TIP3    H129404   2.192   5.648  12.653  1.7000  0.7223 -0.2558
 2663TIP3    H229405   2.177   5.799  12.650  0.9079  0.6719  0.6940
 2664TIP3   OH229406   6.110   0.789   2.218  0.0219 -0.4072  0.3585
 2664TIP3    H129407   6.120   0.881   2.193 -1.5102 -0.4856 -0.5678
 2664TIP3    H229408   6.040   0.756   2.162  0.6307 -2.1781  0.6043
 2665TIP3   OH229409   2.840   5.429  14.320 -0.1623  0.5853 -0.6034
 2665TIP3    H129410   2.778   5.452  14.389 -0.0358  1.5673 -0.8174
 2665TIP3    H229411   2.838   5.503  14.259  1.9627  1.0961 -0.0993
 2666TIP3   OH229412   3.759   5.089   3.553 -0.3867 -0.3062  0.4022
 2666TIP3    H129413   3.711   5.077   3.635  0.1115 -0.2973  0.6968
 2666TIP3    H229414   3.718   5.165   3.512 -0.6473 -0.3193  0.6375
 2667TIP3   OH229415   3.230   0.797   3.429  0.0336  0.6125  0.5078
 2667TIP3    H129416   3.241   0.887   3.458  0.2167  0.5111  0.7601
 2667TIP3    H229417   3.146   0.770   3.466  0.0738  0.6149  0.6011
 2668TIP3   OH229418   2.109   5.725  11.635  0.4147 -0.0284  0.5727
 2668TIP3    H129419   2.180   5.785  11.654 -0.0822  0.2318  1.6500
 2668TIP3    H229420   2.151   5.640  11.623  1.0094  0.3324  0.1172
 2669TIP3   OH229421   3.691   0.533   5.345 -0.2890  0.4143  0.4904
 2669TIP3    H129422   3.762   0.555   5.406 -0.3898  0.0659  0.7307
 2669TIP3    H229423   3.695   0.603   5.279  1.3233 -0.4643 -0.3943
 2670TIP3   OH229424   2.618   3.719   1.338  0.2861  0.6830  0.6499
 2670TIP3    H129425   2.592   3.657   1.270  0.5588  0.9803  0.2708
 2670TIP3    H229426   2.685   3.773   1.297 -1.0689  2.2620  0.4572
 2671TIP3   OH229427   3.695   2.312   0.425  0.0073 -0.1495  0.4285
 2671TIP3    H129428   3.704   2.277   0.336  2.1289  2.0419 -0.2878
 2671TIP3    H229429   3.637   2.388   0.415 -0.3334 -0.3341  1.0238
 2672TIP3   OH229430   2.474   2.025  14.607  0.3664  0.5004 -0.0377
 2672TIP3    H129431   2.510   2.016  14.519  1.2308  2.3825  0.0868
 2672TIP3    H229432   2.450   2.117  14.614 -1.5757 -0.0602  1.0058
 2673TIP3   OH229433   0.403   1.684  11.942  0.2038  0.0791  0.0172
 2673TIP3    H129434   0.363   1.771  11.952  0.4579  0.0768  1.1437
 2673TIP3    H229435   0.360   1.647  11.865 -0.3196  0.9822 -0.1385
 2674TIP3   OH229436   4.533   2.117  16.218  0.1051 -0.0751  0.0609
 2674TIP3    H129437   4.573   2.079  16.297 -1.7763 -1.5584  0.3352
 2674TIP3    H229438   4.503   2.042  16.168 -1.0541  0.9511 -0.8109
 2675TIP3   OH229439   1.922   5.472  16.923 -0.1002 -0.4994  0.0640
 2675TIP3    H129440   1.963   5.493  16.839  0.8782  0.9809  0.8801
 2675TIP3    H229441   1.994   5.441  16.978 -0.0799  1.8053  1.4039
 2676TIP3   OH229442   0.776   0.856   4.047 -0.1900 -0.1735  0.4886
 2676TIP3    H129443   0.727   0.874   3.966 -0.3811  1.3891  0.9256
 2676TIP3    H229444   0.849   0.918   4.044  0.5225 -0.9825  0.9086
 2677TIP3   OH229445   6.046   5.837  14.428 -0.1485  0.0145 -0.2851
 2677TIP3    H129446   6.045   5.743  14.410 -0.9076 -0.3876  1.7680
 2677TIP3    H229447   5.967   5.870  14.386  0.4977 -0.1252 -1.6391
 2678TIP3   OH229448   1.846   2.958  10.873 -0.3288 -0.0102  0.2926
 2678TIP3    H129449   1.841   3.026  10.941 -1.9845 -1.0164  1.2108
 2678TIP3    H229450   1.853   2.876  10.922 -1.7068 -0.7577 -0.7273
 2679TIP3   OH229451   3.015   3.062  14.450 -0.1380 -0.0950  0.4532
 2679TIP3    H129452   3.027   2.967  14.452 -1.9135 -0.3342  0.8686
 2679TIP3    H229453   2.928   3.076  14.488  0.3866  1.7511  1.0303
 2680TIP3   OH229454   6.005   4.858  13.616  0.5241 -0.4102  0.1677
 2680TIP3    H129455   6.092   4.817  13.610  0.6523 -0.5877  2.5832
 2680TIP3    H229456   5.998   4.884  13.707 -1.1696  1.4478 -0.4724
 2681TIP3   OH229457   5.713   1.494  15.032  0.3854 -0.2534 -0.4194
 2681TIP3    H129458   5.712   1.428  14.963 -0.7889 -0.5112 -0.1602
 2681TIP3    H229459   5.621   1.511  15.051  0.6910  0.0050  0.8952
 2682TIP3   OH229460   1.919   0.689   3.982  0.0041  0.3029 -0.1108
 2682TIP3    H129461   1.905   0.765   3.925 -0.3405  0.4405  0.1517
 2682TIP3    H229462   1.885   0.615   3.932 -0.1759  0.4029 -0.1366
 2683TIP3   OH229463   0.606   2.543   3.861  0.1852  0.0865 -0.4537
 2683TIP3    H129464   0.644   2.620   3.904  0.0227 -0.2456  0.2904
 2683TIP3    H229465   0.677   2.479   3.858  0.0180 -0.1190 -0.0984
 2684TIP3   OH229466   5.177   3.487   6.191 -0.0791 -0.1740 -0.3321
 2684TIP3    H129467   5.193   3.524   6.104  0.0234  0.2722 -0.1188
 2684TIP3    H229468   5.235   3.411   6.196  2.1066  1.5045  0.4982
 2685TIP3   OH229469   3.258   2.265   2.722  0.1145  0.1350  0.5765
 2685TIP3    H129470   3.287   2.242   2.810  0.6903  2.9619  1.1798
 2685TIP3    H229471   3.320   2.332   2.693 -1.8105  1.3757 -0.8087
 2686TIP3   OH229472   5.349   0.040   3.929  0.0840  0.1983 -0.0873
 2686TIP3    H129473   5.374   0.104   3.862  1.8852 -1.2409 -0.8330
 2686TIP3    H229474   5.425   0.035   3.986 -0.2434 -0.9047  0.2514
 2687TIP3   OH229475   3.617   4.522  14.570  0.7616  0.0084 -0.5211
 2687TIP3    H129476   3.662   4.486  14.493  0.8435  0.6254 -0.7618
 2687TIP3    H229477   3.524   4.518  14.547  0.8362  1.0470 -1.0269
 2688TIP3   OH229478   2.517   4.725   2.024  0.1981 -0.2073  0.0834
 2688TIP3    H129479   2.431   4.744   2.062 -0.3733 -3.3491  0.5381
 2688TIP3    H229480   2.579   4.760   2.087 -0.7690 -1.1994  1.6326
 2689TIP3   OH229481   5.481   2.192  17.213  0.1573 -0.7451 -0.5035
 2689TIP3    H129482   5.530   2.254  17.158  0.7269  0.2002  1.0564
 2689TIP3    H229483   5.522   2.107  17.195  1.4537 -0.1812 -0.2626
 2690TIP3   OH229484   6.025   0.297  15.537  0.0033  0.2459  0.3158
 2690TIP3    H129485   5.955   0.231  15.548  3.3104 -3.2039  1.9630
 2690TIP3    H229486   6.032   0.338  15.623 -0.0999  0.7492  0.0859
 2691TIP3   OH229487   2.314   4.890   3.329  0.2420 -0.3612 -0.5734
 2691TIP3    H129488   2.354   4.815   3.285  0.3851 -0.6234  0.0076
 2691TIP3    H229489   2.305   4.864   3.420  0.2963  0.3288 -0.3630
 2692TIP3   OH229490   0.351   3.077   4.516 -0.0061  0.0753  0.2719
 2692TIP3    H129491   0.315   3.126   4.442 -0.6232 -1.2860 -0.3458
 2692TIP3    H229492   0.355   3.140   4.587  1.4919  1.6647 -1.1674
 2693TIP3   OH229493   6.066   3.457  13.404 -0.4309  0.0011 -0.2010
 2693TIP3    H129494   5.971   3.468  13.394 -0.2151  1.2390 -0.8994
 2693TIP3    H229495   6.081   3.466  13.498 -0.9065  0.5145 -0.1735
 2694TIP3   OH229496   6.220   4.251  12.030  0.3272  0.1449 -0.0424
 2694TIP3    H129497   6.271   4.285  12.104 -0.4953  0.1199  0.5335
 2694TIP3    H229498   6.272   4.276  11.953  0.5791  1.2329  0.4670
 2695TIP3   OH229499   0.755   6.255  14.075  0.0776 -0.2440  0.1578
 2695TIP3    H129500   0.823   6.322  14.072  0.0291 -0.1109  1.8056
 2695TIP3    H229501   0.789   6.189  14.135 -0.9904 -0.4615  0.5414
 2696TIP3   OH229502   5.426   2.108   4.403  0.3126 -0.0080  0.0167
 2696TIP3    H129503   5.451   2.054   4.477  0.6541 -1.4464 -1.1221
 2696TIP3    H229504   5.383   2.184   4.442 -0.6202 -1.3262  1.6394
 2697TIP3   OH229505   1.834   3.653   2.091  0.0732 -0.3841  0.1794
 2697TIP3    H129506   1.903   3.719   2.091  2.3992 -2.7577 -0.0947
 2697TIP3    H229507   1.799   3.656   2.180  0.1083  1.2277  0.1618
 2698TIP3   OH229508   3.043   0.264   4.046  0.2806  0.6174  0.2572
 2698TIP3    H129509   3.053   0.322   3.970 -2.0607  1.2033  0.3582
 2698TIP3    H229510   3.132   0.250   4.077  1.2936  0.3434 -2.6188
 2699TIP3   OH229511   2.305   6.017  13.480 -0.6097 -0.6057 -0.3666
 2699TIP3    H129512   2.390   6.027  13.438  0.2539 -0.4363  1.3841
 2699TIP3    H229513   2.316   5.943  13.540 -1.6849 -0.5584 -0.0905
 2700TIP3   OH229514   3.955   1.731  14.326 -0.3030 -0.5008  0.6918
 2700TIP3    H129515   3.963   1.704  14.235  0.4234  0.3374  0.5096
 2700TIP3    H229516   4.043   1.724  14.362 -0.6371 -1.1016  1.4096
 2701TIP3   OH229517   1.603   5.471  14.952  0.5160  0.2395 -0.0250
 2701TIP3    H129518   1.567   5.485  15.039  0.1338  0.9050 -0.2901
 2701TIP3    H229519   1.621   5.377  14.949 -0.2549  0.0725  0.4667
 2702TIP3   OH229520   5.917   5.039   2.615  0.1177  0.0198 -0.3208
 2702TIP3    H129521   5.948   4.958   2.657 -2.0663 -0.4552  0.4355
 2702TIP3    H229522   5.894   5.096   2.688  0.7808  0.9879 -0.8642
 2703TIP3   OH229523   0.465   1.449   5.749  0.0125 -0.3220  0.0286
 2703TIP3    H129524   0.493   1.358   5.760  0.7557 -0.0174  0.7098
 2703TIP3    H229525   0.406   1.465   5.823  1.6885  0.4364  1.2487
 2704TIP3   OH229526   5.745   4.881   0.637  0.1935 -0.2862 -0.4955
 2704TIP3    H129527   5.664   4.856   0.592 -0.3522  1.2779 -0.3913
 2704TIP3    H229528   5.755   4.815   0.706 -0.9372 -0.5414 -0.5640
 2705TIP3   OH229529   0.313   6.161   4.883  0.0039 -0.2328  0.3715
 2705TIP3    H129530   0.268   6.076   4.882 -0.3918 -0.0200 -0.3045
 2705TIP3    H229531   0.399   6.142   4.920 -0.9193 -0.5070  2.4750
 2706TIP3   OH229532   4.169   3.790  11.338 -0.8092 -0.3377  0.1938
 2706TIP3    H129533   4.128   3.739  11.268 -0.9377  0.9180 -0.6705
 2706TIP3    H229534   4.248   3.827  11.298  0.0953 -1.0656  1.2521
 2707TIP3   OH229535   6.514   4.282  11.923  0.2899 -0.1602  0.0935
 2707TIP3    H129536   6.537   4.356  11.979 -1.8399  0.5532  0.0583
 2707TIP3    H229537   6.598   4.250  11.890  1.3400  1.2719  1.3255
 2708TIP3   OH229538   4.343   3.324  16.996 -0.1100  0.6663 -0.0238
 2708TIP3    H129539   4.371   3.409  17.031  0.7256 -0.0680  1.0875
 2708TIP3    H229540   4.424   3.273  16.987 -0.9744 -1.2221  2.5397
 2709TIP3   OH229541   5.805   2.101   0.172  0.0309  0.0926  0.2117
 2709TIP3    H129542   5.836   2.018   0.134  0.0497  0.1864  0.0202
 2709TIP3    H229543   5.878   2.161   0.160  0.6751 -0.3267  1.9189
 2710TIP3   OH229544   6.008   2.157  13.853 -0.4842  0.0540 -0.0891
 2710TIP3    H129545   5.982   2.223  13.917  1.4381 -0.1451  0.9265
 2710TIP3    H229546   5.948   2.084  13.868 -0.6660  0.3844  0.8327
 2711TIP3   OH229547   3.386   4.062  15.106  0.0597 -0.6310 -0.2776
 2711TIP3    H129548   3.481   4.062  15.094  0.1108  0.6649  0.0376
 2711TIP3    H229549   3.372   4.012  15.186  0.4430 -1.1237 -0.5106
 2712TIP3   OH229550   3.270   2.952  11.918 -0.1360  0.0477  0.0964
 2712TIP3    H129551   3.182   2.980  11.943 -0.5384 -0.1019 -1.1313
 2712TIP3    H229552   3.260   2.918  11.829  1.0836 -0.3704  0.1118
 2713TIP3   OH229553   4.716   4.638  11.757  0.4905  0.0847 -0.0307
 2713TIP3    H129554   4.789   4.692  11.729  0.5442 -1.1582 -2.4441
 2713TIP3    H229555   4.639   4.694  11.747  0.6190 -0.0429 -1.9002
 2714TIP3   OH229556   2.183   2.252   0.328  0.2390 -0.7046 -0.6140
 2714TIP3    H129557   2.207   2.307   0.254  0.4902  0.5980  0.4131
 2714TIP3    H229558   2.091   2.231   0.315  0.3163 -0.5881 -1.3529
 2715TIP3   OH229559   1.533   0.320  16.822  0.6589  0.4584  0.6665
 2715TIP3    H129560   1.585   0.388  16.781 -0.0033  1.6488  1.7344
 2715TIP3    H229561   1.586   0.240  16.815  1.5330  1.1256 -0.4013
 2716TIP3   OH229562   5.220   6.015   5.302 -0.3715  0.5394  0.2378
 2716TIP3    H129563   5.270   5.939   5.332  0.4157  0.5120 -1.1104
 2716TIP3    H229564   5.129   5.988   5.309 -0.0963 -0.5303 -0.2253
 2717TIP3   OH229565   3.390   3.115  13.907  0.3522  0.4933  1.1419
 2717TIP3    H129566   3.478   3.147  13.928  0.3642  0.7900  0.6425
 2717TIP3    H229567   3.398   3.076  13.820 -0.1233  0.9682  0.8829
 2718TIP3   OH229568   6.537   4.496  14.578 -0.4873 -0.0628 -0.3563
 2718TIP3    H129569   6.570   4.578  14.541  1.1614  0.5642  2.3543
 2718TIP3    H229570   6.448   4.517  14.607 -0.2103  0.6836 -0.0225
 2719TIP3   OH229571   4.777   5.086   5.742  0.0008 -0.0388  0.1939
 2719TIP3    H129572   4.856   5.138   5.757  0.4045 -0.5818 -0.0187
 2719TIP3    H229573   4.809   5.003   5.705 -0.7587  0.2397 -1.1254
 2720TIP3   OH229574   0.126   0.844   3.252 -0.4623  0.8972 -0.0449
 2720TIP3    H129575   0.043   0.874   3.288 -0.6342  0.8683 -0.4152
 2720TIP3    H229576   0.102   0.794   3.174 -0.2653 -1.0361  1.0951
 2721TIP3   OH229577   6.499   6.060   3.234  0.0700  0.3897 -0.5189
 2721TIP3    H129578   6.558   6.118   3.187  0.5570 -0.9258 -1.5709
 2721TIP3    H229579   6.431   6.038   3.170 -0.9995  1.0639  0.3573
 2722TIP3   OH229580   2.757   6.689   3.874 -0.2501  0.1390 -0.5227
 2722TIP3    H129581   2.682   6.703   3.817  2.0123  1.8246 -3.2623
 2722TIP3    H229582   2.761   6.768   3.929 -0.9306 -0.3240  0.2025
 2723TIP3   OH229583   5.009   2.986   1.347 -0.3371 -0.1343 -0.3566
 2723TIP3    H129584   4.948   3.034   1.291 -2.3640 -1.8606  0.2775
 2723TIP3    H229585   5.026   2.905   1.300  0.8447  0.0001 -0.1561
 2724TIP3   OH229586   6.748   2.616   0.402 -0.0513 -0.0093  0.3013
 2724TIP3    H129587   6.741   2.557   0.327  0.5410  0.7385 -0.3577
 2724TIP3    H229588   6.742   2.704   0.364  0.5797  0.3792  1.0886
 2725TIP3   OH229589   2.694   2.837   2.471 -0.6500 -0.2224  0.2880
 2725TIP3    H129590   2.747   2.892   2.529 -0.3594  0.7118 -0.8272
 2725TIP3    H229591   2.605   2.872   2.479 -0.7429 -0.5538  0.7097
 2726TIP3   OH229592   5.647   4.612   5.412  0.0025  0.4880 -0.1872
 2726TIP3    H129593   5.682   4.536   5.365 -2.8065  0.3304 -2.1454
 2726TIP3    H229594   5.653   4.588   5.504  0.1308 -1.6707 -0.7202
 2727TIP3   OH229595   0.709   6.422   4.969  0.1728  0.4957 -0.3420
 2727TIP3    H129596   0.750   6.493   4.919  1.0680  1.3587  1.5704
 2727TIP3    H229597   0.660   6.466   5.038 -0.1361 -0.7036  0.2128
 2728TIP3   OH229598   6.301   2.597  14.812  0.5740  0.2516 -0.8289
 2728TIP3    H129599   6.391   2.622  14.832  0.4298 -0.6382  1.1005
 2728TIP3    H229600   6.290   2.512  14.855 -0.8585 -0.1613 -1.9597
 2729TIP3   OH229601   4.835   6.453  12.345 -0.4947 -0.0929 -0.1938
 2729TIP3    H129602   4.779   6.467  12.268  0.2710 -0.1870 -0.7696
 2729TIP3    H229603   4.909   6.512  12.332 -0.8338  0.6019  0.9548
 2730TIP3   OH229604   5.899   4.519   2.702  0.2398  0.1654 -0.2022
 2730TIP3    H129605   5.988   4.512   2.666 -0.1204 -2.1069 -0.7177
 2730TIP3    H229606   5.910   4.506   2.796  0.6399  1.5821 -0.0434
 2731TIP3   OH229607   4.978   3.867   2.926  0.1525  0.0957  0.0778
 2731TIP3    H129608   5.071   3.871   2.949  0.0546  0.7122  0.4016
 2731TIP3    H229609   4.956   3.957   2.902 -1.2352  0.7849  3.5632
 2732TIP3   OH229610   4.702   0.935  16.011 -0.4981 -0.1380  0.0064
 2732TIP3    H129611   4.779   0.981  16.045 -1.3042  0.9504  0.3674
 2732TIP3    H229612   4.732   0.896  15.929  0.1587  1.1678 -0.3904
 2733TIP3   OH229613   0.767   0.590  16.243  0.8783  0.0018  0.5971
 2733TIP3    H129614   0.817   0.632  16.173  0.1104 -1.0169 -0.5842
 2733TIP3    H229615   0.682   0.634  16.240  0.3262 -1.0961 -0.1438
 2734TIP3   OH229616   3.653   0.593   3.462  0.4529  0.5127 -0.0729
 2734TIP3    H129617   3.712   0.668   3.445 -2.5447  3.1274  0.6330
 2734TIP3    H229618   3.617   0.572   3.376 -0.2611  1.2486  0.0409
 2735TIP3   OH229619   6.270   3.146   0.493  0.0583  0.2881  0.5716
 2735TIP3    H129620   6.275   3.224   0.438  0.7236  0.4686  0.8764
 2735TIP3    H229621   6.275   3.073   0.432  0.6630  0.4857  0.3796
 2736TIP3   OH229622   5.786   4.269   3.471 -0.0644  0.5041  0.1962
 2736TIP3    H129623   5.765   4.307   3.557 -0.6244  0.0329  0.2721
 2736TIP3    H229624   5.755   4.335   3.408 -1.2401  0.0835  0.3233
 2737TIP3   OH229625   1.907   0.012  14.840 -0.3899 -0.2365  0.0767
 2737TIP3    H129626   1.976  -0.051  14.861  0.1273  0.1763 -0.3868
 2737TIP3    H229627   1.864   0.029  14.924 -0.1860 -0.7917  0.2963
 2738TIP3   OH229628   2.489   0.083  13.798 -0.0385 -0.1732  0.6418
 2738TIP3    H129629   2.427   0.047  13.863  1.3413 -1.3381  1.3396
 2738TIP3    H229630   2.441   0.080  13.715 -1.1549 -0.4326  1.2807
 2739TIP3   OH229631   6.159   6.162  12.500 -0.4536 -0.3759 -0.3789
 2739TIP3    H129632   6.216   6.143  12.575 -1.7553  0.2334  0.7726
 2739TIP3    H229633   6.081   6.109  12.515 -2.1618  2.2538  0.4910
 2740TIP3   OH229634   1.312   3.708   2.937  0.1328  0.0642  0.2367
 2740TIP3    H129635   1.249   3.720   2.866 -0.6994 -0.0745  0.9300
 2740TIP3    H229636   1.267   3.649   2.998  0.2952  1.2305  1.5034
 2741TIP3   OH229637   2.028   3.848  14.482  0.0898 -0.7427  0.8268
 2741TIP3    H129638   2.018   3.938  14.450  1.7485  0.1697  2.7432
 2741TIP3    H229639   1.956   3.800  14.442 -0.0065  1.1377 -1.3187
 2742TIP3   OH229640   3.294   1.038  12.140 -0.5551 -0.4675 -0.0093
 2742TIP3    H129641   3.371   1.000  12.098 -0.5249 -0.8264  0.3718
 2742TIP3    H229642   3.293   1.001  12.228  0.6230  1.9970  1.0615
 2743TIP3   OH229643   5.459   5.517   1.865  0.7748  0.1565  0.2288
 2743TIP3    H129644   5.422   5.554   1.785  0.6624 -0.6573 -0.1006
 2743TIP3    H229645   5.541   5.476   1.838  1.0240  0.3785  0.6360
 2744TIP3   OH229646   1.413   4.853   1.186  0.2334 -1.2371 -0.4539
 2744TIP3    H129647   1.399   4.892   1.099  1.4461  1.8089  0.6571
 2744TIP3    H229648   1.504   4.823   1.184  0.4295 -0.6795 -0.0750
 2745TIP3   OH229649   0.296   0.362  12.436  0.7810 -0.4108  0.6443
 2745TIP3    H129650   0.268   0.296  12.499 -1.6670 -1.9123 -1.8724
 2745TIP3    H229651   0.316   0.313  12.356 -0.5526  1.7822 -1.1356
 2746TIP3   OH229652   5.390   1.548   0.480  0.0136 -0.4065  0.2583
 2746TIP3    H129653   5.445   1.622   0.456  0.1208 -0.3745  0.6071
 2746TIP3    H229654   5.345   1.575   0.560 -2.1227  0.4073 -1.1559
 2747TIP3   OH229655   5.542   6.275   3.343  0.5087 -0.0274  0.1517
 2747TIP3    H129656   5.625   6.238   3.314  0.7444 -1.3045  2.3342
 2747TIP3    H229657   5.564   6.362   3.375  1.0894 -0.4925  1.0376
 2748TIP3   OH229658   4.346   6.015   2.413 -0.2591 -0.1674  0.1988
 2748TIP3    H129659   4.372   6.106   2.401 -1.2586 -0.3165 -3.7528
 2748TIP3    H229660   4.251   6.016   2.407 -0.1694 -1.7126 -2.1002
 2749TIP3   OH229661   3.009   3.457   1.671  0.7646  0.4515 -0.1012
 2749TIP3    H129662   3.003   3.530   1.733 -0.0866  1.2043 -1.0427
 2749TIP3    H229663   3.095   3.468   1.630  0.1812  1.6092 -1.0496
 2750TIP3   OH229664   6.224   3.025  13.725 -0.3604 -0.3676  0.4394
 2750TIP3    H129665   6.313   3.012  13.757 -0.3346 -0.9375  0.1315
 2750TIP3    H229666   6.232   3.024  13.629 -0.4263  1.3817  0.3896
 2751TIP3   OH229667   3.816   6.132  17.206 -0.2257 -0.2294 -0.0781
 2751TIP3    H129668   3.721   6.136  17.196 -0.1103  1.1406 -0.7866
 2751TIP3    H229669   3.841   6.219  17.238  1.0938  0.5542 -2.9976
 2752TIP3   OH229670   3.747   4.997  10.506 -0.6712 -0.3112 -0.2851
 2752TIP3    H129671   3.747   5.052  10.428 -0.3195  0.5404  0.2997
 2752TIP3    H229672   3.821   4.939  10.495 -0.2456  0.2313 -0.3004
 2753TIP3   OH229673   5.819   1.175  11.169  0.2222 -0.0545 -0.3233
 2753TIP3    H129674   5.736   1.223  11.165 -0.1686 -0.7578 -0.8449
 2753TIP3    H229675   5.883   1.239  11.198 -0.7828  0.1377  1.5219
 2754TIP3   OH229676   3.706   2.102  14.393  0.6398  1.0704  0.1629
 2754TIP3    H129677   3.745   2.189  14.390 -1.7263  2.1472 -1.0164
 2754TIP3    H229678   3.636   2.109  14.459 -0.8438  0.6558 -1.3308
 2755TIP3   OH229679   2.809   3.058  11.069  0.3023  0.7814 -0.5599
 2755TIP3    H129680   2.889   3.065  11.018  0.9618 -1.6780  0.0604
 2755TIP3    H229681   2.838   3.037  11.158 -1.0173 -0.1355 -0.3268
 2756TIP3   OH229682   6.229   0.278  12.949 -0.2676 -0.7964 -0.2588
 2756TIP3    H129683   6.187   0.192  12.947  1.4213 -1.6483 -1.4280
 2756TIP3    H229684   6.294   0.272  13.019  0.7703 -0.9591 -1.2115
 2757TIP3   OH229685   3.410   1.298  12.850  0.2394 -0.2976  0.4605
 2757TIP3    H129686   3.363   1.235  12.795  1.7274 -0.9930 -0.0513
 2757TIP3    H229687   3.391   1.270  12.939 -1.8924  0.6129  0.3129
 2758TIP3   OH229688   4.899   2.719  13.163 -0.1521 -0.2040 -0.1087
 2758TIP3    H129689   4.939   2.789  13.112 -0.0933 -0.6905 -0.7361
 2758TIP3    H229690   4.945   2.721  13.247 -1.3897  1.6872  0.5490
 2759TIP3   OH229691   3.276   0.505   5.598 -0.2447 -0.3296 -0.1273
 2759TIP3    H129692   3.353   0.562   5.597 -0.3221 -0.2326 -0.4215
 2759TIP3    H229693   3.235   0.517   5.513 -0.4043 -0.6337 -0.0966
 2760TIP3   OH229694   4.896   6.020  14.656  0.5277  0.0721 -0.4475
 2760TIP3    H129695   4.809   6.017  14.617  0.7036 -0.5180 -0.8100
 2760TIP3    H229696   4.956   6.011  14.582  0.8802 -0.3019 -0.1187
 2761TIP3   OH229697   4.440   5.690  15.254 -0.4515 -0.5494 -0.3528
 2761TIP3    H129698   4.349   5.681  15.225 -0.0986  0.2368 -1.7384
 2761TIP3    H229699   4.474   5.600  15.255 -1.5332 -0.9643  1.2092
 2762TIP3   OH229700   6.670   0.821   2.205 -0.1446  0.1368  0.7723
 2762TIP3    H129701   6.742   0.822   2.268 -0.7573  1.1456  1.4915
 2762TIP3    H229702   6.688   0.895   2.147 -1.4261  1.3992  1.9469
 2763TIP3   OH229703   4.499   4.195   4.168  0.4342 -0.5499 -0.1812
 2763TIP3    H129704   4.526   4.138   4.239  0.6519  0.0922  0.2584
 2763TIP3    H229705   4.409   4.222   4.190  0.7309  0.1596  0.1869
 2764TIP3   OH229706   1.332   3.252  16.127 -0.2363  0.3152  0.0301
 2764TIP3    H129707   1.381   3.306  16.190 -0.0618  0.4860 -0.2518
 2764TIP3    H229708   1.241   3.276  16.142 -0.4353 -1.5500  2.0401
 2765TIP3   OH229709   1.635   1.165  11.862 -0.7772 -0.3290  0.2248
 2765TIP3    H129710   1.600   1.179  11.949  0.3041  1.8268  0.3325
 2765TIP3    H229711   1.574   1.209  11.803 -0.4616 -0.1099  0.0582
 2766TIP3   OH229712   5.704   3.308  10.530 -0.0015  0.3266  0.3513
 2766TIP3    H129713   5.769   3.379  10.532  0.1362  0.1901  0.9482
 2766TIP3    H229714   5.750   3.233  10.493  0.5134 -0.0876  1.8071
 2767TIP3   OH229715   6.485   3.527   4.536  0.7929  0.4227 -0.0968
 2767TIP3    H129716   6.546   3.546   4.606 -0.5796  0.3704  1.1423
 2767TIP3    H229717   6.435   3.452   4.567  0.9793 -0.3733 -1.6514
 2768TIP3   OH229718   5.944   3.077   4.414  0.2709 -0.2188  0.0984
 2768TIP3    H129719   5.987   3.027   4.345  0.8258 -0.2221  0.4398
 2768TIP3    H229720   5.984   3.164   4.409 -0.1601 -0.0260 -0.0138
 2769TIP3   OH229721   0.805   3.734   3.532  0.0913  0.0178 -0.0752
 2769TIP3    H129722   0.891   3.769   3.510 -0.2816  0.9613 -0.0500
 2769TIP3    H229723   0.804   3.646   3.496  0.6729  0.3949 -1.0053
 2770TIP3   OH229724   4.900   6.045   1.549  0.5574 -0.3629 -0.0845
 2770TIP3    H129725   4.936   6.105   1.483  0.0032 -2.2619 -2.1714
 2770TIP3    H229726   4.975   5.992   1.576  0.6376 -0.0564  0.2996
 2771TIP3   OH229727   6.700   2.234   2.938 -0.0031  0.3867  0.0945
 2771TIP3    H129728   6.653   2.310   2.972 -0.5601 -1.0049  2.5949
 2771TIP3    H229729   6.791   2.247   2.968  0.6354  1.7099 -2.3626
 2772TIP3   OH229730   4.747   6.327  14.014  0.0666  0.3144  0.5237
 2772TIP3    H129731   4.775   6.342  14.104  0.7714  0.5553  0.2695
 2772TIP3    H229732   4.769   6.236  13.997  0.8196  0.5292  0.2917
 2773TIP3   OH229733   0.243   0.014   5.951  0.0058  0.1668  0.1152
 2773TIP3    H129734   0.317   0.043   5.897  0.0760  0.7664  0.5425
 2773TIP3    H229735   0.279  -0.057   6.005 -0.1010 -0.5394 -0.7246
 2774TIP3   OH229736   2.453   3.854   0.179 -0.4259 -0.2151  0.6182
 2774TIP3    H129737   2.475   3.850   0.272 -0.4533  0.8329  0.6799
 2774TIP3    H229738   2.505   3.927   0.146  0.3759 -1.2478 -0.4156
 2775TIP3   OH229739   4.895   3.815   2.495 -0.1035  0.3350 -0.4974
 2775TIP3    H129740   4.851   3.897   2.476 -1.2201 -0.6037 -2.0376
 2775TIP3    H229741   4.838   3.771   2.558  0.8191  1.0121  0.8269
 2776TIP3   OH229742   6.776   4.013  15.046 -0.1899 -0.1791  0.6397
 2776TIP3    H129743   6.767   3.985  14.956  1.6258  0.3839  0.2466
 2776TIP3    H229744   6.746   3.939  15.098  1.0907 -1.4635 -0.4149
 2777TIP3   OH229745   1.161   3.393  11.635 -0.1280  0.2222  0.1370
 2777TIP3    H129746   1.133   3.399  11.543  1.3628  2.7671 -0.2213
 2777TIP3    H229747   1.134   3.477  11.673  1.0999  0.0247  1.4818
 2778TIP3   OH229748   5.163   2.202   0.298 -0.1033  0.0511 -0.2306
 2778TIP3    H129749   5.080   2.179   0.338 -2.1130  1.9606 -3.0571
 2778TIP3    H229750   5.157   2.168   0.209  0.8744  2.7542 -1.3901
 2779TIP3   OH229751   6.019   0.820   4.615 -0.6476 -0.5517  0.7011
 2779TIP3    H129752   5.990   0.870   4.539  1.2371  0.6725  0.7556
 2779TIP3    H229753   5.977   0.863   4.690  0.2176  0.4085  0.6555
 2780TIP3   OH229754   6.289   5.072  16.784  0.5418 -0.7465 -0.1638
 2780TIP3    H129755   6.242   5.117  16.854  0.2870 -1.0809 -0.1193
 2780TIP3    H229756   6.329   5.142  16.732  1.3823 -0.5226  0.7793
 2781TIP3   OH229757   0.713   5.272   2.761 -0.0289 -0.1864  0.2029
 2781TIP3    H129758   0.724   5.350   2.706 -0.5582  0.7450  1.3858
 2781TIP3    H229759   0.696   5.201   2.700  1.6466  0.4040 -0.9815
 2782TIP3   OH229760   1.982   4.910   3.187 -0.3983  0.0978 -0.7216
 2782TIP3    H129761   1.965   4.818   3.165 -0.4804  0.3253 -1.6360
 2782TIP3    H229762   1.919   4.930   3.256 -0.5360 -0.4691 -0.6782
 2783TIP3   OH229763   3.402   2.632   0.628 -0.0749 -0.2430 -0.5051
 2783TIP3    H129764   3.489   2.669   0.643 -0.0761 -0.0989 -0.8569
 2783TIP3    H229765   3.399   2.555   0.686 -0.8893  1.5206  1.8798
 2784TIP3   OH229766   5.542   2.870  11.052 -0.9688 -0.0581 -0.4817
 2784TIP3    H129767   5.479   2.939  11.034  0.5689  1.4052 -0.4736
 2784TIP3    H229768   5.592   2.861  10.971 -0.6397 -0.5969 -0.2220
 2785TIP3   OH229769   0.431   4.433  11.645  0.0594 -0.4045  0.3208
 2785TIP3    H129770   0.486   4.479  11.581  0.6754  1.4949  2.1493
 2785TIP3    H229771   0.460   4.342  11.640  1.8354  0.1627 -0.3576
 2786TIP3   OH229772   0.037   0.940   0.448 -0.4016  0.0715  0.6621
 2786TIP3    H129773   0.062   0.885   0.374 -2.9144  0.7602 -0.7459
 2786TIP3    H229774   0.056   0.886   0.525  0.6837 -1.2906 -0.5135
 2787TIP3   OH229775   0.077   5.025  14.711  0.0048  0.3991 -0.3346
 2787TIP3    H129776   0.148   5.059  14.765 -0.5080  0.3591  0.3656
 2787TIP3    H229777   0.005   5.087  14.723  0.3608  1.1871 -2.1188
 2788TIP3   OH229778   4.141   5.690   3.573  0.3090 -0.6508 -0.0293
 2788TIP3    H129779   4.162   5.644   3.492 -1.0588 -2.0172  0.3609
 2788TIP3    H229780   4.057   5.652   3.600 -0.2868  1.2898  0.8990
 2789TIP3   OH229781   6.281   0.291  15.352  0.0873 -0.0628 -0.4997
 2789TIP3    H129782   6.206   0.276  15.410 -0.5753  1.2952 -0.9819
 2789TIP3    H229783   6.349   0.231  15.384 -0.9214 -0.7199  0.4544
 2790TIP3   OH229784   0.856   2.307  10.757 -0.0482  0.0480 -0.5484
 2790TIP3    H129785   0.807   2.255  10.693 -2.6258  0.7917  0.7774
 2790TIP3    H229786   0.829   2.274  10.842 -1.4218  3.1879  0.3328
 2791TIP3   OH229787   1.938   5.321  13.214  0.5235 -0.4969  0.2198
 2791TIP3    H129788   1.971   5.374  13.286  1.3806 -1.2391  0.3924
 2791TIP3    H229789   2.001   5.336  13.143  1.6253 -2.3730  0.7345
 2792TIP3   OH229790   2.835   2.870  15.897 -0.2023 -0.5577  0.3518
 2792TIP3    H129791   2.748   2.838  15.871  0.1636  0.5694 -2.3557
 2792TIP3    H229792   2.896   2.825  15.839  0.8261  0.5224  0.5729
 2793TIP3   OH229793   1.007   1.447   2.233  0.5602  0.1046  0.3780
 2793TIP3    H129794   1.025   1.523   2.178  0.9774 -0.1266  0.1890
 2793TIP3    H229795   0.995   1.483   2.321  0.6307  0.4013  0.2673
 2794TIP3   OH229796   4.290   4.871   3.719 -0.2380  0.0108  0.4616
 2794TIP3    H129797   4.283   4.785   3.759  1.6466 -0.8434 -0.9703
 2794TIP3    H229798   4.370   4.867   3.666 -1.1257  2.0118 -1.1095
 2795TIP3   OH229799   4.871   3.286  12.983  0.0021  0.4029  0.4052
 2795TIP3    H129800   4.853   3.311  12.893 -1.2125 -0.1662  0.4808
 2795TIP3    H229801   4.922   3.358  13.019 -0.9502  1.4086 -0.2485
 2796TIP3   OH229802   1.436   2.729  11.438  0.2089 -0.0553 -0.2566
 2796TIP3    H129803   1.515   2.770  11.473 -0.6578  0.6885  0.8448
 2796TIP3    H229804   1.374   2.801  11.426 -0.7838 -0.8192  0.2084
 2797TIP3   OH229805   3.561   2.742   2.925 -0.6829 -0.8479 -0.0299
 2797TIP3    H129806   3.466   2.750   2.927 -0.6193 -0.1955  0.5816
 2797TIP3    H229807   3.578   2.660   2.879 -1.5605 -1.4044  0.6338
 2798TIP3   OH229808   4.166   3.531   1.694 -0.2040 -0.0071  0.1772
 2798TIP3    H129809   4.229   3.546   1.624 -0.5824  0.2105 -0.1215
 2798TIP3    H229810   4.080   3.546   1.653 -0.4881 -0.9603  0.4050
 2799TIP3   OH229811   4.954   1.009  12.195 -0.2029 -0.1280  0.2316
 2799TIP3    H129812   5.030   0.952  12.182  1.1264  1.7321 -0.2753
 2799TIP3    H229813   4.936   1.004  12.289 -0.0016 -1.2397  0.2213
 2800TIP3   OH229814   6.764   2.748  16.432 -0.4942 -0.1923 -0.4830
 2800TIP3    H129815   6.725   2.834  16.414 -1.7595 -0.6300  0.0946
 2800TIP3    H229816   6.689   2.689  16.440  0.3160 -1.1254  0.3085
 2801TIP3   OH229817   4.903   2.459   5.525 -0.4304 -0.2015  0.2366
 2801TIP3    H129818   4.859   2.415   5.452 -0.2529  0.7880 -0.4888
 2801TIP3    H229819   4.885   2.552   5.510 -0.0328  0.0322  1.2260
 2802TIP3   OH229820   4.134   6.546  12.733  0.0917 -0.1009  0.1210
 2802TIP3    H129821   4.105   6.464  12.772  0.6797  0.1613  1.1461
 2802TIP3    H229822   4.129   6.609  12.805  1.8475  0.2521 -0.0398
 2803TIP3   OH229823   6.307   2.858   3.495 -0.3130 -0.5718  0.2551
 2803TIP3    H129824   6.302   2.767   3.466  0.5816 -0.1935 -1.1150
 2803TIP3    H229825   6.316   2.852   3.590 -0.8995 -1.8893  0.2332
 2804TIP3   OH229826   1.480   0.382   1.124  0.2185  0.1396  0.4262
 2804TIP3    H129827   1.405   0.442   1.128  0.9392  1.2289 -1.6005
 2804TIP3    H229828   1.526   0.396   1.207 -0.3463  1.4334  0.5354
 2805TIP3   OH229829   6.459   2.121  15.072 -0.2977  0.2515 -0.1823
 2805TIP3    H129830   6.497   2.035  15.055  1.2291  0.8472  0.1605
 2805TIP3    H229831   6.517   2.182  15.026 -2.4783  0.9596 -2.1108
 2806TIP3   OH229832   0.102   2.876   3.146  0.3113 -0.1075 -0.0549
 2806TIP3    H129833   0.025   2.914   3.189  0.1074 -1.4266  0.7542
 2806TIP3    H229834   0.159   2.850   3.218  0.6123 -1.0149 -0.6190
 2807TIP3   OH229835   0.705   0.196   3.973  0.0087  0.0059  0.1120
 2807TIP3    H129836   0.704   0.156   3.886  0.9113 -0.8959  0.5213
 2807TIP3    H229837   0.618   0.179   4.008  0.1342 -0.9040 -0.0261
 2808TIP3   OH229838   6.261   4.520  14.664 -0.5574  0.1798  0.0864
 2808TIP3    H129839   6.272   4.602  14.713 -2.6179 -0.1040  1.0687
 2808TIP3    H229840   6.169   4.496  14.677 -0.9444 -0.4043 -3.1329
 2809TIP3   OH229841   0.543   3.880  14.189  0.4163  0.0099 -0.0785
 2809TIP3    H129842   0.454   3.854  14.166  0.4791 -1.1357  0.9642
 2809TIP3    H229843   0.534   3.924  14.274  0.8846 -0.4287  0.2023
 2810TIP3   OH229844   5.596   4.719   3.573  0.1176 -0.0583  0.3366
 2810TIP3    H129845   5.624   4.741   3.484 -0.0968 -2.4448 -0.3416
 2810TIP3    H229846   5.677   4.710   3.623  0.3128 -0.6135 -0.0806
 2811TIP3   OH229847   4.964   1.963   0.113 -0.4506 -0.3858  0.2375
 2811TIP3    H129848   5.028   2.016   0.066 -0.6629  0.6760  1.0914
 2811TIP3    H229849   5.016   1.910   0.174 -0.2517 -0.9842 -0.4508
 2812TIP3   OH229850   5.714   1.530   6.327 -0.2982  0.2747 -0.5724
 2812TIP3    H129851   5.724   1.622   6.302 -0.6706  0.7147  0.8575
 2812TIP3    H229852   5.693   1.533   6.420  2.3533 -1.3883  0.1020
 2813TIP3   OH229853   0.385   2.275   5.256 -0.4328 -0.0352 -0.0908
 2813TIP3    H129854   0.471   2.292   5.218  0.8587 -0.5228  2.5179
 2813TIP3    H229855   0.356   2.360   5.289  0.2416 -0.3730  1.3900
 2814TIP3   OH229856   2.215   0.518   3.107  0.3596  0.1649  0.0273
 2814TIP3    H129857   2.170   0.559   3.033 -0.6008  0.1356  0.5900
 2814TIP3    H229858   2.274   0.586   3.140  1.0217  0.0762 -0.9481
 2815TIP3   OH229859   6.107   6.300   3.867  0.8024  0.4950  0.3173
 2815TIP3    H129860   6.113   6.237   3.795  1.2737  0.0445  0.7475
 2815TIP3    H229861   6.045   6.366   3.836  0.5616 -0.0019 -0.2706
 2816TIP3   OH229862   5.885   0.435   1.947 -0.3868 -0.0007  0.0362
 2816TIP3    H129863   5.820   0.481   1.894 -0.7591 -0.2795  0.2443
 2816TIP3    H229864   5.833   0.383   2.008  0.0419  0.4539  0.7880
 2817TIP3   OH229865   0.511   3.563   2.509 -0.1037 -0.1987  0.2810
 2817TIP3    H129866   0.526   3.657   2.516  1.2638 -0.5782  3.5437
 2817TIP3    H229867   0.575   3.533   2.445  0.5725  0.8821  0.4247
 2818TIP3   OH229868   2.209   2.895  16.387 -0.0088  0.2510  0.9530
 2818TIP3    H129869   2.154   2.971  16.370 -0.1125  0.0853  0.5338
 2818TIP3    H229870   2.184   2.865  16.474 -1.1984 -0.3425  0.4128
 2819TIP3   OH229871   2.989   4.535  17.199 -1.0805 -0.0617  0.5038
 2819TIP3    H129872   3.039   4.513  17.278 -1.6398  0.0998  0.9013
 2819TIP3    H229873   2.906   4.568  17.232 -0.5394  1.9430 -0.1007
 2820TIP3   OH229874   5.130   3.987   5.128  0.4806  0.1295 -0.4979
 2820TIP3    H129875   5.116   3.919   5.194  2.3821  1.4791  1.3793
 2820TIP3    H229876   5.048   4.038   5.130  1.0809  1.0764  1.9879
 2821TIP3   OH229877   1.317   3.786   1.888 -0.3203  0.2369 -0.6575
 2821TIP3    H129878   1.253   3.826   1.948 -1.1076 -0.0634 -1.2887
 2821TIP3    H229879   1.263   3.741   1.823  0.5274  0.9070 -1.8266
 2822TIP3   OH229880   1.664   4.047  11.605 -0.3787  0.3069  0.6379
 2822TIP3    H129881   1.598   4.008  11.663 -0.7619  1.4773  0.9914
 2822TIP3    H229882   1.744   3.999  11.626 -1.6308 -3.0342 -1.7083
 2823TIP3   OH229883   4.121   1.449  13.265  0.3024 -0.6639  0.3153
 2823TIP3    H129884   4.157   1.516  13.324  0.4469  0.8323 -1.4356
 2823TIP3    H229885   4.026   1.457  13.275  0.3323 -0.8152  0.7577
 2824TIP3   OH229886   3.118   4.379  15.598  0.7949  0.1056 -0.3083
 2824TIP3    H129887   3.134   4.309  15.534 -3.0531 -0.7973 -0.4086
 2824TIP3    H229888   3.153   4.458  15.556  2.8794 -1.2707 -1.2983
 2825TIP3   OH229889   5.788   6.054  13.683  0.2204  0.3146  0.1668
 2825TIP3    H129890   5.812   6.010  13.602  0.2329  2.0408 -0.7978
 2825TIP3    H229891   5.862   6.039  13.742 -0.5528 -2.4541  0.5098
 2826TIP3   OH229892   1.625   3.756  15.227 -0.2130  0.3573  0.1510
 2826TIP3    H129893   1.573   3.683  15.260  0.3357 -0.5407 -0.9282
 2826TIP3    H229894   1.700   3.761  15.286 -1.6279  1.8221  1.8638
 2827TIP3   OH229895   6.311   2.466  14.275 -0.1331  0.6607  0.3166
 2827TIP3    H129896   6.297   2.477  14.369  2.0411  0.4306  0.6775
 2827TIP3    H229897   6.353   2.547  14.247  1.7028 -0.3381  0.0774
 2828TIP3   OH229898   1.485   6.318  10.561  0.0973  0.9796  0.2856
 2828TIP3    H129899   1.526   6.394  10.603 -0.4136  1.1244  0.5235
 2828TIP3    H229900   1.397   6.314  10.599 -0.0021  0.4834  0.0053
 2829TIP3   OH229901   0.620   4.427  17.035 -0.0180  0.0751 -0.0500
 2829TIP3    H129902   0.619   4.512  17.078  0.3530  0.4596 -0.7906
 2829TIP3    H229903   0.709   4.416  17.002 -0.5323  0.2228 -1.5390
 2830TIP3   OH229904   1.809   0.168  16.500  0.4424 -0.1314 -0.7955
 2830TIP3    H129905   1.800   0.083  16.456  1.2522 -0.8751  0.4417
 2830TIP3    H229906   1.721   0.204  16.501  0.1915 -0.6843 -1.8650
 2831TIP3   OH229907   1.929   6.208   0.794  0.0300 -0.3978  0.1253
 2831TIP3    H129908   1.898   6.133   0.743  1.2658 -0.5956 -0.3422
 2831TIP3    H229909   1.896   6.284   0.746  2.3263 -0.5414 -1.7629
 2832TIP3   OH229910   2.697   0.180  14.690  0.2010  0.2375  0.0802
 2832TIP3    H129911   2.620   0.195  14.635  0.4851  0.6663 -0.2050
 2832TIP3    H229912   2.761   0.141  14.631 -0.1628 -1.1254  0.5710
 2833TIP3   OH229913   0.154   4.395  12.130  0.4220 -0.1851 -0.3610
 2833TIP3    H129914   0.248   4.388  12.149  0.6832  1.9745 -0.7282
 2833TIP3    H229915   0.123   4.305  12.132  2.5748 -0.9751 -0.5694
 2834TIP3   OH229916   3.721   1.096  14.564 -0.4797  0.1040 -0.0289
 2834TIP3    H129917   3.712   1.006  14.532 -1.7531  0.3692 -0.4739
 2834TIP3    H229918   3.809   1.101  14.599 -1.1287 -1.9437  1.9512
 2835TIP3   OH229919   5.945   3.615   0.076  0.0055 -0.2256 -0.2211
 2835TIP3    H129920   5.969   3.584  -0.012 -2.2921  0.4709 -1.1439
 2835TIP3    H229921   5.854   3.588   0.086  0.2666 -0.3502  1.9977
 2836TIP3   OH229922   2.383   5.139  16.772  0.0057  0.0262  0.1639
 2836TIP3    H129923   2.432   5.071  16.725 -1.4284  0.7878 -2.5560
 2836TIP3    H229924   2.312   5.091  16.815  0.8163 -0.5687  0.8612
 2837TIP3   OH229925   3.542   3.740   3.737  0.6216 -0.1614 -0.0445
 2837TIP3    H129926   3.586   3.703   3.661 -0.2792 -1.4882  0.0689
 2837TIP3    H229927   3.602   3.807   3.769  0.8990  0.5813 -2.0523
 2838TIP3   OH229928   2.622   2.175   4.162  0.0724 -0.5010  0.5832
 2838TIP3    H129929   2.609   2.156   4.255 -0.0453  0.9583  0.8822
 2838TIP3    H229930   2.701   2.229   4.159 -0.0028 -0.4232 -0.1404
 2839TIP3   OH229931   2.015   5.260   6.335 -0.4287 -0.0099 -0.3434
 2839TIP3    H129932   2.055   5.241   6.250  0.4107  0.5401 -0.0770
 2839TIP3    H229933   2.035   5.182   6.388  2.5609  1.3169  0.5858
 2840TIP3   OH229934   2.398   6.639  14.624  0.0787 -0.5349  0.0518
 2840TIP3    H129935   2.471   6.599  14.577  0.2899 -0.3457  0.2148
 2840TIP3    H229936   2.339   6.566  14.645 -0.2438 -0.5533 -0.9112
 2841TIP3   OH229937   4.021   4.591   2.588  0.3834 -0.1826  0.6135
 2841TIP3    H129938   3.962   4.647   2.638  0.3698  0.0573  0.3306
 2841TIP3    H229939   4.074   4.653   2.537  1.7331 -0.3219  1.8121
 2842TIP3   OH229940   1.609   2.516   1.603  0.5352  0.0532  0.1842
 2842TIP3    H129941   1.524   2.543   1.568  0.7452  0.0150 -0.3582
 2842TIP3    H229942   1.669   2.586   1.576  0.6190  0.2437  0.8415
 2843TIP3   OH229943   6.537   1.773   4.569  0.0174  0.2190  1.0954
 2843TIP3    H129944   6.458   1.720   4.573 -0.4147  0.8211  0.6405
 2843TIP3    H229945   6.534   1.814   4.482  1.0500 -0.1064  0.8995
 2844TIP3   OH229946   0.659   2.115   5.456  0.1132 -0.1163  0.2485
 2844TIP3    H129947   0.587   2.089   5.398  1.9893  1.6349 -3.0346
 2844TIP3    H229948   0.647   2.209   5.468  3.1837  0.7189 -2.4513
 2845TIP3   OH229949   4.471   2.307   5.428  0.3016  0.1413 -0.3157
 2845TIP3    H129950   4.454   2.261   5.510 -0.9986  1.7352  0.3304
 2845TIP3    H229951   4.544   2.365   5.448 -1.0480  1.7063  0.2123
 2846TIP3   OH229952   2.667   4.550  15.422 -0.4545 -0.6291 -0.0765
 2846TIP3    H129953   2.580   4.560  15.461 -0.0416 -0.2069  0.7380
 2846TIP3    H229954   2.694   4.462  15.447 -0.7993 -0.9063 -0.6555
 2847TIP3   OH229955   5.541   5.973  13.763 -0.3648  0.2962 -0.1336
 2847TIP3    H129956   5.597   6.010  13.694 -1.3087  1.1494 -0.4425
 2847TIP3    H229957   5.466   6.032  13.768 -0.7080 -0.2235  1.0582
 2848TIP3   OH229958   0.739   1.218   4.030 -0.0953  0.1655 -0.3870
 2848TIP3    H129959   0.791   1.182   4.101 -0.6279  0.8470  0.3578
 2848TIP3    H229960   0.651   1.184   4.046 -0.5880  1.7280  0.2904
 2849TIP3   OH229961   6.236   5.462   3.142 -0.0150  0.8264  0.1775
 2849TIP3    H129962   6.276   5.541   3.105 -3.2294  2.1567 -0.6095
 2849TIP3    H229963   6.255   5.466   3.235  0.6354  2.0403 -0.0006
 2850TIP3   OH229964   0.278   5.677   0.266  0.4345 -0.1662 -0.0381
 2850TIP3    H129965   0.213   5.639   0.207 -0.9243  0.7892  0.8214
 2850TIP3    H229966   0.305   5.603   0.322 -0.2557 -0.4533 -0.0846
 2851TIP3   OH229967   2.550   3.367   4.585  0.7148  0.1484  0.0419
 2851TIP3    H129968   2.618   3.301   4.575  0.3457 -0.2106 -0.1479
 2851TIP3    H229969   2.560   3.424   4.509  0.1263 -0.5340 -0.5594
 2852TIP3   OH229970   1.107   4.928   1.141 -0.7434 -0.1080  0.0560
 2852TIP3    H129971   1.094   4.865   1.069 -1.5860  0.8446 -0.6559
 2852TIP3    H229972   1.176   4.890   1.194 -0.0024 -0.7766 -1.3480
 2853TIP3   OH229973   0.092   3.154   4.263 -0.2927 -0.0489  0.2272
 2853TIP3    H129974   0.024   3.177   4.200  0.4527  0.4799 -0.4034
 2853TIP3    H229975   0.071   3.205   4.341 -1.3649 -0.9030  0.5005
 2854TIP3   OH229976   5.458   0.651  12.734  1.1536 -0.5891 -0.0419
 2854TIP3    H129977   5.442   0.589  12.663 -0.9730 -0.3049  0.1694
 2854TIP3    H229978   5.502   0.599  12.801 -0.5812 -1.8784  0.1234
 2855TIP3   OH229979   2.769   2.713  13.697 -0.1880 -0.2587 -0.0644
 2855TIP3    H129980   2.738   2.624  13.713  0.2521 -0.3236  0.4358
 2855TIP3    H229981   2.713   2.745  13.626  0.5073 -1.4039 -1.1642
 2856TIP3   OH229982   2.221   0.534  16.898 -0.2083 -0.2067 -0.2158
 2856TIP3    H129983   2.313   0.556  16.910 -0.8794  1.8953  1.5336
 2856TIP3    H229984   2.187   0.525  16.987 -1.6043 -1.3372 -0.8424
 2857TIP3   OH229985   0.970   5.379   2.655 -0.0683  0.2481 -0.6995
 2857TIP3    H129986   0.926   5.463   2.637 -3.0704 -1.2646 -0.7762
 2857TIP3    H229987   0.943   5.322   2.584 -0.3958 -1.6123  0.8819
 2858TIP3   OH229988   4.311   1.423  14.608  0.1555 -0.0589  0.1660
 2858TIP3    H129989   4.387   1.366  14.599  0.3517  0.1949  0.1930
 2858TIP3    H229990   4.301   1.463  14.522 -0.8533 -1.2158 -0.2710
 2859TIP3   OH229991   1.843   5.057  12.256  0.5718 -0.3209  0.1146
 2859TIP3    H129992   1.929   5.042  12.217 -0.3196 -1.1300 -1.5594
 2859TIP3    H229993   1.788   4.986  12.224 -0.9836  0.7013  0.4188
 2860TIP3   OH229994   4.209   5.368   3.597  0.5343  0.1050  0.5108
 2860TIP3    H129995   4.230   5.299   3.660  1.4332 -0.9369 -0.9142
 2860TIP3    H229996   4.292   5.413   3.582  0.2445  0.5806  0.3098
 2861TIP3   OH229997   2.977   3.924   3.393  0.2160  0.6764  0.0926
 2861TIP3    H129998   3.015   3.836   3.403 -1.4290 -0.2301 -1.3161
 2861TIP3    H229999   3.024   3.978   3.456  2.4927 -0.8314 -0.2350
 2862TIP3   OH230000   0.500   5.957   4.689  0.4807  0.1911  0.5805
 2862TIP3    H130001   0.481   5.915   4.605  0.2355  0.8114  0.3139
 2862TIP3    H230002   0.593   5.942   4.704  0.1688 -1.3509  1.0123
 2863TIP3   OH230003   5.729   1.518  12.776  0.6031 -0.2497 -0.3629
 2863TIP3    H130004   5.733   1.606  12.813 -0.0563  0.1363 -1.1881
 2863TIP3    H230005   5.812   1.508  12.729 -0.0781  0.6167 -1.7653
 2864TIP3   OH230006   5.373   2.774   2.793  0.1665  0.1092  0.0562
 2864TIP3    H130007   5.320   2.704   2.831  1.1251  0.0066  1.2502
 2864TIP3    H230008   5.401   2.827   2.868 -0.4933  1.7416 -0.8280
 2865TIP3   OH230009   4.699   2.577   1.906 -0.1460 -0.4592 -0.1493
 2865TIP3    H130010   4.640   2.616   1.970  1.2717 -0.0857  0.9512
 2865TIP3    H230011   4.748   2.511   1.955  0.9370 -0.1826 -0.8377
 2866TIP3   OH230012   2.777   0.789   5.470  0.1286 -0.0927 -0.4775
 2866TIP3    H130013   2.839   0.738   5.523  0.3824 -0.3110 -0.9819
 2866TIP3    H230014   2.756   0.731   5.397 -0.2860  0.1791 -0.5715
 2867TIP3   OH230015   0.460   0.886   1.186  0.1833 -0.2934 -0.7277
 2867TIP3    H130016   0.518   0.872   1.111 -0.4363  0.3358 -1.3342
 2867TIP3    H230017   0.375   0.907   1.147  0.0509  0.8468  0.1574
 2868TIP3   OH230018   0.631   6.065   5.353 -0.4842  0.1983  0.4328
 2868TIP3    H130019   0.605   6.002   5.286 -2.2099 -0.4444  1.6823
 2868TIP3    H230020   0.726   6.073   5.341 -0.8189  0.5914 -2.4714
 2869TIP3   OH230021   1.303   3.933   0.976 -0.3701 -0.3647  1.2270
 2869TIP3    H130022   1.341   3.913   0.891 -2.3331  1.7283 -0.2176
 2869TIP3    H230023   1.352   4.009   1.008  0.2521 -1.0404  1.8799
 2870TIP3   OH230024   4.247   0.209  15.968  0.2155 -0.1072 -0.2285
 2870TIP3    H130025   4.182   0.142  15.948  0.8166 -0.3636 -1.3863
 2870TIP3    H230026   4.304   0.210  15.891  1.1010  0.6746  0.4329
 2871TIP3   OH230027   2.148   2.578  14.899  0.3834  0.6951  0.2013
 2871TIP3    H130028   2.109   2.652  14.946  0.0969  1.3364 -1.0457
 2871TIP3    H230029   2.209   2.618  14.837 -1.4088  0.0424 -2.0338
 2872TIP3   OH230030   2.615   2.433  12.115 -0.1988 -0.3659  0.1007
 2872TIP3    H130031   2.670   2.431  12.037 -1.6055  0.6989 -0.9294
 2872TIP3    H230032   2.627   2.522  12.150  0.0383 -0.6762  0.8218
 2873TIP3   OH230033   5.808   0.215  10.559  0.4440 -0.6534  0.0699
 2873TIP3    H130034   5.719   0.201  10.592  0.7697 -0.6128  0.9655
 2873TIP3    H230035   5.838   0.294  10.604  0.9735 -0.7275 -0.1528
 2874TIP3   OH230036   6.659   0.918   1.311 -0.1765 -0.5665 -0.1621
 2874TIP3    H130037   6.659   0.989   1.376 -0.5408 -0.4467 -0.2870
 2874TIP3    H230038   6.683   0.840   1.360  1.7937 -0.0849 -0.3404
 2875TIP3   OH230039   5.338   2.657  13.996  0.6950  0.2068  0.0261
 2875TIP3    H130040   5.288   2.576  14.010  2.7695 -1.3716 -1.3948
 2875TIP3    H230041   5.291   2.703  13.927 -0.6014  0.3202  0.9658
 2876TIP3   OH230042   1.918   3.822   5.185  0.1240 -0.6458  0.5542
 2876TIP3    H130043   1.897   3.914   5.168  1.1255 -0.5421 -0.1915
 2876TIP3    H230044   1.969   3.825   5.266 -1.5842 -0.7648  1.6474
 2877TIP3   OH230045   3.824   5.764   2.990 -0.4893  0.2419 -0.0045
 2877TIP3    H130046   3.820   5.859   2.998  0.9436  0.4411 -1.4853
 2877TIP3    H230047   3.732   5.737   2.979 -0.5639  1.8607 -3.9644
 2878TIP3   OH230048   5.059   0.744  11.250  0.3201  0.8316  0.0710
 2878TIP3    H130049   5.122   0.672  11.247  0.8518  1.1283  2.8154
 2878TIP3    H230050   5.012   0.737  11.167  1.8774 -1.2853 -0.7054
 2879TIP3   OH230051   6.760   2.743   2.194 -0.2988 -0.9285 -0.4575
 2879TIP3    H130052   6.688   2.683   2.174 -0.5193 -1.0296  0.6289
 2879TIP3    H230053   6.833   2.687   2.220  0.3729 -0.8578 -2.1161
 2880TIP3   OH230054   3.109   3.662   5.298  0.9343 -0.4620  0.1256
 2880TIP3    H130055   3.050   3.737   5.301  1.1202 -0.2293 -1.6481
 2880TIP3    H230056   3.116   3.634   5.390  0.4369  1.3300  0.7402
 2881TIP3   OH230057   2.616   0.637  15.147  0.0509 -0.3798 -0.0674
 2881TIP3    H130058   2.534   0.630  15.197  0.2629  2.5085  0.7555
 2881TIP3    H230059   2.681   0.594  15.203 -0.2634  0.3560  0.8903
 2882TIP3   OH230060   3.134   1.234  13.709 -0.1282 -0.4050  0.2887
 2882TIP3    H130061   3.080   1.287  13.768 -0.9703  0.4556 -1.2255
 2882TIP3    H230062   3.223   1.269  13.721 -0.5706  0.9287 -0.1981
 2883TIP3   OH230063   1.653   5.777   5.686 -0.2267 -0.0637 -0.4267
 2883TIP3    H130064   1.630   5.816   5.771 -1.1915 -2.8417  0.6708
 2883TIP3    H230065   1.571   5.741   5.653  0.3238  0.1900 -2.1255
 2884TIP3   OH230066   5.671   3.369  15.878  0.5375 -0.3434  0.3334
 2884TIP3    H130067   5.744   3.430  15.875  0.3962 -0.1858  0.0606
 2884TIP3    H230068   5.648   3.353  15.786  0.5996 -0.8404  0.4004
 2885TIP3   OH230069   6.752   6.676  15.910 -0.7389 -0.1065 -0.0903
 2885TIP3    H130070   6.679   6.614  15.909 -2.1123  1.4623 -0.2814
 2885TIP3    H230071   6.758   6.704  16.002  0.1871 -0.8703  0.0856
 2886TIP3   OH230072   3.748   2.055  13.084 -0.2127 -0.5968 -0.2787
 2886TIP3    H130073   3.681   2.068  13.018  0.8042  0.4163 -1.1279
 2886TIP3    H230074   3.748   2.137  13.135 -1.3910 -1.5835  1.3688
 2887TIP3   OH230075   4.988   6.272  13.056  0.0639 -0.4102  0.3901
 2887TIP3    H130076   4.985   6.256  12.962  1.1468  2.5068 -0.1927
 2887TIP3    H230077   5.068   6.228  13.085  0.9110  0.5073 -0.4815
 2888TIP3   OH230078   3.305   4.730  16.924  0.2996 -0.1399  0.6269
 2888TIP3    H130079   3.348   4.815  16.930  0.4213 -0.1054 -0.5377
 2888TIP3    H230080   3.351   4.685  16.853 -1.6753 -0.0300 -0.7806
 2889TIP3   OH230081   2.305   0.822  16.310  0.1814  0.1828 -0.1151
 2889TIP3    H130082   2.213   0.838  16.331 -0.0737 -0.8590 -0.3681
 2889TIP3    H230083   2.306   0.811  16.215  0.9078  2.2560 -0.3512
 2890TIP3   OH230084   4.469   0.470  14.304  0.1428  0.1938 -0.3254
 2890TIP3    H130085   4.426   0.397  14.259  1.1601 -0.5087 -0.2003
 2890TIP3    H230086   4.451   0.546  14.250 -1.2868 -0.0791 -0.2411
 2891TIP3   OH230087   0.786   3.632  14.227  0.1938  0.2455 -0.0286
 2891TIP3    H130088   0.790   3.703  14.291  1.7954 -0.0850  0.2450
 2891TIP3    H230089   0.692   3.619  14.211 -0.1034  2.9360 -0.6698
 2892TIP3   OH230090   1.832   4.981   3.407 -0.0261 -0.4652 -0.3678
 2892TIP3    H130091   1.802   5.067   3.437 -1.5730 -0.4835 -1.7746
 2892TIP3    H230092   1.900   4.956   3.470 -0.2881  1.3128  0.6643
 2893TIP3   OH230093   3.747   2.152   5.907 -0.0469  0.4927  0.2203
 2893TIP3    H130094   3.828   2.151   5.857  0.4621  0.8997  1.0324
 2893TIP3    H230095   3.775   2.154   5.999 -0.9604 -1.1522  0.5644
 2894TIP3   OH230096   0.586   3.814   5.329 -0.1175  0.3934  0.5756
 2894TIP3    H130097   0.660   3.869   5.303  0.6632  0.0798  2.0718
 2894TIP3    H230098   0.509   3.860   5.296  0.7235  0.8091 -0.8597
 2895TIP3   OH230099   4.424   2.896  12.687  0.4002 -0.4490 -0.0759
 2895TIP3    H130100   4.394   2.927  12.773 -1.2827  0.8362 -1.0713
 2895TIP3    H230101   4.448   2.805  12.701 -0.5972 -0.4826  1.5915
 2896TIP3   OH230102   4.767   0.326  10.795  0.6353 -0.2733  0.0367
 2896TIP3    H130103   4.690   0.276  10.822  0.1326  0.8268  0.6562
 2896TIP3    H230104   4.744   0.360  10.708  0.9003 -0.9417 -0.2989
 2897TIP3   OH230105   5.358   5.639   2.525 -0.8591 -0.0989  0.2023
 2897TIP3    H130106   5.439   5.637   2.474 -1.1271  1.3498 -0.2865
 2897TIP3    H230107   5.319   5.552   2.511  0.8177 -0.9785  0.8087
 2898TIP3   OH230108   3.474   2.644  14.233 -0.3851 -0.0758  0.0947
 2898TIP3    H130109   3.495   2.713  14.170  0.1612  0.8074  1.2211
 2898TIP3    H230110   3.379   2.642  14.236 -0.4079  0.1056 -0.5189
 2899TIP3   OH230111   6.273   0.360  16.658 -0.0517  0.0766 -0.0778
 2899TIP3    H130112   6.194   0.341  16.709  0.0575 -0.3345 -0.0618
 2899TIP3    H230113   6.341   0.376  16.724  0.3236 -1.4014 -0.0796
 2900TIP3   OH230114   6.301   6.483  14.320  0.2277 -0.4348 -0.5355
 2900TIP3    H130115   6.285   6.561  14.266  1.8878 -0.3187 -0.9077
 2900TIP3    H230116   6.329   6.518  14.404 -0.8488 -0.6293 -0.0889
 2901TIP3   OH230117   5.076   4.244   2.330 -0.3869  0.3520 -0.7635
 2901TIP3    H130118   5.105   4.211   2.415 -1.3304  0.0229 -0.5742
 2901TIP3    H230119   5.127   4.194   2.266 -0.2001  0.1010 -0.4159
 2902TIP3   OH230120   6.671   4.375   0.556 -0.6694  0.1990  0.4700
 2902TIP3    H130121   6.613   4.348   0.627 -0.1709  1.2978  1.3059
 2902TIP3    H230122   6.708   4.293   0.522 -2.4120 -0.4725  0.1753
 2903TIP3   OH230123   2.558   0.926  15.099  0.4889  0.0103 -0.1529
 2903TIP3    H130124   2.577   0.846  15.050  2.2327  0.6006 -0.4421
 2903TIP3    H230125   2.468   0.913  15.130  1.1342 -2.5958  0.8138
 2904TIP3   OH230126   3.233   4.717  13.347  0.1209 -0.2130  0.0100
 2904TIP3    H130127   3.185   4.741  13.267  3.8925  0.5478 -2.1550
 2904TIP3    H230128   3.252   4.624  13.335 -0.9437 -0.5564  0.9536
 2905TIP3   OH230129   1.678   0.564  11.602 -0.2250  0.1423  0.0114
 2905TIP3    H130130   1.774   0.562  11.609 -0.0853 -0.7172 -1.8117
 2905TIP3    H230131   1.647   0.530  11.686  1.0814  0.1850  0.5204
 2906TIP3   OH230132   1.754   5.644   5.453  0.3785  0.1750 -0.1755
 2906TIP3    H130133   1.711   5.560   5.468 -0.2928  0.2001 -1.8339
 2906TIP3    H230134   1.732   5.696   5.531  1.7811 -1.5411  1.4083
 2907TIP3   OH230135   5.739   4.805  14.272  0.6713  0.2900  0.1161
 2907TIP3    H130136   5.755   4.718  14.237  1.2469  0.1053  0.8164
 2907TIP3    H230137   5.663   4.837  14.224  1.3444 -0.0146 -1.1805
 2908TIP3   OH230138   5.753   4.874   1.135  0.1753  0.0860 -0.2108
 2908TIP3    H130139   5.729   4.962   1.163 -0.8007 -0.4128  0.5261
 2908TIP3    H230140   5.848   4.873   1.137  0.1704  0.8814  0.5280
 2909TIP3   OH230141   5.099   3.321  15.344  0.1891 -0.7423 -0.3130
 2909TIP3    H130142   5.123   3.365  15.426  0.3535 -0.0716 -0.7276
 2909TIP3    H230143   5.006   3.300  15.355  0.4457 -1.5296  0.4463
 2910TIP3   OH230144   6.146   3.836   1.884  0.1930 -0.0835 -0.1653
 2910TIP3    H130145   6.171   3.926   1.903  0.1641  0.4285 -2.4790
 2910TIP3    H230146   6.103   3.840   1.799 -0.6237 -2.1518  0.1151
 2911TIP3   OH230147   5.708   6.695  11.309 -0.0848 -0.0781 -0.4474
 2911TIP3    H130148   5.776   6.750  11.272 -2.0844  2.2454 -0.7857
 2911TIP3    H230149   5.632   6.753  11.319 -2.3988 -2.8355 -1.2268
 2912TIP3   OH230150   6.134   0.663  16.587  0.5385  0.1111  0.3193
 2912TIP3    H130151   6.107   0.743  16.633 -1.5999 -0.4565  0.0922
 2912TIP3    H230152   6.169   0.607  16.656  1.5609  1.0201  0.5581
 2913TIP3   OH230153   5.401   0.754   1.273 -0.0535  0.2303  0.2333
 2913TIP3    H130154   5.422   0.825   1.334 -0.0487 -0.6543  1.2901
 2913TIP3    H230155   5.317   0.721   1.304 -0.4478  0.2985 -0.7479
 2914TIP3   OH230156   0.120   3.806   2.515 -0.3843  0.2338 -0.4543
 2914TIP3    H130157   0.190   3.789   2.578 -0.2435  0.3754 -0.5731
 2914TIP3    H230158   0.134   3.741   2.446 -0.8888 -0.3063 -0.0554
 2915TIP3   OH230159   3.715   3.198  15.878 -0.0145 -0.0262  0.0987
 2915TIP3    H130160   3.626   3.213  15.909 -0.4242 -0.1309 -0.9855
 2915TIP3    H230161   3.745   3.283  15.847  0.6977  0.2544  1.5156
 2916TIP3   OH230162   6.099   3.979  16.069 -0.0109 -0.3985  0.5568
 2916TIP3    H130163   6.025   3.930  16.104 -0.5191  0.1749  0.3002
 2916TIP3    H230164   6.131   4.031  16.143  1.1336 -1.8333  1.0842
 2917TIP3   OH230165   3.146   3.348   3.223 -0.0509 -0.3000  0.0196
 2917TIP3    H130166   3.089   3.424   3.214 -0.2075 -0.6059 -1.8019
 2917TIP3    H230167   3.093   3.284   3.271 -0.4740  0.1756  0.1933
 2918TIP3   OH230168   5.937   1.208  13.849  0.5687  0.2922  0.3181
 2918TIP3    H130169   5.986   1.285  13.822  1.4562 -0.1140  0.7221
 2918TIP3    H230170   5.951   1.144  13.779  0.3098  0.3006  0.2573
 2919TIP3   OH230171   3.276   0.949   5.621 -0.3368  0.2836  0.2948
 2919TIP3    H130172   3.364   0.980   5.599 -0.1104  0.4755  1.3963
 2919TIP3    H230173   3.229   0.946   5.538  1.0944 -1.0317 -0.4824
 2920TIP3   OH230174   0.424   2.274  13.273  0.6343  0.6929 -0.1932
 2920TIP3    H130175   0.338   2.273  13.315  0.5955  2.1723 -0.1811
 2920TIP3    H230176   0.455   2.184  13.279 -0.5187  0.3323  0.6205
 2921TIP3   OH230177   0.664   0.219  14.291  0.7697 -0.0813 -0.6857
 2921TIP3    H130178   0.733   0.199  14.355  1.4194 -3.6144 -2.3647
 2921TIP3    H230179   0.682   0.309  14.263  2.7396  0.1753  1.2836
 2922TIP3   OH230180   1.623   5.356  17.198 -0.1347  0.0586 -0.4365
 2922TIP3    H130181   1.602   5.449  17.205 -2.5601 -0.5759  1.4304
 2922TIP3    H230182   1.711   5.348  17.235 -0.4475  1.4133  0.6279
 2923TIP3   OH230183   3.663   0.643  15.669  0.3384 -0.0381 -0.0586
 2923TIP3    H130184   3.683   0.703  15.597 -0.7615 -0.8569 -1.0681
 2923TIP3    H230185   3.661   0.698  15.747  1.1936  0.9150 -0.7045
 2924TIP3   OH230186   2.654   5.145   1.584  0.1130 -0.6987  0.1136
 2924TIP3    H130187   2.746   5.119   1.590 -0.3219 -2.3118 -0.0205
 2924TIP3    H230188   2.607   5.074   1.628 -1.1482 -0.4031 -0.7518
 2925TIP3   OH230189   3.202   1.126  15.703 -0.5825 -0.1966  0.2499
 2925TIP3    H130190   3.280   1.093  15.658 -0.6037 -0.5590  0.4774
 2925TIP3    H230191   3.203   1.220  15.686  1.8720  0.4165  3.2369
 2926TIP3   OH230192   5.863   1.331  17.019 -0.4238 -0.0949 -0.1132
 2926TIP3    H130193   5.855   1.272  17.094  0.7391 -0.1124 -0.0027
 2926TIP3    H230194   5.954   1.361  17.021 -0.9638  1.5760 -0.2775
 2927TIP3   OH230195   5.975   6.641   5.874  0.5046  0.4939  0.3263
 2927TIP3    H130196   5.931   6.725   5.875 -0.6676 -0.1168  0.5300
 2927TIP3    H230197   5.907   6.578   5.851  1.4285 -0.3708 -0.1103
 2928TIP3   OH230198   1.971   0.455   1.154 -0.1269 -0.0786 -0.1178
 2928TIP3    H130199   1.894   0.407   1.187 -0.7338  1.3811  0.6394
 2928TIP3    H230200   2.024   0.471   1.232 -0.2431  1.0294 -0.2602
 2929TIP3   OH230201   0.901   5.174   0.374  0.7838  0.3308  0.9726
 2929TIP3    H130202   0.983   5.221   0.361  0.8898 -0.1309 -0.0751
 2929TIP3    H230203   0.928   5.093   0.419  0.7365  0.7626  1.7868
 2930TIP3   OH230204   1.033   5.107  12.618 -0.7721  0.0043  0.2323
 2930TIP3    H130205   0.986   5.189  12.605 -0.8894  0.1547  1.5454
 2930TIP3    H230206   0.970   5.050  12.663 -0.3236 -0.4431  0.2959
 2931TIP3   OH230207   2.273   0.042  12.495  0.7172  0.2043 -0.0164
 2931TIP3    H130208   2.254   0.135  12.503  0.6849  0.1164  1.0467
 2931TIP3    H230209   2.293   0.029  12.402  1.0532  1.3296 -0.1078
 2932TIP3   OH230210   2.263   4.423   1.386 -0.1262  0.4816 -0.0187
 2932TIP3    H130211   2.305   4.348   1.429 -1.2747  0.1371  0.4962
 2932TIP3    H230212   2.308   4.499   1.423  1.3433  0.0412 -0.8646
 2933TIP3   OH230213   3.248   5.772   5.877 -0.0435 -0.2333 -0.1166
 2933TIP3    H130214   3.160   5.783   5.912 -0.0582  0.6367 -0.4029
 2933TIP3    H230215   3.252   5.832   5.802  0.0225 -1.9948 -1.5596
 2934TIP3   OH230216   1.010   5.888   0.011 -0.0135 -0.2600  0.2102
 2934TIP3    H130217   1.074   5.908   0.079  0.3846 -0.7563 -0.0204
 2934TIP3    H230218   0.960   5.814   0.045  0.2527 -0.5750 -0.0833
 2935TIP3   OH230219   0.999   1.020  13.732  0.0757  0.2948 -0.4012
 2935TIP3    H130220   1.078   1.062  13.697  1.3297  0.3055  2.2554
 2935TIP3    H230221   1.018   0.926  13.728  1.0555  0.3510  1.9357
 2936TIP3   OH230222   0.039   1.368  15.119  0.0336 -0.1711 -0.4123
 2936TIP3    H130223   0.084   1.436  15.170 -1.2870 -0.8255  1.6767
 2936TIP3    H230224  -0.032   1.415  15.076  0.6234  0.2268 -0.9613
 2937TIP3   OH230225   4.313   4.741  14.575  0.3511  0.4166  0.2427
 2937TIP3    H130226   4.337   4.654  14.607  2.0285 -0.0959 -2.2156
 2937TIP3    H230227   4.220   4.749  14.593  0.2781 -1.7113  0.9144
 2938TIP3   OH230228   0.753   2.400   4.759  0.1159  0.1079  0.2406
 2938TIP3    H130229   0.814   2.368   4.692  1.8706  3.1682  0.2654
 2938TIP3    H230230   0.727   2.487   4.728 -2.4997 -0.2113  1.3960
 2939TIP3   OH230231   4.993   5.191  17.067  0.6338  0.0144  0.2797
 2939TIP3    H130232   4.983   5.286  17.080  0.8675 -0.0734  1.1529
 2939TIP3    H230233   5.080   5.172  17.103  1.3101 -0.2541 -1.4695
 2940TIP3   OH230234   1.562   3.868  16.724  0.0134  0.2699 -0.3971
 2940TIP3    H130235   1.575   3.962  16.711  0.6989  0.4535  1.4064
 2940TIP3    H230236   1.482   3.848  16.675 -0.9241  2.0851  0.3320
 2941TIP3   OH230237   1.656   6.103   2.933 -0.4329  0.1587 -0.2429
 2941TIP3    H130238   1.710   6.029   2.961 -0.4880 -0.3429 -1.4626
 2941TIP3    H230239   1.653   6.097   2.838 -1.3150  1.1208 -0.2890
 2942TIP3   OH230240   1.220   1.662   6.160  0.1045  0.3855  0.2020
 2942TIP3    H130241   1.301   1.698   6.198  0.3510  1.3528 -1.1786
 2942TIP3    H230242   1.161   1.737   6.156 -0.5519 -0.1246  0.3808
 2943TIP3   OH230243   4.086   4.426  10.567  0.1010 -0.3844  0.0583
 2943TIP3    H130244   4.128   4.394  10.487 -0.8453 -0.4650 -0.4029
 2943TIP3    H230245   4.088   4.521  10.559  1.1134 -0.3589  0.5131
 2944TIP3   OH230246   1.972   3.808   0.081 -0.0464  0.5486 -0.1061
 2944TIP3    H130247   1.957   3.883   0.138  1.0420 -0.5790  1.7299
 2944TIP3    H230248   2.034   3.753   0.129  0.3225 -0.8169 -2.0568
 2945TIP3   OH230249   2.015   5.421  12.784 -0.0572 -0.2479  0.2693
 2945TIP3    H130250   2.042   5.464  12.865 -1.0391 -2.5027  1.8440
 2945TIP3    H230251   1.920   5.430  12.783 -0.0772 -0.5195 -0.4894
 2946TIP3   OH230252   5.857   5.799  13.971 -0.0777  0.0243  0.1467
 2946TIP3    H130253   5.881   5.712  14.003  1.0902  0.2783 -0.0328
 2946TIP3    H230254   5.929   5.856  13.999 -0.1431  0.6727 -0.9863
 2947TIP3   OH230255   1.350   2.110  15.086  0.8651 -0.1412 -0.2662
 2947TIP3    H130256   1.379   2.157  15.007  0.5749 -2.8204 -2.0447
 2947TIP3    H230257   1.421   2.048  15.104  1.2981  1.0168  2.1115
 2948TIP3   OH230258   6.332   0.217   5.491  0.4313  0.2104  0.1302
 2948TIP3    H130259   6.289   0.279   5.432 -0.8496  0.0268  0.8489
 2948TIP3    H230260   6.347   0.139   5.438 -0.6488  0.0724  0.0175
 2949TIP3   OH230261   3.675   1.326  12.791 -0.0425  0.5052  0.3035
 2949TIP3    H130262   3.581   1.332  12.809 -0.6157 -0.7309 -2.1562
 2949TIP3    H230263   3.700   1.414  12.765 -0.3183  1.0513  1.8492
 2950TIP3   OH230264   2.291   2.777  12.068  0.6791 -0.0745 -0.0686
 2950TIP3    H130265   2.277   2.789  12.162 -0.9640 -1.6660 -0.0812
 2950TIP3    H230266   2.385   2.788  12.056  0.5733  2.7471  1.3548
 2951TIP3   OH230267   5.511   6.658  13.648 -0.4341  0.1653  0.0298
 2951TIP3    H130268   5.591   6.608  13.669  0.5101  2.2175  1.4701
 2951TIP3    H230269   5.467   6.669  13.733 -2.1929 -0.7940 -0.7303
 2952TIP3   OH230270   0.620   1.761   2.647  0.0041  0.3788  0.0847
 2952TIP3    H130271   0.527   1.779   2.638  0.3508  1.7928 -0.8705
 2952TIP3    H230272   0.624   1.670   2.677 -1.6187 -0.2418 -1.4924
 2953TIP3   OH230273   1.281   2.304  15.437  0.1130 -0.0889  0.5316
 2953TIP3    H130274   1.266   2.391  15.401  0.4408 -0.7648 -1.2695
 2953TIP3    H230275   1.237   2.306  15.522 -0.4184  1.6259  0.2410
 2954TIP3   OH230276   3.532   1.799   0.862  0.1902 -0.3333  0.1687
 2954TIP3    H130277   3.442   1.764   0.860 -0.0082  0.2157 -2.0338
 2954TIP3    H230278   3.584   1.729   0.902 -0.9443 -1.3492 -0.0919
 2955TIP3   OH230279   2.191   2.576   3.488 -0.0549  0.4275 -0.2973
 2955TIP3    H130280   2.240   2.658   3.490 -0.3890  0.6104  1.4372
 2955TIP3    H230281   2.256   2.509   3.508  0.0329  0.3645 -0.7861
 2956TIP3   OH230282   1.223   2.182   3.207  0.2570 -0.1360  1.0521
 2956TIP3    H130283   1.282   2.226   3.267  0.6039  1.4268 -0.3910
 2956TIP3    H230284   1.278   2.119   3.161  1.6364  3.3565 -2.4345
 2957TIP3   OH230285   2.140   6.489  16.281 -0.0315 -0.1345  0.6651
 2957TIP3    H130286   2.101   6.432  16.214  0.7817 -0.4744  0.4845
 2957TIP3    H230287   2.157   6.432  16.355 -1.3524  0.3320  1.3474
 2958TIP3   OH230288   0.519   5.668  14.335  0.3084  0.0163  0.2222
 2958TIP3    H130289   0.443   5.664  14.276  0.7374 -2.0405 -0.2147
 2958TIP3    H230290   0.511   5.591  14.390  1.3255  0.5468  1.1334
 2959TIP3   OH230291   0.878   6.095   2.856  0.6226  0.0193 -0.2969
 2959TIP3    H130292   0.844   6.009   2.832  1.1704 -0.4250  0.4733
 2959TIP3    H230293   0.866   6.149   2.778 -0.8493 -0.4187 -0.3817
 2960TIP3   OH230294   2.339   4.768  16.456 -0.6040 -0.0065 -0.0452
 2960TIP3    H130295   2.285   4.791  16.532  0.0531  0.8799  0.1625
 2960TIP3    H230296   2.410   4.832  16.457  1.0208 -1.7656  0.2736
 2961TIP3   OH230297   0.826   3.117   2.795 -0.2851 -0.2542  0.2458
 2961TIP3    H130298   0.868   3.183   2.850 -0.4031  1.0118 -1.1202
 2961TIP3    H230299   0.874   3.036   2.812 -0.1517  0.1686  1.9822
 2962TIP3   OH230300   6.097   6.428  15.684 -0.0590  0.0970 -0.3784
 2962TIP3    H130301   6.142   6.351  15.648  0.5833  0.2758  0.0262
 2962TIP3    H230302   6.162   6.469  15.741 -0.7603  0.3258  0.2707
 2963TIP3   OH230303   2.887   2.653   2.834 -0.3626 -0.3307 -0.1194
 2963TIP3    H130304   2.958   2.589   2.840 -0.1448 -0.0450  0.4172
 2963TIP3    H230305   2.823   2.623   2.899 -0.5873 -0.4096 -0.3766
 2964TIP3   OH230306   1.299   0.159  10.978  0.2153 -0.3179 -0.1734
 2964TIP3    H130307   1.331   0.069  10.974  2.1168  0.3329  0.0272
 2964TIP3    H230308   1.262   0.176  10.891  1.2564 -0.7785 -0.7098
 2965TIP3   OH230309   0.328   3.739   2.092  0.2556 -1.2095 -0.3243
 2965TIP3    H130310   0.315   3.701   2.179  0.7661 -1.3271 -0.2993
 2965TIP3    H230311   0.411   3.785   2.097  0.4679 -1.5281 -0.8581
 2966TIP3   OH230312   0.476   3.058  12.370  0.3826 -0.3631  0.1523
 2966TIP3    H130313   0.401   3.011  12.406 -0.0221 -0.1001 -0.3510
 2966TIP3    H230314   0.538   2.989  12.345  0.4867 -0.5658  0.9343
 2967TIP3   OH230315   4.534   4.508   0.945  0.7564  0.2729 -0.4667
 2967TIP3    H130316   4.540   4.565   1.022  0.0908 -0.9995  0.5459
 2967TIP3    H230317   4.617   4.522   0.898  1.4493  0.5728  0.8252
 2968TIP3   OH230318   6.386   6.266   4.678  0.7744  0.4971 -0.2898
 2968TIP3    H130319   6.481   6.253   4.679  0.9744  1.7727 -1.3701
 2968TIP3    H230320   6.370   6.337   4.739  0.5063  0.2301 -0.0479
 2969TIP3   OH230321   5.296   4.013   5.818 -0.5071  0.5102  0.2148
 2969TIP3    H130322   5.313   4.039   5.728 -0.6606  2.3930  0.7183
 2969TIP3    H230323   5.295   3.917   5.816  1.2024  0.5269 -1.4487
 2970TIP3   OH230324   2.669   0.449  10.949  0.5649 -0.2160  0.2035
 2970TIP3    H130325   2.740   0.386  10.934 -0.2762 -0.8151 -1.4458
 2970TIP3    H230326   2.660   0.494  10.865 -1.1784 -0.3457  0.3039
 2971TIP3   OH230327   1.016   3.863   4.032 -0.4282  0.0400  0.0888
 2971TIP3    H130328   0.953   3.890   4.099 -1.3391 -1.1740 -0.2544
 2971TIP3    H230329   0.977   3.891   3.949 -0.1289  0.0005 -0.0668
 2972TIP3   OH230330   5.192   0.868   5.143  0.0225  0.0357  0.4641
 2972TIP3    H130331   5.105   0.882   5.105 -0.0551  0.7481  0.9033
 2972TIP3    H230332   5.183   0.790   5.196 -0.4621  0.3429  0.8402
 2973TIP3   OH230333   1.415   4.803  14.195 -0.3569  0.0820  0.4564
 2973TIP3    H130334   1.433   4.764  14.280 -0.2374 -2.8278 -0.8373
 2973TIP3    H230335   1.491   4.781  14.141 -2.4621 -2.1649 -1.7045
 2974TIP3   OH230336   4.789   1.205   1.215 -0.4556  0.2703  0.4257
 2974TIP3    H130337   4.867   1.250   1.182  0.0475 -0.0068  1.2237
 2974TIP3    H230338   4.804   1.113   1.194 -0.2669  0.1314  1.1583
 2975TIP3   OH230339   6.582   2.347   2.542  0.3259 -1.1410  0.3564
 2975TIP3    H130340   6.585   2.437   2.575  0.6519 -0.6769 -0.9018
 2975TIP3    H230341   6.658   2.340   2.483 -0.7308 -1.6539 -0.9829
 2976TIP3   OH230342   6.745   0.257   2.466 -0.1011  0.0979  0.2538
 2976TIP3    H130343   6.838   0.279   2.466 -0.2329  0.6553 -1.4444
 2976TIP3    H230344   6.737   0.187   2.402 -1.1124  1.1484 -0.7661
 2977TIP3   OH230345   3.304   0.856  12.374  0.3896 -0.2269  0.4371
 2977TIP3    H130346   3.257   0.821  12.450 -0.3214 -1.8260 -0.7377
 2977TIP3    H230347   3.382   0.896  12.412 -0.0488 -0.8524  2.0467
 2978TIP3   OH230348   4.584   5.218   2.926 -0.4522  0.1042  0.4148
 2978TIP3    H130349   4.525   5.230   2.852 -0.6935  2.2135  0.9246
 2978TIP3    H230350   4.535   5.162   2.987  0.0920 -2.3654 -1.3662
 2979TIP3   OH230351   5.507   3.746  13.161 -0.0602  0.0173  0.9018
 2979TIP3    H130352   5.426   3.760  13.112  1.6771 -0.5422 -2.3192
 2979TIP3    H230353   5.565   3.817  13.132  1.1621 -0.5972  1.7921
 2980TIP3   OH230354   1.005   3.153   5.497  0.1085  0.0646 -0.5597
 2980TIP3    H130355   0.950   3.102   5.437 -0.4542 -0.0487  0.0507
 2980TIP3    H230356   0.966   3.240   5.497  0.2253  0.1162 -0.5050
 2981TIP3   OH230357   5.286   2.990  12.128 -0.0327 -0.5516 -0.3472
 2981TIP3    H130358   5.226   2.923  12.095  0.9318 -0.6369 -1.9685
 2981TIP3    H230359   5.271   2.991  12.223 -1.9112 -1.2202 -0.6214
 2982TIP3   OH230360   3.461   3.567   5.094 -0.2416 -0.6585  0.1967
 2982TIP3    H130361   3.369   3.583   5.075 -0.2814 -0.9598  0.1338
 2982TIP3    H230362   3.468   3.573   5.189 -0.5023 -1.5546  0.2761
 2983TIP3   OH230363   3.968   4.519  11.204  0.3016  0.2277 -1.0017
 2983TIP3    H130364   4.011   4.478  11.129  1.0099 -0.0605 -0.4399
 2983TIP3    H230365   3.908   4.452  11.236  0.4914  0.1073 -0.8960
 2984TIP3   OH230366   5.629   3.795  16.581 -0.5253  0.1536 -0.0545
 2984TIP3    H130367   5.583   3.737  16.519 -0.6653 -0.0890  0.2746
 2984TIP3    H230368   5.601   3.883  16.557 -1.3796 -0.0114  0.3194
 2985TIP3   OH230369   5.359   2.633   0.225 -0.2334  0.1600  0.0950
 2985TIP3    H130370   5.337   2.617   0.133 -1.4743 -0.4422  0.4719
 2985TIP3    H230371   5.354   2.547   0.266 -1.4260  0.6744  1.0689
 2986TIP3   OH230372   5.559   1.146  12.082  0.1996 -0.2611 -0.1863
 2986TIP3    H130373   5.596   1.059  12.097  1.1769  0.0182 -0.9876
 2986TIP3    H230374   5.562   1.158  11.987 -0.3955  0.4425 -0.1190
 2987TIP3   OH230375   4.406   4.773   1.322  0.1446 -0.3356  0.0146
 2987TIP3    H130376   4.469   4.708   1.289  1.3818  0.0671  1.4835
 2987TIP3    H230377   4.393   4.833   1.249  1.1323 -0.6970 -0.4767
 2988TIP3   OH230378   4.507   3.384   5.130 -0.7232 -0.5870 -0.0295
 2988TIP3    H130379   4.587   3.429   5.102 -0.9018 -0.5947 -0.5522
 2988TIP3    H230380   4.487   3.324   5.058 -1.7538  0.1276 -0.3561
 2989TIP3   OH230381   6.012   0.111   2.157 -0.1840 -0.1827 -0.0518
 2989TIP3    H130382   6.092   0.162   2.161 -0.9597  1.0249  0.3928
 2989TIP3    H230383   6.008   0.079   2.067  1.2414 -1.0262  0.1593
 2990TIP3   OH230384   3.116   4.755   5.470  0.2318 -0.0504  0.2919
 2990TIP3    H130385   3.121   4.674   5.419  1.6466  0.8588 -1.0401
 2990TIP3    H230386   3.205   4.789   5.470 -0.3189  1.4360  0.9749
 2991TIP3   OH230387   4.683   4.159   0.769 -0.4901 -0.0633  0.0244
 2991TIP3    H130388   4.687   4.231   0.707  1.3541  1.4307  1.7865
 2991TIP3    H230389   4.631   4.193   0.842  0.0896 -0.6135  0.7040
 2992TIP3   OH230390   3.859   5.745   1.940 -0.0851  0.7701  0.1826
 2992TIP3    H130391   3.812   5.775   1.862 -0.9720  1.3121  0.9256
 2992TIP3    H230392   3.892   5.658   1.916  2.4697  2.2322 -1.9727
 2993TIP3   OH230393   1.473   6.171  14.693 -0.2298  0.1609  0.3990
 2993TIP3    H130394   1.557   6.174  14.738  1.1701  0.1250 -2.1350
 2993TIP3    H230395   1.491   6.126  14.611 -2.7223  0.1892 -0.2025
 2994TIP3   OH230396   4.481   4.655  13.389  0.6725 -0.2156 -0.1056
 2994TIP3    H130397   4.416   4.607  13.440  0.2651  0.4666  0.0294
 2994TIP3    H230398   4.460   4.634  13.298  1.8452 -1.9976  0.0166
 2995TIP3   OH230399   2.268   6.377  13.215  0.0765  0.5667 -0.2729
 2995TIP3    H130400   2.267   6.439  13.142 -0.6580  2.1479  1.0558
 2995TIP3    H230401   2.316   6.422  13.285 -0.6232 -0.2893  0.7771
 2996TIP3   OH230402   4.942   1.510   4.363  0.8380 -0.1984  0.9429
 2996TIP3    H130403   4.923   1.449   4.435 -1.7383 -0.4765  0.0885
 2996TIP3    H230404   4.913   1.595   4.396 -1.5736 -0.5357 -0.1709
 2997TIP3   OH230405   5.762   1.610   5.427 -0.0589 -0.7676 -0.2568
 2997TIP3    H130406   5.829   1.673   5.452  1.1837 -1.1842 -2.3404
 2997TIP3    H230407   5.811   1.531   5.403 -1.2709 -1.0723 -1.8352
 2998TIP3   OH230408   1.933   5.218  15.696  0.0798 -0.0146 -0.1862
 2998TIP3    H130409   1.986   5.198  15.773 -0.7424 -3.0712 -0.3720
 2998TIP3    H230410   1.868   5.148  15.692 -0.4862  0.6184 -3.1443
 2999TIP3   OH230411   2.031   6.408  12.714 -0.0548  0.4990  0.4797
 2999TIP3    H130412   1.957   6.407  12.775 -0.3720  0.4468  0.0996
 2999TIP3    H230413   2.004   6.469  12.646 -0.4067 -0.6751 -0.4638
 3000TIP3   OH230414   2.430   6.108  12.653  0.2731 -0.1882 -0.2518
 3000TIP3    H130415   2.422   6.022  12.695 -0.5667 -0.4507 -0.9382
 3000TIP3    H230416   2.349   6.154  12.675  1.3919  1.0152  1.4008
 3001TIP3   OH230417   0.321   6.678  13.696  0.6047 -0.1390  0.1431
 3001TIP3    H130418   0.382   6.692  13.623  0.9024  1.5254  0.7167
 3001TIP3    H230419   0.375   6.642  13.766  0.5795 -0.3736  0.0455
 3002TIP3   OH230420   2.699   2.685   4.697  0.3867 -0.0609  0.1323
 3002TIP3    H130421   2.687   2.745   4.624 -1.5331 -0.8138 -0.1928
 3002TIP3    H230422   2.652   2.725   4.770  0.1709 -0.5315  0.2587
 3003TIP3   OH230423   1.499   6.216  16.712 -0.3371  0.0688 -0.1716
 3003TIP3    H130424   1.412   6.220  16.673 -0.6512  0.3479  0.5388
 3003TIP3    H230425   1.499   6.133  16.761 -0.2948  0.1832  0.0253
 3004TIP3   OH230426   2.210   2.491  16.780 -0.7468  0.2411 -0.0700
 3004TIP3    H130427   2.187   2.572  16.826 -1.0537 -0.7362  1.5074
 3004TIP3    H230428   2.303   2.500  16.760 -1.4081  2.2633 -2.5191
 3005TIP3   OH230429   6.667   6.204   0.152 -0.2440  0.3623  0.0698
 3005TIP3    H130430   6.726   6.235   0.084 -1.8314  0.9375 -1.0810
 3005TIP3    H230431   6.589   6.259   0.143 -1.5479 -1.3566  0.5872
 3006TIP3   OH230432   4.277   4.362   4.472 -0.0484 -0.2910  0.1878
 3006TIP3    H130433   4.335   4.429   4.437  0.2650 -0.6572 -0.0093
 3006TIP3    H230434   4.330   4.316   4.537  0.2021 -1.2484 -0.6843
 3007TIP3   OH230435   1.087   2.804   0.036  1.0048 -0.3598 -0.1988
 3007TIP3    H130436   1.052   2.807  -0.053 -2.8888 -1.2667  1.2090
 3007TIP3    H230437   1.073   2.714   0.064  0.6891  0.3035  1.8678
 3008TIP3   OH230438   4.185   4.105  14.814 -0.3499  0.4615 -0.1218
 3008TIP3    H130439   4.226   4.062  14.890  2.3698 -1.0620 -2.3553
 3008TIP3    H230440   4.168   4.194  14.843  2.9915  0.6354  1.4891
 3009TIP3   OH230441   4.063   4.321   2.642 -0.1573 -0.0707 -0.1146
 3009TIP3    H130442   4.041   4.410   2.614  0.3696  1.1946  3.1620
 3009TIP3    H230443   3.978   4.279   2.657 -0.4176  0.7526  0.7875
 3010TIP3   OH230444   4.729   6.638  14.044 -0.3393  0.6174  0.1116
 3010TIP3    H130445   4.752   6.547  14.023  1.0440  1.0068 -0.1094
 3010TIP3    H230446   4.673   6.631  14.121 -0.2698 -0.4337  0.0831
 3011TIP3   OH230447   5.909   3.740   2.320  0.1219 -0.0316  0.0108
 3011TIP3    H130448   5.991   3.737   2.270  1.4829  0.9875  2.1249
 3011TIP3    H230449   5.841   3.745   2.253  1.9460  2.2029 -1.7708
 3012TIP3   OH230450   3.784   4.038  14.334  0.0423  0.2710 -0.0496
 3012TIP3    H130451   3.839   3.967  14.366 -1.5772 -0.7754  0.4849
 3012TIP3    H230452   3.741   4.003  14.256 -0.2545  0.8939 -0.1733
 3013TIP3   OH230453   3.563   5.580  12.644  0.1335  0.1436  0.0441
 3013TIP3    H130454   3.473   5.567  12.613  0.4820 -0.8847 -0.5436
 3013TIP3    H230455   3.593   5.657  12.595 -0.2639  0.2048 -0.1130
 3014TIP3   OH230456   2.399   5.654   3.441  0.2784 -0.6944 -0.3989
 3014TIP3    H130457   2.313   5.671   3.477 -0.3358 -3.2355 -0.5850
 3014TIP3    H230458   2.393   5.682   3.349 -0.3649 -0.9246 -0.4267
 3015TIP3   OH230459   0.343   0.053  11.487 -0.2126 -0.3302  0.1918
 3015TIP3    H130460   0.286   0.129  11.486 -0.9464 -0.8593  1.5225
 3015TIP3    H230461   0.352   0.029  11.394 -0.2732  1.1378 -0.1993
 3016TIP3   OH230462   6.132   1.899   1.820  0.4223 -0.0549  0.4197
 3016TIP3    H130463   6.158   1.968   1.880  0.6563  0.0170  0.2342
 3016TIP3    H230464   6.180   1.822   1.850 -1.5225 -0.6929  1.9982
 3017TIP3   OH230465   1.046   4.323   4.202  0.2665 -0.6133 -0.7568
 3017TIP3    H130466   0.981   4.341   4.269  0.1278  3.4293 -1.8509
 3017TIP3    H230467   1.123   4.294   4.251 -0.5463  0.0769  0.9788
 3018TIP3   OH230468   2.279   2.230  10.651  0.2912  0.2119 -0.1036
 3018TIP3    H130469   2.311   2.271  10.732  0.4343  1.0999 -0.5937
 3018TIP3    H230470   2.350   2.172  10.624  0.1599 -0.2432  0.5104
 3019TIP3   OH230471   3.878   0.688   6.365 -0.1237  0.3037 -0.6164
 3019TIP3    H130472   3.795   0.644   6.349 -0.2988  0.1813  0.5589
 3019TIP3    H230473   3.892   0.743   6.288 -0.8081 -0.4117 -1.2610
 3020TIP3   OH230474   6.579   1.972   1.288 -0.7251  0.4309 -0.2016
 3020TIP3    H130475   6.650   2.006   1.341  0.4880  0.5185 -1.8386
 3020TIP3    H230476   6.513   2.042   1.290  0.8158  2.0011 -1.7173
 3021TIP3   OH230477   2.236   5.543  10.460  0.4342 -0.2655  0.5470
 3021TIP3    H130478   2.304   5.606  10.436  1.0730  0.1248  3.1816
 3021TIP3    H230479   2.284   5.463  10.481 -0.0712 -0.5135  0.7578
 3022TIP3   OH230480   5.584   1.596   5.645  1.0277  0.3401  0.2550
 3022TIP3    H130481   5.538   1.675   5.617  1.4809  0.7138  0.5439
 3022TIP3    H230482   5.668   1.600   5.599  1.2498  0.2833  0.6484
 3023TIP3   OH230483   6.354   2.682   4.314  0.4273  0.1106 -0.1228
 3023TIP3    H130484   6.315   2.671   4.400  0.8868  0.2368  0.1080
 3023TIP3    H230485   6.382   2.773   4.312  1.6928 -0.2539  0.1461
 3024TIP3   OH230486   6.740   0.938   5.801 -0.3909  0.1258  0.4362
 3024TIP3    H130487   6.749   0.918   5.708  0.1831 -0.3682  0.5940
 3024TIP3    H230488   6.654   0.979   5.808  0.4345  2.0982 -0.6336
 3025TIP3   OH230489   5.931   0.012  12.809 -0.0864  0.2315 -0.1730
 3025TIP3    H130490   5.890   0.040  12.891 -1.4022 -1.0467 -0.3741
 3025TIP3    H230491   5.864   0.027  12.742  0.7723  0.7196 -0.9244
 3026TIP3   OH230492   5.688   2.094  14.586  0.2865 -0.2854  0.1160
 3026TIP3    H130493   5.606   2.124  14.545  1.1523  2.4813  0.3194
 3026TIP3    H230494   5.754   2.102  14.517  0.9236  0.2388  0.7791
 3027TIP3   OH230495   5.327   1.339   1.223 -0.5631  0.2498  0.7407
 3027TIP3    H130496   5.237   1.351   1.255 -0.7251 -0.1022  0.4210
 3027TIP3    H230497   5.327   1.252   1.184 -0.6698  1.1031 -1.2111
 3028TIP3   OH230498   3.275   1.842   1.709 -0.4271  0.7427 -0.2158
 3028TIP3    H130499   3.280   1.791   1.790 -1.1291  0.9845 -0.0209
 3028TIP3    H230500   3.182   1.861   1.697 -0.3004  0.9555 -0.9270
 3029TIP3   OH230501   2.098   1.910  15.330 -0.8454  0.4535  0.0931
 3029TIP3    H130502   2.155   1.924  15.405 -0.1858  0.4776 -0.4062
 3029TIP3    H230503   2.156   1.877  15.261 -1.9779 -2.8827  0.6026
 3030TIP3   OH230504   6.147   3.582  14.418 -0.0213  0.3417 -0.0702
 3030TIP3    H130505   6.062   3.616  14.389  0.4390  1.4736 -0.1162
 3030TIP3    H230506   6.185   3.542  14.340 -0.7904 -0.7646  0.1071
 3031TIP3   OH230507   3.450   2.882  14.462  0.1422 -0.3133 -0.2439
 3031TIP3    H130508   3.494   2.890  14.377 -2.2106 -0.6209 -1.5541
 3031TIP3    H230509   3.393   2.959  14.466  2.1701  1.1037  2.2801
 3032TIP3   OH230510   2.908   0.629  15.142  0.4628 -0.1009 -0.0854
 3032TIP3    H130511   2.918   0.538  15.116  0.7635  0.5827 -2.4957
 3032TIP3    H230512   2.960   0.638  15.221  4.0949 -0.9951 -2.2370
 3033TIP3   OH230513   2.305   5.436  13.063 -0.1481  0.4128 -0.8247
 3033TIP3    H130514   2.367   5.488  13.114 -0.8735 -0.4607  1.0040
 3033TIP3    H230515   2.247   5.501  13.023 -0.6704  1.0452  0.9342
 3034TIP3   OH230516   5.860   3.344   1.112  0.1867  0.7474 -0.8517
 3034TIP3    H130517   5.790   3.294   1.071  0.4234 -0.3568  0.0728
 3034TIP3    H230518   5.820   3.429   1.132 -1.2357 -0.2794  0.7452
 3035TIP3   OH230519   0.531   5.096   3.038 -0.3033 -0.0118  0.5516
 3035TIP3    H130520   0.470   5.119   2.967  0.4337 -2.1640 -0.8471
 3035TIP3    H230521   0.521   5.166   3.102 -1.7256  1.4797 -1.2331
 3036TIP3   OH230522   5.985   5.526   3.506 -0.9083  0.2617 -0.4163
 3036TIP3    H130523   6.036   5.450   3.479  1.7209  1.8396 -0.0791
 3036TIP3    H230524   5.930   5.493   3.578  1.8216 -0.8404  1.2517
 3037TIP3   OH230525   2.787   5.903   0.548 -0.0781 -0.0521 -0.0122
 3037TIP3    H130526   2.747   5.984   0.582 -0.4737  0.0235 -0.6523
 3037TIP3    H230527   2.853   5.880   0.613 -0.7975  0.1242  0.7936
 3038TIP3   OH230528   3.787   4.238   3.939 -0.2587 -0.3681 -0.1009
 3038TIP3    H130529   3.865   4.216   3.990  0.4603  1.3007 -0.4474
 3038TIP3    H230530   3.724   4.269   4.004  0.9459  2.5535 -0.2528
 3039TIP3   OH230531   4.024   2.150   5.817 -0.5576  0.4186 -0.0961
 3039TIP3    H130532   4.054   2.176   5.731  2.2221 -0.3617  0.5972
 3039TIP3    H230533   4.057   2.217   5.876 -0.3282 -0.3538  0.6652
 3040TIP3   OH230534   1.324   6.023   2.275 -0.5328 -0.3799  0.3283
 3040TIP3    H130535   1.361   6.066   2.351 -0.9473  1.4960 -0.5156
 3040TIP3    H230536   1.235   6.001   2.300 -0.5286 -0.1580  0.5332
 3041TIP3   OH230537   3.505   0.460   2.852  0.2483  0.1303  0.2047
 3041TIP3    H130538   3.568   0.427   2.917  0.7666  0.1323 -0.2914
 3041TIP3    H230539   3.518   0.404   2.775 -0.7526 -0.2292  0.2861
 3042TIP3   OH230540   2.571   0.890  14.676 -0.1569  0.0610 -0.2783
 3042TIP3    H130541   2.496   0.944  14.699 -0.4466 -0.1991 -0.6116
 3042TIP3    H230542   2.545   0.801  14.699  0.1940  0.0213 -0.0340
 3043TIP3   OH230543   0.931   5.300   1.082 -0.6992 -0.2560  0.1394
 3043TIP3    H130544   0.889   5.328   1.163 -1.1190  0.2566 -0.2585
 3043TIP3    H230545   1.009   5.252   1.111 -1.8658 -1.7338  0.8890
 3044TIP3   OH230546   1.757   0.910  16.950  0.0411 -0.5368 -0.3688
 3044TIP3    H130547   1.853   0.911  16.960  0.2995 -0.5013 -2.6525
 3044TIP3    H230548   1.734   1.002  16.937 -0.1687 -0.6590 -0.8716
 3045TIP3   OH230549   4.535   4.762   0.745 -0.1556  0.3199 -0.7187
 3045TIP3    H130550   4.584   4.795   0.820 -0.7632  0.0159 -0.1761
 3045TIP3    H230551   4.601   4.737   0.681  0.4037 -0.4054  0.1404
 3046TIP3   OH230552   4.955   0.672  11.782  0.3197  0.2562 -0.0100
 3046TIP3    H130553   5.022   0.615  11.744 -0.6369 -0.6701 -0.3458
 3046TIP3    H230554   5.000   0.754  11.799  1.7365 -0.6030  0.4967
 3047TIP3   OH230555   0.714   3.149   1.493  0.6608  0.0939  0.1604
 3047TIP3    H130556   0.803   3.141   1.459  1.4266  3.3725  1.2681
 3047TIP3    H230557   0.725   3.183   1.582 -1.6899  0.3365  0.3962
 3048TIP3   OH230558   4.735   3.958   5.237 -0.4706 -0.5536 -0.1040
 3048TIP3    H130559   4.653   4.001   5.262  1.7487  3.0244  1.2857
 3048TIP3    H230560   4.760   3.908   5.315  0.4270  1.1836  0.7491
 3049TIP3   OH230561   4.935   6.184   5.873 -0.4457 -0.1555  0.1989
 3049TIP3    H130562   4.856   6.154   5.917 -1.5022 -0.3302 -1.7793
 3049TIP3    H230563   4.909   6.199   5.782  1.4552  1.1409 -0.1766
 3050TIP3   OH230564   4.144   5.047   6.024 -0.5076 -0.1770 -0.0120
 3050TIP3    H130565   4.098   5.087   6.097 -2.7480 -1.1409 -0.8472
 3050TIP3    H230566   4.124   4.954   6.030  1.6454 -0.7006 -0.2260
 3051TIP3   OH230567   1.576   5.443   3.307  0.1279  0.1305  0.0347
 3051TIP3    H130568   1.510   5.451   3.238 -0.2009  2.5667  0.6079
 3051TIP3    H230569   1.526   5.436   3.388  0.5456 -0.8422  0.2144
 3052TIP3   OH230570   1.356   4.845   1.898 -0.4415 -0.1086  0.0357
 3052TIP3    H130571   1.388   4.758   1.872 -0.0677  0.3461 -1.0344
 3052TIP3    H230572   1.263   4.832   1.914 -0.1829 -0.9416  0.9657
 3053TIP3   OH230573   3.331   6.348  15.750  0.5085  0.0595 -0.0295
 3053TIP3    H130574   3.393   6.351  15.677  1.2565 -2.6840  0.4147
 3053TIP3    H230575   3.333   6.256  15.778 -1.8244  0.5021  1.6688
 3054TIP3   OH230576   2.588   6.449  11.634 -0.3401 -0.5769 -0.0331
 3054TIP3    H130577   2.508   6.491  11.601 -0.7470 -0.4729  1.0768
 3054TIP3    H230578   2.650   6.520  11.648 -0.6490 -0.4633  0.7741
 3055TIP3   OH230579   3.613   2.272  11.272 -0.4040 -0.1214 -0.2451
 3055TIP3    H130580   3.681   2.247  11.334  1.4005 -1.1710 -2.5628
 3055TIP3    H230581   3.532   2.239  11.310  0.5747 -0.2512  1.7986
 3056TIP3   OH230582   1.133   0.723  12.274  0.0289  0.2361  0.4698
 3056TIP3    H130583   1.097   0.664  12.207  1.4382  0.5030 -0.5415
 3056TIP3    H230584   1.080   0.802  12.267  0.1530  0.2568 -0.3316
 3057TIP3   OH230585   4.621   3.832  16.731 -1.0157  0.8397  0.0045
 3057TIP3    H130586   4.684   3.760  16.733 -0.8316  1.0419  2.7724
 3057TIP3    H230587   4.644   3.881  16.651  1.9960  0.5924  0.6449
 3058TIP3   OH230588   4.379   1.770   3.562  0.2875  0.0433  0.4270
 3058TIP3    H130589   4.390   1.693   3.619  1.4237 -0.0289  0.1324
 3058TIP3    H230590   4.310   1.821   3.604 -0.0402 -0.8317  0.9683
 3059TIP3   OH230591   4.130   3.898  12.881 -0.1945 -0.3585 -0.0579
 3059TIP3    H130592   4.118   3.913  12.974  0.7366 -0.1788  0.0382
 3059TIP3    H230593   4.114   3.805  12.869 -0.5501 -0.3341  0.2426
 3060TIP3   OH230594   3.981   3.628  14.188  0.1527  0.1284  0.0051
 3060TIP3    H130595   3.946   3.626  14.098  1.2304 -2.7644 -0.3976
 3060TIP3    H230596   3.907   3.601  14.243 -0.2133  0.8864 -0.1074
 3061TIP3   OH230597   3.337   5.407   5.118 -0.5100 -0.7670 -0.5208
 3061TIP3    H130598   3.374   5.493   5.134  0.3138 -0.7797 -2.2906
 3061TIP3    H230599   3.274   5.420   5.047 -0.0773 -1.6859 -1.0886
 3062TIP3   OH230600   3.423   2.076  10.773 -0.4593 -0.1249 -0.2606
 3062TIP3    H130601   3.421   2.008  10.706 -2.3234  0.6624 -1.0268
 3062TIP3    H230602   3.393   2.155  10.728 -2.2642  0.3006  1.6432
 3063TIP3   OH230603   4.536   3.338   0.492  0.8297  0.0721  0.2349
 3063TIP3    H130604   4.561   3.317   0.582  0.4117  0.9356  0.5578
 3063TIP3    H230605   4.558   3.431   0.483 -0.4961  0.3536 -0.0856
 3064TIP3   OH230606   4.350   0.337  14.087 -0.0387 -0.0044 -0.6196
 3064TIP3    H130607   4.257   0.333  14.063 -0.8134 -1.0720  2.3251
 3064TIP3    H230608   4.376   0.246  14.097  1.3560  0.2904 -1.5285
 3065TIP3   OH230609   1.576   3.787  11.620  0.0379 -0.0036 -0.1846
 3065TIP3    H130610   1.632   3.726  11.668  0.2878  1.8078  1.8732
 3065TIP3    H230611   1.622   3.801  11.537  0.6359 -1.5907 -0.1306
 3066TIP3   OH230612   4.793   5.793   4.343  0.6156 -0.3243  0.0649
 3066TIP3    H130613   4.850   5.869   4.356  0.8313 -0.3193 -0.8848
 3066TIP3    H230614   4.845   5.718   4.372  1.1509 -0.3288 -0.8769
 3067TIP3   OH230615   2.016   4.169   0.831 -0.4800 -0.3619 -0.0857
 3067TIP3    H130616   2.109   4.167   0.853 -0.6495  1.0712  0.8809
 3067TIP3    H230617   1.988   4.078   0.835  0.8864 -0.8045 -0.4129
 3068TIP3   OH230618   2.599   2.327   4.613 -0.2913 -0.0888  0.1377
 3068TIP3    H130619   2.653   2.263   4.565 -2.0383 -0.9587 -0.7102
 3068TIP3    H230620   2.628   2.319   4.704 -0.0850 -1.6721 -0.0510
 3069TIP3   OH230621   3.958   5.065  15.197 -0.4557  0.5207  0.0580
 3069TIP3    H130622   3.992   5.111  15.273 -0.4911  1.0837 -0.2607
 3069TIP3    H230623   4.035   5.047  15.143 -0.3667 -0.3326  0.4663
 3070TIP3   OH230624   1.115   2.781  13.392 -0.8791 -0.4573  0.7081
 3070TIP3    H130625   1.083   2.787  13.302 -0.5598  2.3459  0.7559
 3070TIP3    H230626   1.206   2.752  13.384 -0.4467  1.0670  0.0515
 3071TIP3   OH230627   2.673   6.589  11.015  0.4245  0.3608 -0.4133
 3071TIP3    H130628   2.598   6.550  10.970 -0.0215 -1.0982  1.4991
 3071TIP3    H230629   2.641   6.674  11.045 -0.2813 -0.0049 -0.1134
 3072TIP3   OH230630   2.668   1.613  12.405 -0.2947 -0.5798 -0.1142
 3072TIP3    H130631   2.673   1.661  12.488  0.9606 -0.8817 -0.0192
 3072TIP3    H230632   2.610   1.539  12.424 -0.6290 -0.2196  0.2840
 3073TIP3   OH230633   5.506   6.339   1.850  0.6650  0.3248 -0.4235
 3073TIP3    H130634   5.431   6.284   1.832  0.7352 -0.5394  1.7258
 3073TIP3    H230635   5.580   6.295   1.807  0.3302 -0.0324 -0.6293
 3074TIP3   OH230636   6.345   4.288  14.488 -0.3309 -0.4171  0.8464
 3074TIP3    H130637   6.354   4.296  14.393 -4.3858 -3.0888  0.1211
 3074TIP3    H230638   6.341   4.379  14.520  1.3007  0.5088 -1.4419
 3075TIP3   OH230639   1.993   0.043  15.758 -0.3830 -0.0092  0.0882
 3075TIP3    H130640   1.915  -0.005  15.786 -1.5338  1.6299 -0.2716
 3075TIP3    H230641   2.036   0.069  15.840  1.6827 -3.8038  0.3579
 3076TIP3   OH230642   6.389   5.153   5.143 -0.3595 -0.3029 -0.4064
 3076TIP3    H130643   6.432   5.238   5.138  0.1761 -0.5887 -0.6816
 3076TIP3    H230644   6.403   5.113   5.057  1.4113 -1.6313  0.4577
 3077TIP3   OH230645   5.194   3.782  13.765 -0.2892 -0.3264 -0.0749
 3077TIP3    H130646   5.276   3.744  13.797 -1.5292 -1.1523  2.1490
 3077TIP3    H230647   5.157   3.714  13.709  0.3927 -0.0580 -0.8656
 3078TIP3   OH230648   2.341   0.579  12.276 -0.4310  0.2010 -0.6863
 3078TIP3    H130649   2.250   0.568  12.250 -0.4226 -1.0237 -0.2110
 3078TIP3    H230650   2.386   0.605  12.195 -1.4070  2.0507 -0.6548
 3079TIP3   OH230651   1.203   2.543  13.996  0.5863 -0.0179  0.3869
 3079TIP3    H130652   1.220   2.591  13.915 -0.3489 -0.9621 -0.3813
 3079TIP3    H230653   1.111   2.519  13.991  0.4322  0.2106  1.9078
 3080TIP3   OH230654   4.829   4.962  14.416 -0.4715 -0.1341 -0.5720
 3080TIP3    H130655   4.783   4.890  14.460 -0.6654 -0.4357 -1.2602
 3080TIP3    H230656   4.916   4.926  14.399 -0.0574  0.3388  0.4772
 3081TIP3   OH230657   3.128   6.355  11.038  0.2231 -0.0100  0.4858
 3081TIP3    H130658   3.166   6.308  10.964  1.8457  0.6597  0.8741
 3081TIP3    H230659   3.036   6.366  11.014  0.8336  0.7175 -1.7197
 3082TIP3   OH230660   0.105   2.556   6.056  1.1385  0.5218 -0.0940
 3082TIP3    H130661   0.087   2.462   6.052  0.5781  0.5979  0.5702
 3082TIP3    H230662   0.161   2.566   6.133  1.6908  0.6603 -0.5064
 3083TIP3   OH230663   3.207   3.465  13.112 -0.0051  0.2258 -0.0338
 3083TIP3    H130664   3.156   3.431  13.186  0.5330 -0.7068 -0.0779
 3083TIP3    H230665   3.296   3.472  13.145  0.4509 -1.2272 -0.8894
 3084TIP3   OH230666   2.133   5.375  17.078  0.4548 -0.3535  0.2047
 3084TIP3    H130667   2.218   5.385  17.036  1.7812  0.8680  3.0418
 3084TIP3    H230668   2.134   5.286  17.113  1.1336  0.1015  1.3726
 3085TIP3   OH230669   0.324   1.576  15.043  0.3269  0.0052 -0.1690
 3085TIP3    H130670   0.365   1.663  15.041 -2.1180  1.1761 -4.2853
 3085TIP3    H230671   0.263   1.580  15.116 -0.5268  2.1805 -0.9651
 3086TIP3   OH230672   2.741   1.944  16.458 -0.0134  0.2282  0.3071
 3086TIP3    H130673   2.707   1.906  16.540  1.1793 -2.1538 -0.2453
 3086TIP3    H230674   2.664   1.963  16.406 -0.6759 -0.9819  0.8330
 3087TIP3   OH230675   2.285   1.254   2.786  0.4063  0.2242 -0.6541
 3087TIP3    H130676   2.315   1.243   2.876  2.3073  0.5302 -1.2353
 3087TIP3    H230677   2.238   1.338   2.786 -0.0620 -0.0314  0.1555
 3088TIP3   OH230678   0.757   6.646   0.597  0.4014 -0.1718 -0.0267
 3088TIP3    H130679   0.734   6.678   0.510  1.0337  0.5602  0.0728
 3088TIP3    H230680   0.694   6.575   0.614 -0.2766  0.2602 -0.7132
 3089TIP3   OH230681   2.176   5.912  15.081  0.0558  0.4066  0.0648
 3089TIP3    H130682   2.179   6.003  15.054 -0.2003  0.4272  0.1036
 3089TIP3    H230683   2.258   5.898  15.129  0.8797  0.1550 -1.3822
 3090TIP3   OH230684   4.236   3.901   3.559 -0.2455  0.0285 -0.2194
 3090TIP3    H130685   4.309   3.840   3.549 -0.3392  0.1699 -1.8173
 3090TIP3    H230686   4.263   3.980   3.514 -0.6142  0.7628  0.8349
 3091TIP3   OH230687   6.471   4.998   4.882 -0.7021 -0.6619  0.4420
 3091TIP3    H130688   6.472   4.966   4.791 -2.4572 -2.1019  0.8936
 3091TIP3    H230689   6.562   5.018   4.902 -0.2255 -0.8523 -1.4616
 3092TIP3   OH230690   6.017   0.313  11.466 -0.2989 -0.0638  0.1002
 3092TIP3    H130691   6.006   0.222  11.439 -1.1718 -0.3257  1.3013
 3092TIP3    H230692   6.109   0.333  11.445  0.1562 -1.5001  0.6551
 3093TIP3   OH230693   0.198   1.129   3.232  0.0674  0.2140  0.0146
 3093TIP3    H130694   0.197   1.040   3.266 -2.2158 -0.3434 -1.3945
 3093TIP3    H230695   0.191   1.185   3.309  0.4893 -0.8417  0.8354
 3094TIP3   OH230696   4.863   5.495  16.369 -0.1177  0.0096 -0.2821
 3094TIP3    H130697   4.920   5.500  16.293 -0.4537 -0.1314 -0.5476
 3094TIP3    H230698   4.850   5.401  16.383 -1.3662  0.0385 -1.0619
 3095TIP3   OH230699   2.664   4.535  14.446  0.2854  0.2187 -0.2298
 3095TIP3    H130700   2.633   4.445  14.462  1.2695 -0.7333 -3.3215
 3095TIP3    H230701   2.674   4.572  14.534 -2.1098 -1.9906  1.0718
 3096TIP3   OH230702   2.164   3.254   5.540 -0.5659 -0.1139 -0.6648
 3096TIP3    H130703   2.227   3.319   5.572 -0.1953 -0.7016 -0.1963
 3096TIP3    H230704   2.204   3.170   5.561 -2.4635 -0.5105  1.5135
 3097TIP3   OH230705   0.043   3.698   3.645  0.1093  0.8327  0.1769
 3097TIP3    H130706   0.015   3.680   3.735  1.4053 -0.0719  0.4090
 3097TIP3    H230707   0.077   3.614   3.614 -2.3827  0.5427 -1.9467
 3098TIP3   OH230708   3.263   1.291   6.542 -0.3357 -0.0824  1.0197
 3098TIP3    H130709   3.347   1.336   6.534 -0.1091 -0.5723  0.6115
 3098TIP3    H230710   3.276   1.207   6.497 -1.1914  0.0439  0.5245
 3099TIP3   OH230711   1.952   1.259   6.033  0.2286 -0.0103 -0.9721
 3099TIP3    H130712   1.966   1.349   6.002  0.4679  0.8604  1.5960
 3099TIP3    H230713   2.040   1.226   6.051 -0.0565  0.6033  1.7359
 3100TIP3   OH230714   0.409   5.724  17.177 -0.5268 -0.0509 -0.0474
 3100TIP3    H130715   0.500   5.753  17.175 -0.7801  0.9291  1.6894
 3100TIP3    H230716   0.409   5.648  17.236 -0.6676 -0.7039 -0.8750
 3101TIP3   OH230717   1.441   3.103   0.141 -0.1593 -0.6314  0.2252
 3101TIP3    H130718   1.521   3.055   0.162  0.0031 -1.0765 -1.3408
 3101TIP3    H230719   1.468   3.195   0.138  0.1600 -0.7218  0.3355
 3102TIP3   OH230720   3.647   5.553  12.243 -0.3705  0.1197  0.2370
 3102TIP3    H130721   3.639   5.648  12.242 -1.4025  0.0611  1.2598
 3102TIP3    H230722   3.624   5.526  12.154 -0.1234  0.8189 -0.0409
 3103TIP3   OH230723   5.365   4.530   1.347 -0.1165  0.0082  0.4937
 3103TIP3    H130724   5.364   4.538   1.251  1.9359 -0.5506  0.3918
 3103TIP3    H230725   5.443   4.578   1.373 -0.6796  0.1663  1.8985
 3104TIP3   OH230726   4.551   5.353  17.205  0.1810  0.1754 -0.2798
 3104TIP3    H130727   4.616   5.290  17.236 -0.0515 -0.6014 -1.3243
 3104TIP3    H230728   4.544   5.335  17.111 -1.0806  0.6712 -0.2884
 3105TIP3   OH230729   0.283   2.822   5.203  0.4877  0.3283  0.0182
 3105TIP3    H130730   0.342   2.830   5.278  1.6047  0.9157 -0.8889
 3105TIP3    H230731   0.316   2.887   5.140 -1.3299  0.8838 -0.3916
 3106TIP3   OH230732   4.306   6.213  14.853 -0.5349 -0.5400 -0.5009
 3106TIP3    H130733   4.390   6.168  14.849 -0.1684  0.1077 -0.1890
 3106TIP3    H230734   4.328   6.302  14.881 -1.1593  0.0658 -1.8816
 3107TIP3   OH230735   3.313   1.829  16.820 -0.1590 -0.7155 -0.5850
 3107TIP3    H130736   3.370   1.798  16.750 -0.1476 -0.0997 -0.8594
 3107TIP3    H230737   3.361   1.903  16.859 -1.2652  0.5544 -1.5847
 3108TIP3   OH230738   1.999   3.103  12.615 -0.0390 -0.0879  0.1568
 3108TIP3    H130739   1.957   3.018  12.618  1.0715 -0.5862  2.0748
 3108TIP3    H230740   1.926   3.166  12.608 -1.0687 -0.9782  2.5047
 3109TIP3   OH230741   1.166   5.450  11.928 -0.4358 -0.4052  0.5525
 3109TIP3    H130742   1.253   5.424  11.957 -0.6747 -0.1871  1.4846
 3109TIP3    H230743   1.147   5.530  11.976 -0.9907 -0.2326  0.0563
 3110TIP3   OH230744   2.886   4.299   5.506  0.4201  0.2862 -0.0147
 3110TIP3    H130745   2.885   4.262   5.417  0.5752  0.3996 -0.0647
 3110TIP3    H230746   2.856   4.227   5.562 -1.7905  0.8910 -0.3984
 3111TIP3   OH230747   5.683   1.912   5.347 -1.0570  0.1044 -1.2481
 3111TIP3    H130748   5.595   1.880   5.327 -0.1833 -2.0726 -1.7095
 3111TIP3    H230749   5.742   1.847   5.309  0.7560  1.0968 -0.2155
 3112TIP3   OH230750   0.167   6.437  11.523  0.1594 -0.6889 -0.0922
 3112TIP3    H130751   0.128   6.418  11.609  0.3880  1.2920  0.4629
 3112TIP3    H230752   0.092   6.452  11.466  0.0377  2.0376  0.7250
 3113TIP3   OH230753   1.514   1.857  14.357  0.2208  0.0342 -0.1803
 3113TIP3    H130754   1.447   1.865  14.425 -0.2337  0.3416 -0.6548
 3113TIP3    H230755   1.521   1.945  14.320  0.6775 -0.0657 -0.3302
 3114TIP3   OH230756   1.725   2.261  16.291 -0.2835  0.3408  0.2733
 3114TIP3    H130757   1.757   2.299  16.209  0.9697 -1.8651 -0.2913
 3114TIP3    H230758   1.801   2.265  16.350 -0.1389 -1.1963  0.2143
 3115TIP3   OH230759   2.827   5.001  11.550 -0.0021 -0.0963 -0.1340
 3115TIP3    H130760   2.917   5.022  11.577  0.6422 -1.4958 -1.1586
 3115TIP3    H230761   2.802   4.926  11.605  1.3216 -2.9678 -3.3026
 3116TIP3   OH230762   6.032   2.056  13.445 -0.0430 -0.3465 -0.2972
 3116TIP3    H130763   5.978   2.134  13.454  1.6817  0.5827  2.5064
 3116TIP3    H230764   6.009   2.021  13.358 -2.9300  1.6251 -0.3989
 3117TIP3   OH230765   0.317   4.398   0.491 -0.1511 -0.4034 -0.4026
 3117TIP3    H130766   0.410   4.418   0.484 -0.3366  0.7923  0.3269
 3117TIP3    H230767   0.306   4.369   0.582 -0.8577  1.6269  0.1991
 3118TIP3   OH230768   4.883   4.662   2.308  0.4897 -0.2733 -0.6520
 3118TIP3    H130769   4.894   4.656   2.213  0.1768  0.4727 -0.7419
 3118TIP3    H230770   4.865   4.572   2.336 -1.9246 -0.1336 -1.6254
 3119TIP3   OH230771   5.933   4.077  15.600 -0.1212 -0.1531 -0.0714
 3119TIP3    H130772   5.989   4.094  15.524  0.2909 -0.8320  0.0766
 3119TIP3    H230773   5.883   4.158  15.611  1.6327  0.8877  0.4912
 3120TIP3   OH230774   0.580   1.389  16.519  0.4106  0.0283 -0.4140
 3120TIP3    H130775   0.637   1.335  16.463 -1.7672 -3.1997  0.3808
 3120TIP3    H230776   0.496   1.391  16.473  0.1097  1.7982  0.1774
 3121TIP3   OH230777   6.610   0.430   0.115 -0.1098  0.1867 -0.1931
 3121TIP3    H130778   6.685   0.452   0.170 -1.2459  2.5677  0.4843
 3121TIP3    H230779   6.613   0.335   0.107 -0.5212 -0.4152  4.9275
 3122TIP3   OH230780   3.490   5.878  12.448  0.6566  0.3391  0.2026
 3122TIP3    H130781   3.433   5.906  12.376  2.6589  0.9319 -1.2221
 3122TIP3    H230782   3.456   5.923  12.525  0.3219  2.1577 -0.9773
 3123TIP3   OH230783   6.714   4.145   5.489  0.0557  0.0848 -0.0730
 3123TIP3    H130784   6.684   4.099   5.568  0.9959  2.3168  1.6185
 3123TIP3    H230785   6.743   4.074   5.431 -1.0353 -1.6213  1.3917
 3124TIP3   OH230786   3.191   2.514  16.526  0.7809  0.5892  0.4090
 3124TIP3    H130787   3.211   2.454  16.454 -2.0938  0.6497 -0.4645
 3124TIP3    H230788   3.162   2.594  16.483 -1.2979  0.4996  1.6324
 3125TIP3   OH230789   4.375   3.472  16.150  0.3178  0.0723 -0.1951
 3125TIP3    H130790   4.448   3.528  16.174  0.7415 -0.5815  0.0776
 3125TIP3    H230791   4.416   3.389  16.123 -0.3726 -0.8188  1.3944
 3126TIP3   OH230792   4.186   3.881   6.103  0.4095  0.2078 -0.3159
 3126TIP3    H130793   4.113   3.824   6.129  1.0319 -1.4952 -2.1529
 3126TIP3    H230794   4.252   3.867   6.170  0.0723 -0.2907 -0.0837
 3127TIP3   OH230795   5.548   2.861   0.236  0.0802 -0.2236  0.2357
 3127TIP3    H130796   5.575   2.884   0.325 -0.1532  0.0078  0.2496
 3127TIP3    H230797   5.460   2.825   0.246 -0.9761  2.0979 -0.1481
 3128TIP3   OH230798   4.629   1.052   4.837  0.2556  0.6951 -0.6232
 3128TIP3    H130799   4.603   0.980   4.894  2.2099 -0.2022 -0.8495
 3128TIP3    H230800   4.628   1.129   4.894  0.2295  0.1474  0.1278
 3129TIP3   OH230801   2.517   3.939   3.760  0.0895  0.2566  0.6939
 3129TIP3    H130802   2.544   3.848   3.749  0.7221  0.5271 -0.0157
 3129TIP3    H230803   2.485   3.944   3.850  0.9800 -0.4250  1.0484
 3130TIP3   OH230804   4.996   1.337  11.525  0.0696  0.2160 -0.6639
 3130TIP3    H130805   5.050   1.387  11.464 -0.9187  0.3218 -1.4658
 3130TIP3    H230806   5.038   1.251  11.529  1.2641  0.8192  0.0347
 3131TIP3   OH230807   4.677   6.477  15.065  0.0914  0.1712  0.6316
 3131TIP3    H130808   4.611   6.428  15.016 -0.3559  0.0180  1.3789
 3131TIP3    H230809   4.642   6.482  15.154  0.2866  1.5861  0.6323
 3132TIP3   OH230810   2.662   6.150  14.758  0.7182 -0.0218  0.4452
 3132TIP3    H130811   2.654   6.077  14.819  1.7503 -2.0318 -1.7692
 3132TIP3    H230812   2.745   6.192  14.782 -0.0016  0.6327  1.8836
 3133TIP3   OH230813   5.973   2.541  13.763  0.2760 -0.0743 -0.0707
 3133TIP3    H130814   6.048   2.542  13.822  0.2020  0.6050  0.0101
 3133TIP3    H230815   5.903   2.582  13.812  0.1745  0.3654 -0.5777
 3134TIP3   OH230816   2.472   4.440   2.661  0.2584 -0.0584 -0.0291
 3134TIP3    H130817   2.556   4.413   2.623  0.6113 -1.1348  1.4585
 3134TIP3    H230818   2.411   4.438   2.588  1.3610 -0.0403 -0.9710
 3135TIP3   OH230819   1.232   6.377  15.180 -0.0156  0.3057 -0.1809
 3135TIP3    H130820   1.196   6.450  15.232 -0.3173 -0.1352  0.2342
 3135TIP3    H230821   1.158   6.346  15.128 -0.0728 -0.1721  0.1812
 3136TIP3   OH230822   6.710   0.676   2.680  0.5104 -0.2828 -0.0350
 3136TIP3    H130823   6.712   0.764   2.643 -2.5220 -0.6142 -1.0625
 3136TIP3    H230824   6.660   0.623   2.618  0.1588 -2.1597  1.7536
 3137TIP3   OH230825   4.496   5.076  11.908  0.2286  0.2400 -0.0039
 3137TIP3    H130826   4.461   5.105  11.992 -0.8558 -1.7682  0.2603
 3137TIP3    H230827   4.432   5.105  11.843  0.9819  1.6425 -0.1373
 3138TIP3   OH230828   2.278   3.771  13.146 -0.8764 -0.0045  0.1360
 3138TIP3    H130829   2.312   3.800  13.231 -0.0937 -1.8265  0.4675
 3138TIP3    H230830   2.354   3.772  13.089 -1.1887  0.1780 -0.2791
 3139TIP3   OH230831   2.408   0.726  14.345  0.3563  0.2419  0.4824
 3139TIP3    H130832   2.408   0.676  14.427  0.2150  0.3007  0.5160
 3139TIP3    H230833   2.316   0.745  14.328  0.1719 -1.6341 -0.8241
 3140TIP3   OH230834   2.574   2.685  17.128  0.8943  0.1836  0.6387
 3140TIP3    H130835   2.583   2.752  17.195  0.9955  0.1884  0.6210
 3140TIP3    H230836   2.573   2.733  17.045 -1.5232  0.3675  0.7452
 3141TIP3   OH230837   1.859   3.148   3.569 -0.9177 -0.1373  0.4968
 3141TIP3    H130838   1.873   3.176   3.479 -1.0132 -0.0987  0.4942
 3141TIP3    H230839   1.940   3.103   3.593 -0.0783  1.5901  1.0488
 3142TIP3   OH230840   1.334   5.354  13.545 -0.1569 -0.4328  0.3489
 3142TIP3    H130841   1.417   5.321  13.510  0.1811 -0.7299  1.4105
 3142TIP3    H230842   1.351   5.446  13.563  0.6392 -0.9772  2.5855
 3143TIP3   OH230843   0.340   2.930  14.293 -0.4377  0.3347  0.5750
 3143TIP3    H130844   0.276   3.001  14.297 -0.6946  0.0626  1.6578
 3143TIP3    H230845   0.392   2.941  14.373 -0.7156 -0.9063  0.9323
 3144TIP3   OH230846   1.087   0.290   3.515 -0.0554 -0.1699 -0.1653
 3144TIP3    H130847   1.030   0.254   3.583 -1.5551  3.2142  0.4936
 3144TIP3    H230848   1.042   0.270   3.433 -1.2395  0.7627  0.2380
 3145TIP3   OH230849   1.685   6.606   2.390  0.0823 -0.0382  0.1514
 3145TIP3    H130850   1.686   6.700   2.371 -1.3860 -0.0834 -0.2829
 3145TIP3    H230851   1.749   6.594   2.460  2.4842  0.8011 -1.8640
 3146TIP3   OH230852   2.832   6.334  16.682 -0.5715 -0.2935  0.5113
 3146TIP3    H130853   2.862   6.307  16.769  1.0308  1.6160  0.5866
 3146TIP3    H230854   2.747   6.376  16.697 -1.5891 -2.3786  0.7802
 3147TIP3   OH230855   3.266   5.497  13.880  0.1829  0.0757 -0.2738
 3147TIP3    H130856   3.302   5.567  13.933 -2.5863  1.0146  0.4665
 3147TIP3    H230857   3.191   5.465  13.931 -0.4479 -1.3297 -2.0250
 3148TIP3   OH230858   5.201   5.766   2.020 -0.2202 -0.4785 -0.1541
 3148TIP3    H130859   5.254   5.803   1.950 -2.5363  0.7508 -1.2895
 3148TIP3    H230860   5.117   5.746   1.979 -0.3025 -3.4147  1.3637
 3149TIP3   OH230861   4.370   1.515   5.861 -0.3380 -0.5611  0.4924
 3149TIP3    H130862   4.431   1.450   5.897 -2.2383 -2.3209  0.6909
 3149TIP3    H230863   4.348   1.571   5.936  0.7136 -0.1517  0.5070
 3150TIP3   OH230864   1.018   6.720  10.957  0.1611  0.1376  0.4559
 3150TIP3    H130865   0.981   6.783  11.019  0.0567  0.2186  0.3079
 3150TIP3    H230866   1.022   6.766  10.874  0.6839  0.1625  0.4918
 3151TIP3   OH230867   5.484   6.336   3.028 -0.9141  0.3195  0.2025
 3151TIP3    H130868   5.554   6.390   2.991 -2.1064  0.9208 -1.2662
 3151TIP3    H230869   5.530   6.269   3.079  0.7965 -0.0295 -1.6964
 3152TIP3   OH230870   0.684   3.945  14.455 -0.4170  0.0956  0.1209
 3152TIP3    H130871   0.758   3.965  14.397  0.1047 -2.5331 -0.1810
 3152TIP3    H230872   0.711   3.867  14.503 -2.8784 -0.7441  0.2165
 3153TIP3   OH230873   2.549   1.239  12.334 -0.1971  0.3928 -0.5462
 3153TIP3    H130874   2.464   1.198  12.317 -1.4943  3.5403 -2.2823
 3153TIP3    H230875   2.533   1.296  12.410 -0.0522  1.9323 -1.6355
 3154TIP3   OH230876   2.248   4.285  12.533 -0.1086  0.3667 -0.2746
 3154TIP3    H130877   2.259   4.207  12.480  0.2174  1.1127 -1.3325
 3154TIP3    H230878   2.194   4.257  12.608 -0.5456 -0.7027 -0.9864
 3155TIP3   OH230879   1.724   1.580  12.461  0.1993  0.0617  0.0177
 3155TIP3    H130880   1.791   1.548  12.522  0.0694 -0.0903  0.0828
 3155TIP3    H230881   1.642   1.570  12.509  0.3916  2.9506  1.0325
 3156TIP3   OH230882   0.225   3.434  13.919 -0.5743 -0.1776 -0.3203
 3156TIP3    H130883   0.197   3.342  13.928 -0.6187  0.0345  2.1761
 3156TIP3    H230884   0.320   3.430  13.916 -0.6140 -0.3998 -1.9401
 3157TIP3   OH230885   1.050   3.972  15.830 -0.0567 -0.7982 -0.1214
 3157TIP3    H130886   1.040   4.043  15.767  0.6876 -0.0368  0.6153
 3157TIP3    H230887   0.974   3.916  15.814 -0.7534  0.2549 -0.5813
 3158TIP3   OH230888   5.236   4.217   1.867 -0.6594  0.0031  0.0157
 3158TIP3    H130889   5.225   4.152   1.937  0.8797 -0.2829  0.0052
 3158TIP3    H230890   5.163   4.278   1.880 -1.1817 -0.8107  1.0274
 3159TIP3   OH230891   5.625   4.705  17.095 -0.7687 -0.3846  0.3270
 3159TIP3    H130892   5.590   4.698  17.183  1.3556  0.2797  1.2555
 3159TIP3    H230893   5.559   4.755  17.047 -0.9973  1.0807  2.1041
 3160TIP3   OH230894   6.057   5.497  13.033  0.0698  0.1984  0.2171
 3160TIP3    H130895   6.009   5.415  13.037 -0.4089  0.5227  1.5421
 3160TIP3    H230896   6.045   5.536  13.120  3.6620 -0.2304  0.9823
 3161TIP3   OH230897   4.297   1.854   4.755  0.2576  0.4843  0.1737
 3161TIP3    H130898   4.332   1.767   4.775  0.0251  0.6246  1.2295
 3161TIP3    H230899   4.374   1.907   4.734  0.2080 -0.6293 -3.1660
 3162TIP3   OH230900   4.499   5.871   2.940 -0.7031 -0.8135  0.5690
 3162TIP3    H130901   4.440   5.860   3.014 -1.9035 -1.8571 -0.5095
 3162TIP3    H230902   4.463   5.814   2.872 -1.6159  2.6305 -1.9918
 3163TIP3   OH230903   5.732   6.461  11.400  0.0006 -0.0644  0.5404
 3163TIP3    H130904   5.736   6.549  11.364  2.2019 -0.2827  0.1346
 3163TIP3    H230905   5.677   6.468  11.478  0.9561  1.8644  1.0588
 3164TIP3   OH230906   2.516   3.194   5.573 -0.7188  0.0831 -0.1265
 3164TIP3    H130907   2.541   3.228   5.658  1.0585 -0.9461 -0.2250
 3164TIP3    H230908   2.432   3.150   5.589 -1.6446  2.0346  0.5545
 3165TIP3   OH230909   4.729   3.847  14.925 -0.7640  0.0536  0.3114
 3165TIP3    H130910   4.821   3.868  14.942 -1.3295  0.2827  3.2718
 3165TIP3    H230911   4.680   3.902  14.986 -2.6895 -2.8727  1.5076
 3166TIP3   OH230912   1.839   4.650   3.127  0.5111 -0.0421  0.5296
 3166TIP3    H130913   1.750   4.670   3.157  0.2774 -0.1488 -0.0677
 3166TIP3    H230914   1.827   4.579   3.064  0.9437  0.3864 -0.0458
 3167TIP3   OH230915   3.985   2.246  16.547 -0.5244 -0.5760 -0.2401
 3167TIP3    H130916   3.913   2.307  16.532  0.3511  0.9983  1.8419
 3167TIP3    H230917   3.956   2.165  16.503 -2.5864  0.6611 -1.2860
 3168TIP3   OH230918   0.729   4.206   3.226 -0.2999 -0.6480 -0.2440
 3168TIP3    H130919   0.768   4.279   3.275 -0.1572 -0.5427 -0.5128
 3168TIP3    H230920   0.683   4.155   3.292 -0.9667  0.0601 -0.1429
 3169TIP3   OH230921   5.682   1.883  15.262  0.2729  0.3022  0.3315
 3169TIP3    H130922   5.604   1.868  15.208 -0.3554 -0.1202  1.3354
 3169TIP3    H230923   5.748   1.823  15.227 -0.0885  0.1327 -0.0568
 3170TIP3   OH230924   1.524   2.535  11.627  0.5499 -0.1057 -0.0925
 3170TIP3    H130925   1.502   2.613  11.677 -2.6524 -1.4478  0.7144
 3170TIP3    H230926   1.479   2.547  11.543 -0.2890 -1.2309  0.1832
 3171TIP3   OH230927   4.555   4.085   3.063 -0.2027 -0.0967  0.5659
 3171TIP3    H130928   4.461   4.098   3.071  0.1478  1.4447  2.3650
 3171TIP3    H230929   4.573   4.097   2.969 -1.9393 -1.5774  0.0261
 3172TIP3   OH230930   6.644   4.246  14.859  0.2558  0.2863 -0.2982
 3172TIP3    H130931   6.668   4.170  14.913  1.2474  0.9292  0.1686
 3172TIP3    H230932   6.689   4.320  14.900  2.2987  0.5402 -2.8917
 3173TIP3   OH230933   1.075   0.042  16.683  0.3061  0.0294  0.0771
 3173TIP3    H130934   1.039   0.123  16.646  1.2947  0.1147 -0.6895
 3173TIP3    H230935   1.168   0.059  16.693  0.5022 -0.9856  0.0089
 3174TIP3   OH230936   4.496   1.115  13.778 -0.2249 -0.1859  0.0382
 3174TIP3    H130937   4.459   1.028  13.760  1.0675 -0.7114 -0.0853
 3174TIP3    H230938   4.530   1.145  13.693 -1.1074  0.6648 -0.0293
 3175TIP3   OH230939   5.324   3.987   0.479  0.5171 -0.3375  0.2703
 3175TIP3    H130940   5.392   4.039   0.521  1.5325 -1.5410  0.1164
 3175TIP3    H230941   5.339   3.998   0.386 -0.3008  0.4278  0.2144
 3176TIP3   OH230942   4.273   2.773  12.979 -0.0131  0.1671  0.3160
 3176TIP3    H130943   4.294   2.866  12.980 -1.2357  0.5097 -1.5479
 3176TIP3    H230944   4.356   2.730  12.959  0.4091  0.9294  0.3997
 3177TIP3   OH230945   3.677   4.628  14.163  0.1447  0.4923 -0.2131
 3177TIP3    H130946   3.662   4.651  14.071  1.7798 -0.3487 -0.7164
 3177TIP3    H230947   3.592   4.640  14.205 -0.1940  2.7802 -1.4220
 3178TIP3   OH230948   4.996   2.159  16.132 -0.0755  0.2561  0.1313
 3178TIP3    H130949   4.946   2.206  16.065 -0.5948 -1.2947 -0.5949
 3178TIP3    H230950   4.958   2.189  16.215 -0.4672  1.0355 -0.3231
 3179TIP3   OH230951   3.168   4.463  17.010  0.5376  0.0439 -0.0478
 3179TIP3    H130952   3.109   4.499  17.076  0.5555 -0.2060  0.1054
 3179TIP3    H230953   3.168   4.528  16.940  3.5658  2.2139  1.8435
 3180TIP3   OH230954   0.239   3.712   4.857  0.7486  0.1562  0.3645
 3180TIP3    H130955   0.216   3.781   4.919 -0.1080  0.2724 -0.0664
 3180TIP3    H230956   0.187   3.732   4.779  1.0555 -0.5533 -0.0283
 3181TIP3   OH230957   0.133   6.267   5.208 -0.6239 -0.1466 -0.6633
 3181TIP3    H130958   0.221   6.230   5.201 -0.4851  0.4112 -2.0589
 3181TIP3    H230959   0.075   6.191   5.212 -0.0259 -0.5362  1.3439
 3182TIP3   OH230960   1.586   1.997   3.979 -0.5050  0.2648 -0.3338
 3182TIP3    H130961   1.626   2.081   4.002 -0.9120  0.9736 -2.1620
 3182TIP3    H230962   1.506   2.020   3.933 -1.7927 -1.1547  1.1530
 3183TIP3   OH230963   0.934   6.211   6.424  0.0252  0.3129  0.1124
 3183TIP3    H130964   0.840   6.194   6.433  0.4388 -2.0986  0.1324
 3183TIP3    H230965   0.974   6.163   6.496  1.4836 -0.7797 -1.3921
 3184TIP3   OH230966   4.696   4.952  15.302 -0.3259  0.4457 -0.6922
 3184TIP3    H130967   4.772   5.008  15.293  1.1449 -1.1104  1.4366
 3184TIP3    H230968   4.685   4.911  15.217  0.4034  1.6790 -1.3874
 3185TIP3   OH230969   4.145   3.966   2.579 -0.1132 -0.0751  0.2565
 3185TIP3    H130970   4.055   3.991   2.601 -0.1029 -0.9700  1.3462
 3185TIP3    H230971   4.137   3.914   2.500 -0.3379  1.5916 -0.8492
 3186TIP3   OH230972   5.443   4.597  10.562 -0.2527 -0.0545  0.5509
 3186TIP3    H130973   5.480   4.513  10.535  0.2313 -0.0804  1.2849
 3186TIP3    H230974   5.367   4.609  10.504  2.2669  1.1766 -2.6897
 3187TIP3   OH230975   3.303   0.039   0.014 -0.1103  0.5712  0.3260
 3187TIP3    H130976   3.368   0.068  -0.050 -0.5778 -1.9421 -1.3494
 3187TIP3    H230977   3.351  -0.019   0.072 -0.4884 -0.0042  0.0655
 3188TIP3   OH230978   1.425   6.382  16.308  0.1331  0.5243  0.0512
 3188TIP3    H130979   1.441   6.289  16.324  3.1062  1.1367  1.0015
 3188TIP3    H230980   1.497   6.409  16.252 -1.4938  1.9670 -1.3746
 3189TIP3   OH230981   2.928   4.111   4.326 -0.6879 -0.2565 -0.9466
 3189TIP3    H130982   2.970   4.173   4.386 -0.0867  0.7553 -2.3840
 3189TIP3    H230983   2.927   4.028   4.374  1.8364  0.0011 -0.3731
 3190TIP3   OH230984   2.814   2.367   4.105  0.2764  0.0533 -0.0583
 3190TIP3    H130985   2.836   2.458   4.124  0.2707 -0.0471  0.4568
 3190TIP3    H230986   2.780   2.368   4.016 -0.3027  0.6508  0.1696
 3191TIP3   OH230987   6.375   5.838  17.151  0.4671  0.3335 -0.1584
 3191TIP3    H130988   6.383   5.930  17.128  0.5840 -0.1959 -2.4448
 3191TIP3    H230989   6.463   5.802  17.136  0.7202  0.0854  1.8732
 3192TIP3   OH230990   0.012   4.528  15.303 -0.1030 -0.0916  0.6341
 3192TIP3    H130991   0.069   4.475  15.248 -0.8943 -1.3372  0.9938
 3192TIP3    H230992   0.040   4.618  15.287  1.2127 -0.6048 -0.0338
 3193TIP3   OH230993   4.190   4.792   2.487 -0.1097 -0.5173  0.2172
 3193TIP3    H130994   4.204   4.817   2.395 -0.1010 -1.3796 -0.0185
 3193TIP3    H230995   4.277   4.766   2.518 -0.4571 -2.0893 -0.0972
 3194TIP3   OH230996   0.193   0.681  12.062 -0.0857 -0.3196  0.0228
 3194TIP3    H130997   0.159   0.714  12.145 -0.4143 -0.0909 -0.2040
 3194TIP3    H230998   0.288   0.692  12.070 -0.0363 -1.1679  0.7407
 3195TIP3   OH230999   2.450   6.060   6.468 -0.3746 -0.0647  0.1590
 3195TIP3    H131000   2.398   6.000   6.521 -2.1085  0.4529 -0.9198
 3195TIP3    H231001   2.481   6.126   6.530  1.8759 -2.2483  1.4226
 3196TIP3   OH231002   4.033   2.493   1.325  0.2511 -0.1907 -0.3644
 3196TIP3    H131003   3.969   2.478   1.395  1.4639 -0.5002  0.7025
 3196TIP3    H231004   3.981   2.524   1.251 -1.0555  0.1211  0.6673
 3197TIP3   OH231005   2.400   6.517  13.404  0.1714  0.4082 -0.0996
 3197TIP3    H131006   2.416   6.501  13.497  0.9808 -0.4109 -0.3716
 3197TIP3    H231007   2.485   6.546  13.370  0.6296 -2.0350 -1.1501
 3198TIP3   OH231008   4.264   6.518   0.060 -0.4757  0.6759  0.7048
 3198TIP3    H131009   4.349   6.543   0.096  0.9230 -2.0786 -0.4699
 3198TIP3    H231010   4.283   6.492  -0.030 -2.6187  0.2644  0.3378
 3199TIP3   OH231011   0.534   6.683   0.247 -0.7500 -0.3899 -0.2501
 3199TIP3    H131012   0.441   6.707   0.256 -0.8313 -1.3282  1.5403
 3199TIP3    H231013   0.576   6.764   0.218 -2.1416  0.0030 -1.2568
 3200TIP3   OH231014   0.918   5.982  13.853 -0.1926 -0.6304 -0.2285
 3200TIP3    H131015   0.888   5.953  13.766  1.9965  0.2978 -1.3339
 3200TIP3    H231016   0.957   5.904  13.891 -1.1747 -1.0474 -0.0488
 3201TIP3   OH231017   5.323   5.688  14.615 -0.0168  0.1597 -0.0288
 3201TIP3    H131018   5.257   5.632  14.656 -0.3344  0.6801  0.1774
 3201TIP3    H231019   5.386   5.706  14.685  0.4636 -0.5058 -0.2805
 3202TIP3   OH231020   6.419   1.218   6.043  0.4677 -0.3912  0.1192
 3202TIP3    H131021   6.342   1.271   6.066  1.3310  0.6265  0.7259
 3202TIP3    H231022   6.479   1.281   6.004  0.4168 -1.4552 -1.7280
 3203TIP3   OH231023   0.688   6.323  12.322 -0.5747 -0.1367  0.5785
 3203TIP3    H131024   0.695   6.375  12.242 -2.1170  0.5827  0.9107
 3203TIP3    H231025   0.672   6.234  12.290  0.0793 -0.0715  0.0576
 3204TIP3   OH231026   5.429   4.106  13.165 -0.1072 -0.5395  0.5951
 3204TIP3    H131027   5.431   4.198  13.139 -2.6012 -0.3740  0.8755
 3204TIP3    H231028   5.466   4.059  13.090 -0.3107  0.5636 -0.2048
 3205TIP3   OH231029   3.922   4.037   1.208  0.5139 -0.0446 -0.6740
 3205TIP3    H131030   3.856   3.998   1.267 -1.0290 -0.9142 -2.8934
 3205TIP3    H231031   3.992   4.066   1.266 -0.8377 -1.1188  1.5688
 3206TIP3   OH231032   1.680   2.036   3.027 -0.1564  0.1368  0.1391
 3206TIP3    H131033   1.665   2.077   2.942 -0.3079 -0.2510 -0.0213
 3206TIP3    H231034   1.744   2.093   3.069  0.0516  0.2373 -0.3058
 3207TIP3   OH231035   5.175   1.212   2.615  0.2314  0.5123  0.2221
 3207TIP3    H131036   5.151   1.145   2.679 -1.1584  0.3187 -0.4870
 3207TIP3    H231037   5.092   1.255   2.593  0.6389  0.3875 -1.6433
 3208TIP3   OH231038   1.015   1.428   3.410  0.3846 -0.1861 -0.2160
 3208TIP3    H131039   1.080   1.479   3.459  0.1361 -1.5653  1.6252
 3208TIP3    H231040   0.939   1.485   3.403  1.8323  1.5506 -2.6253
 3209TIP3   OH231041   6.687   0.322   3.019 -0.0931  0.5532 -0.0028
 3209TIP3    H131042   6.743   0.399   3.005  0.3038  0.2451 -0.1297
 3209TIP3    H231043   6.609   0.357   3.061  0.5844  0.8512  1.0259
 3210TIP3   OH231044   2.970   6.566  13.041  0.1675 -0.5082 -0.3653
 3210TIP3    H131045   3.016   6.589  13.122 -0.2543 -0.4757 -0.1324
 3210TIP3    H231046   2.933   6.479  13.059  0.0059 -0.4665 -0.4934
 3211TIP3   OH231047   0.848   1.064   2.207 -0.5713  0.7933 -0.3283
 3211TIP3    H131048   0.913   1.025   2.266 -0.5816  0.3377 -0.6146
 3211TIP3    H231049   0.884   1.149   2.183 -0.1137  0.5672 -0.4354
 3212TIP3   OH231050   5.294   2.945   4.706 -0.4413  0.0867 -0.5105
 3212TIP3    H131051   5.262   2.907   4.624 -0.2895 -0.7187 -0.2041
 3212TIP3    H231052   5.388   2.927   4.705 -0.0574  2.0185 -1.1814
 3213TIP3   OH231053   2.814   5.101  15.601  0.0252 -0.4617  0.4835
 3213TIP3    H131054   2.904   5.117  15.573 -0.4196  1.6089  0.1950
 3213TIP3    H231055   2.770   5.068  15.523 -0.4817  2.4997 -0.5126
 3214TIP3   OH231056   0.594   2.738  14.305 -0.3413  0.2523 -0.5078
 3214TIP3    H131057   0.569   2.826  14.335 -0.7398 -0.3398  0.9763
 3214TIP3    H231058   0.688   2.733  14.321 -0.5263 -0.0052  0.5458
 3215TIP3   OH231059   6.017   5.966  16.213 -0.5407  0.2244  0.1186
 3215TIP3    H131060   6.078   5.975  16.139 -0.1907  2.9209  0.6815
 3215TIP3    H231061   6.050   5.891  16.262  2.0567  1.3098  0.1147
 3216TIP3   OH231062   4.687   6.322  13.166  0.2801 -0.4194  0.6019
 3216TIP3    H131063   4.700   6.254  13.233  0.1634 -0.7920  0.2488
 3216TIP3    H231064   4.730   6.287  13.088 -1.6855 -1.0881 -0.2141
 3217TIP3   OH231065   4.537   6.715   4.431  0.0606  0.0331 -0.3954
 3217TIP3    H131066   4.608   6.657   4.405  0.9640  1.2968 -0.7592
 3217TIP3    H231067   4.464   6.656   4.450  0.8667 -1.1997 -1.0745
 3218TIP3   OH231068   3.312   2.519   1.460 -0.4361 -0.0234 -0.0767
 3218TIP3    H131069   3.247   2.555   1.522 -1.1494 -0.3223 -0.6481
 3218TIP3    H231070   3.388   2.577   1.469 -1.3012  1.1761 -0.4349
 3219TIP3   OH231071   0.610   4.255  13.568  0.7537  0.0317  0.5176
 3219TIP3    H131072   0.540   4.214  13.517  0.2800  1.3208  0.1052
 3219TIP3    H231073   0.564   4.317  13.625  1.5764  1.0974  0.0327
 3220TIP3   OH231074   2.509   5.436   2.281  0.2498 -0.1800 -0.0210
 3220TIP3    H131075   2.519   5.426   2.375  1.5710  1.6331  0.0599
 3220TIP3    H231076   2.475   5.526   2.270  1.7772  0.2581 -1.3479
 3221TIP3   OH231077   2.215   3.408   1.808 -0.0029 -0.6923  0.5223
 3221TIP3    H131078   2.235   3.319   1.835 -0.5132 -0.8404  0.4292
 3221TIP3    H231079   2.283   3.431   1.745  0.9093 -0.5208  1.5537
 3222TIP3   OH231080   1.099   2.248   3.937 -0.1196  0.4717 -0.1028
 3222TIP3    H131081   1.067   2.170   3.982  0.1928  1.6757  2.3601
 3222TIP3    H231082   1.080   2.233   3.845  0.1020 -2.5633  0.2903
 3223TIP3   OH231083   3.647   3.103  15.064 -0.2314  0.3608 -0.5432
 3223TIP3    H131084   3.720   3.162  15.082  1.4426 -1.5593 -0.7965
 3223TIP3    H231085   3.571   3.147  15.101  1.4279  1.3644  1.8041
 3224TIP3   OH231086   6.085   3.137   5.053  0.2962 -0.7729  0.3878
 3224TIP3    H131087   6.116   3.056   5.013 -0.4077 -1.6951  1.6976
 3224TIP3    H231088   6.135   3.145   5.134  2.1445  1.4040 -0.9092
 3225TIP3   OH231089   5.759   4.096  15.149 -0.1709  0.2503 -0.1729
 3225TIP3    H131090   5.709   4.177  15.142 -2.3309 -1.1457 -1.3042
 3225TIP3    H231091   5.693   4.026  15.148  1.6951 -1.5725 -0.0688
 3226TIP3   OH231092   1.998   2.302   0.805  0.8455  0.2791 -0.3521
 3226TIP3    H131093   2.065   2.345   0.751  0.8601  1.7593  0.8044
 3226TIP3    H231094   2.045   2.270   0.881  0.6661 -1.0145 -0.7711
 3227TIP3   OH231095   5.043   5.237  14.328  0.4019  0.0048  0.2047
 3227TIP3    H131096   5.004   5.243  14.415 -0.3866 -0.5987 -0.1051
 3227TIP3    H231097   5.117   5.298  14.331 -0.0358  0.4985  1.0715
 3228TIP3   OH231098   1.013   1.130  11.708  0.3951 -0.2570 -0.2503
 3228TIP3    H131099   1.002   1.201  11.646 -1.9569 -0.0929  0.3171
 3228TIP3    H231100   0.979   1.053  11.662  1.3064 -0.6748 -0.2228
 3229TIP3   OH231101   4.479   6.133   4.468  0.3499  0.1480  0.6865
 3229TIP3    H131102   4.529   6.106   4.545 -2.0517 -0.5456  2.0582
 3229TIP3    H231103   4.488   6.228   4.465  2.1399  0.0008  0.5918
 3230TIP3   OH231104   3.066   0.965  11.998  0.2360 -0.5011 -0.6007
 3230TIP3    H131105   3.155   0.983  12.028 -0.6125 -0.2522  1.9151
 3230TIP3    H231106   3.064   0.994  11.907  3.1015 -1.7585 -1.1094
 3231TIP3   OH231107   5.529   2.605   5.314  0.2382 -0.2354  0.2522
 3231TIP3    H131108   5.559   2.695   5.325  1.3230 -0.2698 -2.1535
 3231TIP3    H231109   5.438   2.613   5.284  0.0048  0.0133  1.0027
 3232TIP3   OH231110   3.518   2.269   4.628  0.5404  0.5254  0.5414
 3232TIP3    H131111   3.536   2.336   4.693 -0.6945  2.2740 -0.8860
 3232TIP3    H231112   3.566   2.297   4.550  1.7270 -1.3743  0.5481
 3233TIP3   OH231113   5.024   4.935   1.415 -0.5687 -0.2165  0.1088
 3233TIP3    H131114   5.070   4.880   1.352 -2.0517 -0.7192 -0.5693
 3233TIP3    H231115   4.982   4.873   1.475  0.7889  0.2577  1.5920
 3234TIP3   OH231116   4.473   1.546   1.454  0.2764  0.0481 -0.0042
 3234TIP3    H131117   4.382   1.567   1.430  0.5838  2.2646  0.6790
 3234TIP3    H231118   4.507   1.499   1.378 -0.5002  1.9946 -1.6000
 3235TIP3   OH231119   0.134   6.577   4.191 -0.2400  0.7665 -0.6076
 3235TIP3    H131120   0.091   6.492   4.182 -0.8432  1.2195 -2.0525
 3235TIP3    H231121   0.215   6.568   4.141 -0.8716  1.4223 -1.7617
 3236TIP3   OH231122   1.574   3.299  15.195  0.3464  0.3952 -0.1699
 3236TIP3    H131123   1.503   3.295  15.132  0.1133  0.7453  0.0668
 3236TIP3    H231124   1.612   3.211  15.195 -1.6169 -0.4814  1.4693
 3237TIP3   OH231125   5.907   5.774  14.719 -0.5200 -0.2256  0.1205
 3237TIP3    H131126   5.930   5.683  14.701 -0.2403  0.1760 -1.6208
 3237TIP3    H231127   5.931   5.787  14.811  0.5444 -1.5714  0.0498
 3238TIP3   OH231128   2.288   0.356   4.623  0.6990  0.2234 -0.9250
 3238TIP3    H131129   2.348   0.431   4.620  0.6031  0.3112 -0.7195
 3238TIP3    H231130   2.229   0.376   4.696  1.3426 -0.5512 -0.1759
 3239TIP3   OH231131   4.430   5.248  13.783  0.0684 -0.1161 -0.0594
 3239TIP3    H131132   4.381   5.330  13.779 -0.6618 -0.4589  1.7050
 3239TIP3    H231133   4.453   5.237  13.875  3.9831  0.2907 -0.8810
 3240TIP3   OH231134   4.148   4.902  11.675  0.1905  0.1900 -0.6280
 3240TIP3    H131135   4.211   4.970  11.650 -1.2421  1.6446 -0.3658
 3240TIP3    H231136   4.137   4.851  11.595  0.8984  0.5821 -0.9871
 3241TIP3   OH231137   3.147   1.588  16.571  0.1490 -0.5618 -0.4165
 3241TIP3    H131138   3.073   1.536  16.539 -0.9975 -1.3840  3.4147
 3241TIP3    H231139   3.109   1.645  16.638  2.4873  1.0481 -0.4275
 3242TIP3   OH231140   3.644   1.883  15.780  0.4429 -0.1001  0.1600
 3242TIP3    H131141   3.593   1.826  15.722  1.7357 -0.2737 -0.8496
 3242TIP3    H231142   3.718   1.829  15.807 -0.7840 -0.4437  3.0348
 3243TIP3   OH231143   3.077   2.702  11.795  0.7240 -0.0033 -0.2897
 3243TIP3    H131144   3.002   2.734  11.845  0.2508  1.6192 -1.9844
 3243TIP3    H231145   3.042   2.629  11.744  0.2065  0.8950 -1.2521
 3244TIP3   OH231146   5.647   4.135  13.438 -0.2877 -0.0427 -0.5686
 3244TIP3    H131147   5.644   4.056  13.492  0.4572  0.4781  0.2679
 3244TIP3    H231148   5.587   4.196  13.481  0.7182  0.5665  0.0153
 3245TIP3   OH231149   6.750   0.072  16.576  0.0415 -0.2385 -0.2112
 3245TIP3    H131150   6.703   0.002  16.532  0.6562 -0.4188 -0.5950
 3245TIP3    H231151   6.827   0.088  16.520  0.4654  0.0023  0.4311
 3246TIP3   OH231152   6.513   6.642  16.076  0.4722  0.4338 -0.4861
 3246TIP3    H131153   6.586   6.667  16.134  0.2581  0.9020 -0.4157
 3246TIP3    H231154   6.435   6.652  16.130  0.5326 -2.7276  0.3100
 3247TIP3   OH231155   0.162   2.709  17.149  0.0619 -0.3317 -0.1056
 3247TIP3    H131156   0.092   2.726  17.086 -0.0622  0.5699  0.2732
 3247TIP3    H231157   0.132   2.634  17.199  0.1009 -0.9768 -1.0319
 3248TIP3   OH231158   2.364   3.118  14.311  0.1855  0.2649 -0.2850
 3248TIP3    H131159   2.358   3.213  14.321 -0.4094  0.2790 -0.7481
 3248TIP3    H231160   2.288   3.095  14.258  2.1075 -0.0700 -2.9841
 3249TIP3   OH231161   5.635   6.293  16.308 -0.0704 -0.1676 -0.0332
 3249TIP3    H131162   5.602   6.318  16.222  0.9588 -0.6239 -0.5770
 3249TIP3    H231163   5.718   6.249  16.290  0.2023 -0.1904  1.2016
 3250TIP3   OH231164   0.983   2.843   5.405 -0.1459  0.0519  0.1381
 3250TIP3    H131165   0.904   2.865   5.453  0.3600  1.4665  0.3378
 3250TIP3    H231166   0.952   2.804   5.323 -1.0240 -0.4553  0.7147
 3251TIP3   OH231167   4.106   5.477  15.132 -0.1990 -0.2784  0.3201
 3251TIP3    H131168   4.172   5.467  15.064  0.1742  0.8562  0.5181
 3251TIP3    H231169   4.023   5.482  15.084  0.2863  3.0895 -0.2235
 3252TIP3   OH231170   5.527   3.596  11.411 -0.6417  0.8667  0.4774
 3252TIP3    H131171   5.543   3.566  11.501  1.4070 -0.8188 -0.3936
 3252TIP3    H231172   5.478   3.525  11.370 -1.5811  1.6360  0.2657
 3253TIP3   OH231173   5.088   3.970  11.809 -0.2586  0.3500 -0.2050
 3253TIP3    H131174   5.159   4.013  11.856  0.8802  0.3682 -1.8975
 3253TIP3    H231175   5.020   4.037  11.801 -0.2051  0.5367  0.8456
 3254TIP3   OH231176   0.412   6.619  15.383  0.7087  0.7021 -1.1525
 3254TIP3    H131177   0.459   6.669  15.449 -2.9702  1.9835  0.6144
 3254TIP3    H231178   0.422   6.671  15.303  2.7871  0.6244 -0.9559
 3255TIP3   OH231179   5.232   5.516   5.630 -0.2275 -0.2188  0.8364
 3255TIP3    H131180   5.301   5.450   5.629 -0.5436 -0.5555 -0.2956
 3255TIP3    H231181   5.247   5.566   5.710  1.8393  0.2725  0.1666
 3256TIP3   OH231182   2.702   3.149   3.114 -0.2845  0.7704  0.3356
 3256TIP3    H131183   2.773   3.207   3.085  0.0925  0.5858  0.8665
 3256TIP3    H231184   2.631   3.207   3.139 -0.0063  0.9916  0.6091
 3257TIP3   OH231185   1.657   3.449   4.243 -0.7398  0.2433 -0.1869
 3257TIP3    H131186   1.600   3.502   4.299 -0.3815  1.0820 -0.6122
 3257TIP3    H231187   1.615   3.363   4.242 -1.9051  0.8020 -0.3342
 3258TIP3   OH231188   6.468   0.276  14.372 -0.0056  0.2660 -0.4651
 3258TIP3    H131189   6.563   0.287  14.378 -0.0433  0.4265 -0.1913
 3258TIP3    H231190   6.455   0.231  14.288  0.1096  2.7547 -1.8665
 3259TIP3   OH231191   3.616   6.115  16.129 -0.2812  0.5100 -0.4517
 3259TIP3    H131192   3.662   6.146  16.207 -1.3953 -0.8726  0.7918
 3259TIP3    H231193   3.671   6.144  16.055  2.3065 -0.6424  0.9570
 3260TIP3   OH231194   0.911   4.244  13.746  0.3729 -0.1652 -0.1156
 3260TIP3    H131195   0.968   4.276  13.677 -1.1692  1.2202 -0.7814
 3260TIP3    H231196   0.864   4.170  13.707 -0.2305  0.3845 -0.4232
 3261TIP3   OH231197   3.733   0.331   4.689  0.3663 -0.2273  0.4475
 3261TIP3    H131198   3.797   0.293   4.750  1.0693 -0.1714 -0.2365
 3261TIP3    H231199   3.694   0.255   4.646  1.4863 -0.2206 -0.6327
 3262TIP3   OH231200   1.879   3.918   3.835  0.6537 -0.6008  0.2845
 3262TIP3    H131201   1.964   3.882   3.809  1.5308  0.0285  2.1965
 3262TIP3    H231202   1.878   3.911   3.931 -0.0393  2.4492  0.5562
 3263TIP3   OH231203   4.617   2.648   1.483  0.0897  0.3126 -0.3330
 3263TIP3    H131204   4.544   2.676   1.427 -0.6488  1.1371  0.9922
 3263TIP3    H231205   4.656   2.730   1.515 -0.1306 -0.1234  1.1269
 3264TIP3   OH231206   1.656   0.780   6.566 -0.0103 -0.2477  0.4225
 3264TIP3    H131207   1.705   0.777   6.484 -0.2365  0.9189  0.2413
 3264TIP3    H231208   1.712   0.734   6.629  0.0839 -1.2882 -0.4160
 3265TIP3   OH231209   4.416   2.146   0.718 -0.2224 -0.4409  0.0212
 3265TIP3    H131210   4.419   2.217   0.782  1.3372  2.1353 -2.7630
 3265TIP3    H231211   4.471   2.077   0.756  0.7788  1.0808  1.4144
 3266TIP3   OH231212   2.052   4.466   3.931 -0.0393  0.4789  0.6078
 3266TIP3    H131213   2.111   4.478   3.857 -1.4128  1.4473 -0.3750
 3266TIP3    H231214   1.965   4.460   3.891 -0.8104  1.0872  2.1383
 3267TIP3   OH231215   3.977   1.094  12.612 -0.1765  0.0311  0.6539
 3267TIP3    H131216   4.047   1.156  12.635  0.6735 -0.0384 -1.6193
 3267TIP3    H231217   4.004   1.059  12.527 -2.2071 -1.1691  0.4950
 3268TIP3   OH231218   3.937   2.601  16.092 -0.1391 -0.4080 -0.3495
 3268TIP3    H131219   3.921   2.633  16.003  3.5309 -1.4843 -1.4659
 3268TIP3    H231220   3.926   2.679  16.147 -0.0722  0.8213 -2.0047
 3269TIP3   OH231221   3.583   6.752   2.553  0.5700  0.1029  0.6157
 3269TIP3    H131222   3.549   6.753   2.643 -0.7995  1.1675  0.1114
 3269TIP3    H231223   3.562   6.665   2.520  1.9037 -0.6092  1.6257
 3270TIP3   OH231224   1.886   2.228  11.078 -0.4223 -0.1221 -0.3298
 3270TIP3    H131225   1.800   2.188  11.086 -0.6514  0.7313  1.6859
 3270TIP3    H231226   1.948   2.155  11.087 -0.8873 -0.3952  0.7307
 3271TIP3   OH231227   6.018   2.708  12.726  0.3850  0.6457  0.2546
 3271TIP3    H131228   6.087   2.748  12.779 -0.1474  2.3236 -0.2984
 3271TIP3    H231229   5.939   2.717  12.780 -0.2197  2.6422 -0.9152
 3272TIP3   OH231230   1.247   6.228   1.885  0.2105 -0.5037 -0.6003
 3272TIP3    H131231   1.156   6.209   1.908  0.6728 -2.5085 -0.2900
 3272TIP3    H231232   1.259   6.188   1.799  0.8513 -0.4273 -0.5514
 3273TIP3   OH231233   3.260   1.831   3.185 -0.0427 -0.2058 -0.0768
 3273TIP3    H131234   3.315   1.781   3.244 -0.6874 -0.8624 -0.0305
 3273TIP3    H231235   3.233   1.908   3.236  2.0416  0.9027 -0.5909
 3274TIP3   OH231236   2.031   1.912  16.176 -0.1269  0.1383 -0.7545
 3274TIP3    H131237   2.108   1.956  16.141  1.4336 -0.5283  1.7338
 3274TIP3    H231238   2.061   1.825  16.201 -1.3215  0.3279  1.5134
 3275TIP3   OH231239   1.895   0.365   5.356 -0.5984 -0.0181 -0.2605
 3275TIP3    H131240   1.831   0.349   5.425  1.1015 -0.1362  1.3320
 3275TIP3    H231241   1.853   0.429   5.299 -1.4578  1.2134  1.7017
 3276TIP3   OH231242   1.552   6.407  13.591 -0.1731 -0.4019  0.0086
 3276TIP3    H131243   1.517   6.328  13.634  0.4644 -0.8783 -0.3522
 3276TIP3    H231244   1.644   6.410  13.617 -0.3243  0.5299  0.4701
 3277TIP3   OH231245   3.657   1.880  13.529 -0.5496  0.1203 -0.2123
 3277TIP3    H131246   3.564   1.860  13.526 -0.4363 -0.3365 -0.9569
 3277TIP3    H231247   3.688   1.861  13.440 -0.1302  2.1432 -0.5208
 3278TIP3   OH231248   6.748   4.015   0.915 -0.4764 -0.3281  0.5232
 3278TIP3    H131249   6.779   4.041   1.001 -0.2204  0.9984  0.0429
 3278TIP3    H231250   6.817   3.957   0.881  0.4057  0.7669  0.3979
 3279TIP3   OH231251   4.813   6.324   1.723 -0.3730  0.0360  0.4151
 3279TIP3    H131252   4.824   6.230   1.731 -0.7968  0.0354  1.1295
 3279TIP3    H231253   4.894   6.361   1.758 -0.6682 -0.0548  1.2319
 3280TIP3   OH231254   0.740   0.094   1.657 -0.5997 -0.2628 -0.0436
 3280TIP3    H131255   0.763   0.069   1.568  0.3214 -0.4711  0.2486
 3280TIP3    H231256   0.821   0.087   1.706 -1.0810 -0.0666  0.7996
 3281TIP3   OH231257   4.124   6.705   2.963  0.0760 -0.8457  0.4526
 3281TIP3    H131258   4.140   6.613   2.985 -0.7476 -1.4372 -1.2774
 3281TIP3    H231259   4.133   6.708   2.867 -0.7272  0.7062  0.4163
 3282TIP3   OH231260   1.728   0.311   5.554  0.2517 -0.2415  0.1542
 3282TIP3    H131261   1.658   0.332   5.616 -0.0680  1.3801 -0.7385
 3282TIP3    H231262   1.766   0.229   5.587 -0.3042  0.2900  2.1445
 3283TIP3   OH231263   3.312   2.487   3.674 -0.2943 -0.0215 -0.1128
 3283TIP3    H131264   3.308   2.435   3.754 -0.1605  0.1419  0.0019
 3283TIP3    H231265   3.357   2.568   3.701 -1.1672  0.4728 -0.1051
 3284TIP3   OH231266   1.046   6.170   2.082 -0.3538  0.8825 -0.2002
 3284TIP3    H131267   1.045   6.138   2.172  2.7596  0.7156 -0.1836
 3284TIP3    H231268   1.042   6.265   2.090 -0.2872  0.8581  0.1105
 3285TIP3   OH231269   4.544   4.880   4.233 -0.0613 -0.3577  0.2008
 3285TIP3    H131270   4.477   4.946   4.253  0.5106  0.2468  0.1135
 3285TIP3    H231271   4.617   4.930   4.197  1.2278 -0.7902  2.1536
 3286TIP3   OH231272   6.221   6.076   2.813 -0.2379 -0.0416 -0.4933
 3286TIP3    H131273   6.269   6.109   2.737 -0.0419  0.5372 -0.1277
 3286TIP3    H231274   6.130   6.075   2.785 -0.6249  3.5492  0.3681
 3287TIP3   OH231275   2.971   3.212   5.355  0.1233  0.5287 -0.3448
 3287TIP3    H131276   2.910   3.283   5.375 -0.4459  0.0435 -0.3476
 3287TIP3    H231277   3.013   3.191   5.438  0.2074  0.7941 -0.3225
 3288TIP3   OH231278   5.814   5.319  15.870  0.3039 -0.5795 -0.3101
 3288TIP3    H131279   5.860   5.364  15.940 -1.1676 -1.0283  1.0003
 3288TIP3    H231280   5.730   5.365  15.862 -0.5499 -2.0390 -0.0623
 3289TIP3   OH231281   4.216   6.650   2.704  0.3839 -0.8633 -0.1202
 3289TIP3    H131282   4.301   6.668   2.665 -0.1294  1.3091 -0.3058
 3289TIP3    H231283   4.154   6.654   2.631 -0.0105 -1.4227  0.1746
 3290TIP3   OH231284   0.576   1.796   6.447  0.4438 -0.1304  0.0677
 3290TIP3    H131285   0.580   1.757   6.534 -0.9367  0.5061  0.4141
 3290TIP3    H231286   0.533   1.730   6.393  0.9411 -0.3598 -0.0561
 3291TIP3   OH231287   5.153   0.702  16.079  0.2038  0.0476 -0.2571
 3291TIP3    H131288   5.220   0.637  16.098 -0.5099 -0.9406 -1.0457
 3291TIP3    H231289   5.121   0.678  15.992 -0.0127  1.5076 -0.5984
 3292TIP3   OH231290   4.890   5.515  13.190 -0.0776 -0.1772  0.2843
 3292TIP3    H131291   4.965   5.471  13.229  0.2425 -0.3045 -0.4486
 3292TIP3    H231292   4.825   5.519  13.259  0.3396 -0.7252  0.7103
 3293TIP3   OH231293   2.824   4.017  15.427 -0.2522  0.3929  0.4020
 3293TIP3    H131294   2.800   4.036  15.518  0.4126  1.9321  0.2884
 3293TIP3    H231295   2.801   3.926  15.414 -4.0632  1.2162  0.9223
 3294TIP3   OH231296   2.718   3.172   1.539  0.0376 -0.1318 -0.1480
 3294TIP3    H131297   2.696   3.229   1.612  3.9703  1.8732 -0.4046
 3294TIP3    H231298   2.647   3.184   1.476 -2.5869 -0.6939  2.5764
 3295TIP3   OH231299   4.657   3.410  15.485 -0.1222  0.3063 -0.0890
 3295TIP3    H131300   4.636   3.333  15.539  0.0010  0.7062  0.5261
 3295TIP3    H231301   4.738   3.444  15.522  0.5522 -0.0423 -1.2004
 3296TIP3   OH231302   0.575   4.416  10.429  0.4370 -0.2426  0.4866
 3296TIP3    H131303   0.558   4.350  10.497  1.2611 -0.5348  0.4104
 3296TIP3    H231304   0.572   4.368  10.347 -0.0890  0.0296  0.3388
 3297TIP3   OH231305   1.709   5.745  11.013 -0.5340  0.5573 -0.1089
 3297TIP3    H131306   1.652   5.697  10.953  0.1522 -0.5706  0.1142
 3297TIP3    H231307   1.752   5.810  10.958  0.7634 -1.0510 -1.0554
 3298TIP3   OH231308   2.533   2.391   5.103  0.1005  0.0323  0.1806
 3298TIP3    H131309   2.460   2.330   5.087 -0.4472 -0.3188  3.5991
 3298TIP3    H231310   2.490   2.475   5.120  0.4733 -0.0179  1.4739
 3299TIP3   OH231311   2.961   5.677   1.635 -0.3631  0.5208  0.0053
 3299TIP3    H131312   2.920   5.692   1.550 -1.0803 -2.2100 -0.1714
 3299TIP3    H231313   2.999   5.762   1.659 -1.6355  1.7515 -2.2246
 3300TIP3   OH231314   5.842   3.504  15.482  0.2207 -0.0493  0.3792
 3300TIP3    H131315   5.920   3.478  15.532  0.0499 -0.2478  0.5435
 3300TIP3    H231316   5.834   3.437  15.414  0.2742  0.0505  0.2740
 3301TIP3   OH231317   1.490   5.503   3.585 -0.3938 -0.2933 -0.4669
 3301TIP3    H131318   1.529   5.532   3.668 -0.4024  2.1948 -1.2714
 3301TIP3    H231319   1.404   5.469   3.609 -0.4629  0.5678  0.5462
 3302TIP3   OH231320   0.315   4.885   1.289 -0.1415 -0.4571  0.0285
 3302TIP3    H131321   0.255   4.811   1.294 -0.2480 -0.5141 -1.6386
 3302TIP3    H231322   0.401   4.848   1.306 -0.5872 -0.3239  2.7232
 3303TIP3   OH231323   4.584   3.527   3.387 -0.2333 -0.1142 -0.7247
 3303TIP3    H131324   4.635   3.537   3.307  0.6025 -3.8661 -0.7266
 3303TIP3    H231325   4.511   3.470   3.362 -0.2954 -0.8467  1.0304
 3304TIP3   OH231326   3.814   5.066   1.517  0.3032  0.1147  0.5710
 3304TIP3    H131327   3.723   5.069   1.488  0.4925  0.6143  0.0297
 3304TIP3    H231328   3.855   4.999   1.463  1.0599  2.1786 -1.5038
 3305TIP3   OH231329   6.502   2.178  16.763 -0.2189  0.6379 -0.2154
 3305TIP3    H131330   6.521   2.266  16.731  0.5994  0.2892 -0.7171
 3305TIP3    H231331   6.569   2.163  16.831 -1.0369  0.8218  0.6336
 3306TIP3   OH231332   6.108   1.378   5.883 -0.2172 -0.2805 -0.2931
 3306TIP3    H131333   6.025   1.345   5.916  0.0423 -0.4927  0.1430
 3306TIP3    H231334   6.168   1.375   5.958  0.5478 -1.3914 -0.9351
 3307TIP3   OH231335   4.267   3.284   0.853  0.0410  0.2211 -0.1531
 3307TIP3    H131336   4.229   3.196   0.854  1.8232 -0.5544  1.4884
 3307TIP3    H231337   4.246   3.321   0.939  0.9903  0.6573 -0.0995
 3308TIP3   OH231338   0.813   5.135   6.275 -0.1237 -0.6159  1.1078
 3308TIP3    H131339   0.878   5.206   6.275  1.4024 -1.9333 -1.6174
 3308TIP3    H231340   0.734   5.175   6.239  1.1105 -0.5269 -1.6780
 3309TIP3   OH231341   3.910   3.488  14.718  0.2618  0.3503  0.4010
 3309TIP3    H131342   3.868   3.462  14.800  1.1819 -1.6456  0.2614
 3309TIP3    H231343   3.847   3.464  14.651  1.5482 -2.6870  0.1877
 3310TIP3   OH231344   5.653   1.916  12.985 -0.0528 -0.0115  0.4615
 3310TIP3    H131345   5.681   1.932  12.895 -1.0891 -1.0970 -0.0712
 3310TIP3    H231346   5.559   1.904  12.979 -0.0360 -0.8029  1.5875
 3311TIP3   OH231347   3.410   2.917   2.085 -0.8348  0.1792  0.5503
 3311TIP3    H131348   3.496   2.891   2.119 -1.1421  0.2245  1.3764
 3311TIP3    H231349   3.348   2.880   2.147 -1.3418  1.6149  0.9166
 3312TIP3   OH231350   3.885   1.983   2.977  0.6531 -0.1170  0.8161
 3312TIP3    H131351   3.936   2.056   2.943  0.1306  0.7558  1.8838
 3312TIP3    H231352   3.809   1.977   2.918  1.0242 -0.2251  0.3420
 3313TIP3   OH231353   4.195   0.803   0.584 -0.5617 -0.2115 -0.0169
 3313TIP3    H131354   4.109   0.791   0.624  0.2335  1.4603  2.3001
 3313TIP3    H231355   4.255   0.809   0.658  1.8279 -3.0743 -1.5943
 3314TIP3   OH231356   6.578   4.357  12.785 -0.4771 -0.1693  0.4062
 3314TIP3    H131357   6.617   4.405  12.858  1.5638 -0.2028 -0.6329
 3314TIP3    H231358   6.483   4.366  12.798 -0.1336  1.4852  1.9478
 3315TIP3   OH231359   6.564   4.838  11.831 -0.6830  0.2919 -0.3551
 3315TIP3    H131360   6.485   4.787  11.810  0.6433 -1.7921 -0.3807
 3315TIP3    H231361   6.631   4.805  11.771  0.8665  0.2655  1.3388
 3316TIP3   OH231362   5.891   1.509   1.999  0.3539  0.5631  0.4260
 3316TIP3    H131363   5.908   1.573   1.929 -2.3969  1.6646  0.6919
 3316TIP3    H231364   5.826   1.451   1.961  0.4518 -0.1393  1.3350
 3317TIP3   OH231365   6.740   1.669  13.593  0.1902 -0.0703  0.2792
 3317TIP3    H131366   6.703   1.684  13.506  0.3198 -0.3065  0.1827
 3317TIP3    H231367   6.833   1.684  13.583 -0.0767  2.0522  0.8849
 3318TIP3   OH231368   6.781   4.328  15.498  0.1826 -0.0890  0.2465
 3318TIP3    H131369   6.763   4.237  15.473  0.5617  0.3144 -1.5308
 3318TIP3    H231370   6.756   4.380  15.422  0.5033  1.2550  1.0427
 3319TIP3   OH231371   0.095   6.116   1.129 -0.2597 -0.7760 -0.7156
 3319TIP3    H131372   0.185   6.133   1.100  0.8957 -1.6650  2.1106
 3319TIP3    H231373   0.075   6.029   1.094  1.4120 -2.1904  1.6689
 3320TIP3   OH231374   1.500   2.816  15.827 -0.6458  0.5134  0.3404
 3320TIP3    H131375   1.594   2.834  15.830 -0.4762 -0.3122  0.0065
 3320TIP3    H231376   1.491   2.726  15.858 -1.2374  0.3028 -0.4189
 3321TIP3   OH231377   3.632   0.318   0.125 -0.5016  0.1397 -0.0799
 3321TIP3    H131378   3.684   0.343   0.049  0.2961  0.5237  0.5803
 3321TIP3    H231379   3.682   0.247   0.165 -0.3878  0.6273  0.6512
 3322TIP3   OH231380   2.702   0.960  16.416  0.3030 -0.1757 -0.0477
 3322TIP3    H131381   2.666   0.992  16.333 -2.3984 -1.4138  0.6182
 3322TIP3    H231382   2.724   0.869  16.400 -0.9251 -0.6280  0.8111
 3323TIP3   OH231383   4.039   1.405  16.753  0.1135 -0.0175 -0.1038
 3323TIP3    H131384   4.118   1.456  16.771  0.9217 -1.9370  2.2232
 3323TIP3    H231385   4.035   1.342  16.825 -0.6788 -3.3993 -2.9622
 3324TIP3   OH231386   0.184   4.660  13.258 -0.3742  0.4701 -0.1524
 3324TIP3    H131387   0.156   4.609  13.182 -0.1096  0.8807 -0.5313
 3324TIP3    H231388   0.112   4.651  13.320  0.5467 -2.0053  0.6013
 3325TIP3   OH231389   2.726   5.122  11.889 -0.4184  0.1107  0.2270
 3325TIP3    H131390   2.682   5.140  11.972 -2.4080 -1.8698 -0.3597
 3325TIP3    H231391   2.783   5.048  11.908  0.1452  0.5136  0.1340
 3326TIP3   OH231392   5.173   4.660   0.131 -0.0921 -0.3372 -0.4482
 3326TIP3    H131393   5.209   4.610   0.204 -3.3986  0.0570  1.5739
 3326TIP3    H231394   5.082   4.632   0.125 -0.5329  1.4140 -2.8825
 3327TIP3   OH231395   3.231   2.005   3.935  0.3789  0.1408 -0.0300
 3327TIP3    H131396   3.319   2.037   3.915  0.6928 -0.1271  0.8924
 3327TIP3    H231397   3.244   1.914   3.961 -0.3822 -0.4409 -1.6028
 3328TIP3   OH231398   4.597   5.516  13.917  0.1861 -0.6293 -0.4743
 3328TIP3    H131399   4.592   5.466  13.999  0.1340 -0.3543 -0.3102
 3328TIP3    H231400   4.506   5.538  13.897  0.4487  1.9364  1.0084
 3329TIP3   OH231401   4.586   2.717   2.680  0.2557  0.5874  0.1114
 3329TIP3    H131402   4.584   2.806   2.715 -0.3155  0.7433 -0.3104
 3329TIP3    H231403   4.613   2.663   2.754 -1.0070  0.9117  0.8322
 3330TIP3   OH231404   5.515   3.330   1.630 -0.0066  0.2569  0.3316
 3330TIP3    H131405   5.441   3.371   1.584  0.0567 -1.2732 -1.1920
 3330TIP3    H231406   5.587   3.336   1.567 -0.3961 -3.5485 -0.5966
 3331TIP3   OH231407   0.776   2.917   0.198  0.2110 -1.0096  0.7058
 3331TIP3    H131408   0.826   2.951   0.124 -0.7571  0.4921  0.7213
 3331TIP3    H231409   0.687   2.904   0.164 -0.0021 -1.2549  1.3345
 3332TIP3   OH231410   3.991   3.832  16.670 -0.0927 -0.1093  0.1023
 3332TIP3    H131411   4.072   3.841  16.620 -0.7568  2.0467 -0.6192
 3332TIP3    H231412   4.020   3.824  16.761  0.9659 -0.6014 -0.2687
 3333TIP3   OH231413   3.791   1.236   5.541 -0.3088 -0.6899 -0.3570
 3333TIP3    H131414   3.862   1.178   5.515  1.0787  0.4626  0.8001
 3333TIP3    H231415   3.783   1.298   5.469 -0.4560 -1.0892 -0.6876
 3334TIP3   OH231416   2.969   4.208   0.556 -0.5007 -0.4225  0.0225
 3334TIP3    H131417   2.893   4.241   0.508 -1.4016 -1.6307  0.5640
 3334TIP3    H231418   3.041   4.265   0.530 -1.9064  1.6864  0.6328
 3335TIP3   OH231419   1.572   6.611  15.367 -0.9041  0.3001 -0.5698
 3335TIP3    H131420   1.524   6.553  15.426  1.8425  0.8206  2.3663
 3335TIP3    H231421   1.625   6.552  15.314 -1.0338 -0.0767 -0.2843
 3336TIP3   OH231422   4.662   1.893  15.182 -0.2569 -0.3794  0.5528
 3336TIP3    H131423   4.651   1.799  15.200 -0.2927 -0.5463 -0.3124
 3336TIP3    H231424   4.704   1.928  15.261 -1.3897 -0.8844  1.4106
 3337TIP3   OH231425   1.696   0.620  14.733 -0.1134 -0.1981  0.6936
 3337TIP3    H131426   1.740   0.585  14.655 -1.6732  0.7282 -0.6055
 3337TIP3    H231427   1.765   0.668  14.779 -0.0051  2.4475 -2.0502
 3338TIP3   OH231428   4.184   3.285  12.222 -0.3168  0.3527 -0.5271
 3338TIP3    H131429   4.227   3.327  12.148  1.7151 -0.7480 -0.0125
 3338TIP3    H231430   4.165   3.356  12.283 -0.0042  0.9613 -1.1413
 3339TIP3   OH231431   4.905   6.471   5.427  0.0098 -0.0945  0.1432
 3339TIP3    H131432   4.990   6.465   5.383 -0.3755 -0.7220 -0.5178
 3339TIP3    H231433   4.909   6.554   5.475  1.4915 -0.7437  1.1611
 3340TIP3   OH231434   4.055   5.314   3.398 -0.3083  0.4403  0.2511
 3340TIP3    H131435   4.104   5.345   3.474  0.1230  1.6900 -0.5261
 3340TIP3    H231436   4.014   5.392   3.362  0.3425  0.0487 -1.3916
 3341TIP3   OH231437   6.754   5.841  11.900  0.1750  0.6862 -0.1273
 3341TIP3    H131438   6.800   5.759  11.883  1.5854  1.3270  0.5156
 3341TIP3    H231439   6.814   5.891  11.956 -0.4998  2.3100 -0.8317
 3342TIP3   OH231440   0.046   4.080  14.240  0.0252 -0.0507  0.4749
 3342TIP3    H131441  -0.028   4.022  14.225 -0.7267  0.5698  1.7004
 3342TIP3    H231442   0.035   4.151  14.177  0.6560 -0.9521 -0.6668
 3343TIP3   OH231443   4.548   0.710   5.736  0.0942 -0.6474  0.4814
 3343TIP3    H131444   4.492   0.651   5.788  2.2859 -2.4250  0.9328
 3343TIP3    H231445   4.624   0.656   5.712  2.5519  2.1794  1.5170
 3344TIP3   OH231446   1.806   2.744   4.645 -0.1106  0.9549  0.2035
 3344TIP3    H131447   1.815   2.678   4.576  0.5690  0.3701  0.8334
 3344TIP3    H231448   1.786   2.825   4.599 -1.0853  0.2814 -0.5754
 3345TIP3   OH231449   6.143   4.359  14.070 -0.3165  0.2122 -0.2041
 3345TIP3    H131450   6.115   4.306  14.145  2.1951  1.0952  1.4632
 3345TIP3    H231451   6.155   4.296  13.999  1.9143 -1.4409  1.5358
 3346TIP3   OH231452   0.100   5.879   0.992 -0.2265 -0.4204 -0.0262
 3346TIP3    H131453   0.193   5.879   0.969 -0.3144  0.1634 -0.3962
 3346TIP3    H231454   0.055   5.882   0.908 -0.5470  2.1877  0.1980
 3347TIP3   OH231455   1.340   2.526  15.580  0.3829 -0.9596 -0.1944
 3347TIP3    H131456   1.374   2.590  15.643  0.7434 -2.1274  0.8147
 3347TIP3    H231457   1.413   2.466  15.566  0.3901 -0.5594 -1.9581
 3348TIP3   OH231458   3.624   5.354   0.037  0.1886 -0.1381  0.1239
 3348TIP3    H131459   3.663   5.435   0.005 -0.3995  1.0136  2.2301
 3348TIP3    H231460   3.531   5.362   0.019  0.2921 -0.8648 -0.7370
 3349TIP3   OH231461   3.350   3.334   0.849  0.0366  0.8942 -0.3695
 3349TIP3    H131462   3.369   3.369   0.937 -1.3188  0.4400  0.1205
 3349TIP3    H231463   3.268   3.286   0.860 -0.4486  1.3191 -2.0251
 3350TIP3   OH231464   1.249   6.710  14.839 -0.0745  0.0394 -0.3797
 3350TIP3    H131465   1.304   6.654  14.892 -1.9233 -0.6285  0.8697
 3350TIP3    H231466   1.282   6.798  14.854 -0.9983 -0.0603  2.4504
 3351TIP3   OH231467   2.053   5.380   1.709 -0.0133 -0.3342 -0.1475
 3351TIP3    H131468   1.990   5.441   1.747 -0.8089 -0.5290 -1.1284
 3351TIP3    H231469   2.011   5.295   1.715  0.8733 -0.7220  0.7330
 3352TIP3   OH231470   3.277   1.050   2.225 -0.0359  0.1566  0.1161
 3352TIP3    H131471   3.228   0.986   2.173  0.8222  0.7065 -1.3799
 3352TIP3    H231472   3.345   0.998   2.268  0.9808  0.1254 -1.4970
 3353TIP3   OH231473   5.794   3.340   0.242 -0.4537  0.2056 -0.2709
 3353TIP3    H131474   5.770   3.379   0.158 -0.5037  0.1996 -0.2595
 3353TIP3    H231475   5.712   3.304   0.276  0.0294 -2.1159 -1.4303
 3354TIP3   OH231476   5.420   1.537  11.780 -0.4661 -0.8229 -0.0567
 3354TIP3    H131477   5.473   1.563  11.855 -0.3638 -1.7848  0.2107
 3354TIP3    H231478   5.371   1.616  11.756  0.9618  0.0270 -0.2056
 3355TIP3   OH231479   5.466   6.040  12.853  0.3825 -0.1143 -0.6382
 3355TIP3    H131480   5.471   6.126  12.894  0.8585 -0.4639  0.0607
 3355TIP3    H231481   5.483   6.056  12.761  2.6079  0.2824 -0.1961
 3356TIP3   OH231482   3.946   6.446   2.931 -0.4746 -0.1546  0.3919
 3356TIP3    H131483   3.879   6.514   2.932  1.0483  1.3469  1.9836
 3356TIP3    H231484   3.915   6.381   2.994 -0.9804 -0.0189  0.2862
 3357TIP3   OH231485   5.342   5.607   1.633 -0.6878 -0.0597 -0.3882
 3357TIP3    H131486   5.281   5.674   1.664  0.3133  0.6208  0.1362
 3357TIP3    H231487   5.355   5.627   1.540 -0.4201  0.4553 -0.2413
 3358TIP3   OH231488   4.422   6.451  14.898 -0.7980 -0.4288  0.5145
 3358TIP3    H131489   4.395   6.527  14.951 -0.7317  0.2443 -0.4082
 3358TIP3    H231490   4.471   6.489  14.825 -1.3262 -1.3287 -0.3092
 3359TIP3   OH231491   6.318   1.114  12.839  0.3952 -0.7436 -0.0106
 3359TIP3    H131492   6.393   1.055  12.836  1.2962  0.2862  1.5484
 3359TIP3    H231493   6.344   1.183  12.900 -1.4621  0.1161 -0.1559
 3360TIP3   OH231494   0.391   0.547  17.069  0.5042 -0.0555 -0.6885
 3360TIP3    H131495   0.428   0.635  17.074 -0.1836  0.2818 -1.3379
 3360TIP3    H231496   0.347   0.544  16.984  0.2302 -0.9077 -0.5276
 3361TIP3   OH231497   1.335   3.787  11.731 -0.1014 -0.0563 -0.3603
 3361TIP3    H131498   1.412   3.789  11.675  1.0416  1.6127  1.2272
 3361TIP3    H231499   1.368   3.760  11.816 -1.2928  0.5833  0.3119
 3362TIP3   OH231500   0.465   0.228   0.062  0.4780 -0.1937 -0.3502
 3362TIP3    H131501   0.545   0.248   0.110  1.1385 -0.6983 -1.2185
 3362TIP3    H231502   0.489   0.152   0.007 -0.3477  0.1691 -1.2232
 3363TIP3   OH231503   3.257   0.799  14.494  0.0835  0.1416 -0.7771
 3363TIP3    H131504   3.275   0.707  14.472 -1.0480 -0.5062  0.9151
 3363TIP3    H231505   3.189   0.795  14.561 -0.4465  2.2547 -1.1412
 3364TIP3   OH231506   4.117   4.735   5.480  0.0736  0.7089 -0.1642
 3364TIP3    H131507   4.146   4.648   5.453 -2.0216 -0.9562  2.5376
 3364TIP3    H231508   4.024   4.738   5.455  0.1784  2.2567 -0.4242
 3365TIP3   OH231509   5.476   4.229  15.443  0.4362 -0.0648 -0.1284
 3365TIP3    H131510   5.476   4.317  15.404 -0.5773 -1.0505 -2.4510
 3365TIP3    H231511   5.403   4.232  15.506 -0.7390  0.2484 -1.4653
 3366TIP3   OH231512   6.630   4.158   4.534  0.3137  0.0777 -0.0843
 3366TIP3    H131513   6.633   4.078   4.482 -1.2063 -0.9405  1.3394
 3366TIP3    H231514   6.631   4.128   4.625  1.4022  1.7576  0.4903
 3367TIP3   OH231515   4.513   4.512  12.709 -0.2534  0.2238  0.6024
 3367TIP3    H131516   4.419   4.495  12.716 -0.1640 -0.6095 -0.2400
 3367TIP3    H231517   4.547   4.440  12.657  1.3872 -1.3375  3.6559
 3368TIP3   OH231518   2.997   3.277   1.354  0.3076 -0.3799  0.2480
 3368TIP3    H131519   2.981   3.215   1.425 -1.5865 -1.0255 -0.7021
 3368TIP3    H231520   3.070   3.240   1.305 -0.3486 -1.5171  0.1063
 3369TIP3   OH231521   6.574   5.091  12.112  0.9762 -0.7618 -0.9725
 3369TIP3    H131522   6.582   5.165  12.172  1.4556 -0.9425 -0.8163
 3369TIP3    H231523   6.542   5.019  12.166  0.7962 -0.7544 -1.0660
 3370TIP3   OH231524   1.314   0.637   3.578 -0.0543 -0.3727  0.4435
 3370TIP3    H131525   1.221   0.617   3.590  0.1639 -0.4314  2.2544
 3370TIP3    H231526   1.340   0.679   3.660  1.9790 -2.0667  0.7113
 3371TIP3   OH231527   0.379   4.184  13.409  0.0337 -0.3321 -0.0687
 3371TIP3    H131528   0.352   4.275  13.391 -0.1537 -0.1575  1.0973
 3371TIP3    H231529   0.417   4.154  13.326  1.4088  1.2929 -0.0680
 3372TIP3   OH231530   2.953   2.443  12.095  0.3880  0.0395 -0.1941
 3372TIP3    H131531   2.925   2.422  12.184  0.7186 -0.1235 -0.1247
 3372TIP3    H231532   3.033   2.494  12.106  0.6142 -0.2650 -0.4036
 3373TIP3   OH231533   5.183   3.953  13.538  0.2192  0.4512  0.1097
 3373TIP3    H131534   5.160   3.881  13.597  1.6146  0.2117  0.3719
 3373TIP3    H231535   5.145   4.030  13.579  0.2027  0.1204  0.7290
 3374TIP3   OH231536   3.122   2.510  13.762 -0.1291 -0.3009  0.3330
 3374TIP3    H131537   3.027   2.522  13.768  0.1127  2.0334  0.0535
 3374TIP3    H231538   3.146   2.464  13.843 -1.4030 -0.3782  0.6763
 3375TIP3   OH231539   6.509   0.037   5.365 -0.2273 -0.4103  0.0205
 3375TIP3    H131540   6.559   0.054   5.445 -0.2018 -0.8515  0.0984
 3375TIP3    H231541   6.542  -0.047   5.333 -0.5658 -0.4608 -0.2015
 3376TIP3   OH231542   1.271   0.844   1.032 -0.0573  0.7816 -0.2050
 3376TIP3    H131543   1.179   0.863   1.046 -0.7672 -0.8934 -2.3053
 3376TIP3    H231544   1.292   0.886   0.948  0.4662 -0.6944 -0.8503
 3377TIP3   OH231545   4.735   5.029  11.690  0.1020 -0.1821  0.3443
 3377TIP3    H131546   4.774   5.115  11.672 -1.4617  0.5292  0.3067
 3377TIP3    H231547   4.649   5.049  11.728 -0.3267 -1.7372  0.2235
 3378TIP3   OH231548   5.996   0.892  15.771 -0.3225  0.0366 -0.2813
 3378TIP3    H131549   6.000   0.987  15.780  1.6312  0.0382 -0.9565
 3378TIP3    H231550   5.905   0.874  15.746 -0.2224  1.9108 -2.1483
 3379TIP3   OH231551   3.317   5.648   0.855  0.5022  0.1736  0.1550
 3379TIP3    H131552   3.243   5.643   0.916 -0.1398 -0.9085 -0.6954
 3379TIP3    H231553   3.304   5.575   0.795  0.2885  2.0861 -2.2115
 3380TIP3   OH231554   1.534   5.641   1.463  0.1820 -0.4976 -0.6575
 3380TIP3    H131555   1.600   5.646   1.394  0.2904 -0.2952 -0.5385
 3380TIP3    H231556   1.451   5.628   1.416  0.5066 -2.3813 -0.7307
 3381TIP3   OH231557   5.986   5.794   0.192  1.0821 -0.1578 -0.2257
 3381TIP3    H131558   5.979   5.699   0.187 -1.6347  0.0931 -2.6680
 3381TIP3    H231559   6.011   5.821   0.103  0.3205  1.4952  0.0428
 3382TIP3   OH231560   3.487   0.066  12.615 -0.1666  0.8038 -0.1998
 3382TIP3    H131561   3.539   0.146  12.617  0.8397  0.1427  0.2778
 3382TIP3    H231562   3.551  -0.005  12.615 -1.0628 -0.0249  0.4445
 3383TIP3   OH231563   1.641   0.855  10.950  0.4447  0.2084 -0.5296
 3383TIP3    H131564   1.692   0.782  10.915  0.3975  0.6945 -1.6046
 3383TIP3    H231565   1.570   0.812  10.999  1.3188 -0.4624  0.1687
 3384TIP3   OH231566   5.202   6.024   5.926 -0.0175  0.3200  0.6750
 3384TIP3    H131567   5.192   5.947   5.871 -1.2253  0.0579  1.2446
 3384TIP3    H231568   5.292   6.020   5.957  0.5298  0.2110 -0.8792
 3385TIP3   OH231569   4.567   4.723  15.410 -0.0928 -0.0365 -0.4980
 3385TIP3    H131570   4.525   4.713  15.324 -1.1848  1.3922 -0.1386
 3385TIP3    H231571   4.630   4.794  15.397 -1.5314  1.4248  0.3299
 3386TIP3   OH231572   5.017   6.566  10.415 -0.5153  0.0061  0.2942
 3386TIP3    H131573   5.105   6.564  10.451 -0.5721  0.8051  0.5053
 3386TIP3    H231574   5.008   6.484  10.366  0.3112 -0.1139  0.3393
 3387TIP3   OH231575   6.649   2.761   3.418 -0.0478  0.3738  0.3246
 3387TIP3    H131576   6.725   2.703   3.411  0.2786  0.8744 -0.2396
 3387TIP3    H231577   6.622   2.753   3.510 -1.1922 -2.1650 -0.1722
 3388TIP3   OH231578   1.456   1.505  16.198 -0.1455  0.0686  0.2403
 3388TIP3    H131579   1.396   1.487  16.270  0.3327  0.6278  0.7912
 3388TIP3    H231580   1.434   1.441  16.131 -1.4664  0.3850  0.3611
 3389TIP3   OH231581   1.983   1.592   3.568 -0.0161  0.1223  0.0796
 3389TIP3    H131582   1.939   1.605   3.484 -1.3806  0.7499  0.8712
 3389TIP3    H231583   2.071   1.560   3.545 -0.0731  1.1315 -1.5985
 3390TIP3   OH231584   6.617   1.674   5.859 -0.2491 -0.1071 -0.3108
 3390TIP3    H131585   6.634   1.649   5.768  0.6751 -1.8207  0.2939
 3390TIP3    H231586   6.530   1.640   5.878  0.6479 -2.1901  0.2361
 3391TIP3   OH231587   0.592   1.787  14.229  0.0593  0.1856 -0.6632
 3391TIP3    H131588   0.597   1.732  14.307  1.7626 -0.3351 -1.1061
 3391TIP3    H231589   0.506   1.829  14.234 -0.8529 -1.7362  0.1886
 3392TIP3   OH231590   4.944   2.242  12.821 -0.3570 -0.1672 -0.5933
 3392TIP3    H131591   4.903   2.166  12.779 -0.1944 -1.5840  1.7056
 3392TIP3    H231592   4.881   2.268  12.889  1.3152 -0.6277  1.1447
 3393TIP3   OH231593   4.966   5.997  10.967  0.0559 -0.6593 -0.2530
 3393TIP3    H131594   4.965   6.052  11.045 -2.6387 -1.2443  0.1725
 3393TIP3    H231595   4.944   6.056  10.895 -1.1550 -0.8214 -0.0290
 3394TIP3   OH231596   0.296   4.361  15.980  0.5084 -0.0297 -0.2894
 3394TIP3    H131597   0.239   4.428  16.019 -1.8332 -0.9578 -1.9780
 3394TIP3    H231598   0.296   4.290  16.045  1.9284  1.0185  0.9001
 3395TIP3   OH231599   1.791   4.233   4.695  0.1429 -0.5806  0.3988
 3395TIP3    H131600   1.697   4.216   4.687  0.7102 -3.2353 -1.4915
 3395TIP3    H231601   1.816   4.273   4.612  0.8016 -0.6364  0.5613
 3396TIP3   OH231602   1.883   1.276   1.128 -0.0196 -0.8062 -0.4254
 3396TIP3    H131603   1.907   1.317   1.211 -1.1100  0.7850 -0.8632
 3396TIP3    H231604   1.938   1.198   1.123 -0.7602 -1.5596  2.3307
 3397TIP3   OH231605   0.543   3.422  10.528  0.1348  0.6365  0.2171
 3397TIP3    H131606   0.572   3.487  10.592  1.2968  0.7292 -0.3932
 3397TIP3    H231607   0.450   3.412  10.545  0.1953  1.5409  1.1406
 3398TIP3   OH231608   2.348   6.712  14.038  0.2660 -0.5691 -0.3338
 3398TIP3    H131609   2.373   6.621  14.021  2.2470 -0.0788 -0.1016
 3398TIP3    H231610   2.383   6.731  14.125  0.8580  0.7663 -0.8558
 3399TIP3   OH231611   2.598   6.245   5.488  0.6846 -0.1761 -0.0577
 3399TIP3    H131612   2.527   6.209   5.542  0.6855 -1.6126 -0.9871
 3399TIP3    H231613   2.676   6.198   5.517  1.6874  2.7848  2.3444
 3400TIP3   OH231614   3.548   1.599  15.772  0.2681 -0.0386 -0.5987
 3400TIP3    H131615   3.634   1.597  15.814 -0.2053 -1.0687  0.3626
 3400TIP3    H231616   3.563   1.564  15.684  0.7364 -0.7922 -0.2272
 3401TIP3   OH231617   6.767   5.484  12.539 -0.1847 -0.4906 -0.0198
 3401TIP3    H131618   6.800   5.531  12.616 -1.8144  1.2002 -0.3053
 3401TIP3    H231619   6.828   5.505  12.469  0.3871 -0.7014  0.4141
 3402TIP3   OH231620   4.305   4.901   0.525 -0.3989 -0.1038  0.4619
 3402TIP3    H131621   4.303   4.946   0.610  1.5790  1.4022 -0.2496
 3402TIP3    H231622   4.367   4.829   0.538 -2.7457 -2.0521  1.2802
 3403TIP3   OH231623   6.758   2.465  14.071 -0.2869  0.3460  0.1444
 3403TIP3    H131624   6.835   2.462  14.127 -0.2545  0.1595  0.0896
 3403TIP3    H231625   6.687   2.430  14.126  0.0764 -1.4269 -0.4661
 3404TIP3   OH231626   6.052   6.568  16.195  0.3638  0.1009 -0.3253
 3404TIP3    H131627   5.973   6.554  16.143  0.6952 -0.6872 -0.6359
 3404TIP3    H231628   6.022   6.609  16.275 -0.2257  0.8184 -0.9120
 3405TIP3   OH231629   2.940   3.159   4.062  0.1241 -0.1870  0.4940
 3405TIP3    H131630   2.996   3.223   4.105  1.6636 -1.5289  0.5156
 3405TIP3    H231631   2.852   3.196   4.070  1.1304  2.6163 -0.7761
 3406TIP3   OH231632   5.887   2.153   4.801 -0.1400  0.2499  0.0801
 3406TIP3    H131633   5.806   2.190   4.835 -1.0729  0.2710 -2.0594
 3406TIP3    H231634   5.858   2.077   4.749  1.2180  0.2193 -0.6499
 3407TIP3   OH231635   3.928   4.429  16.178  0.4459 -0.1229 -0.7101
 3407TIP3    H131636   3.950   4.432  16.085 -2.1158 -3.4467 -1.5134
 3407TIP3    H231637   3.937   4.337  16.201 -1.3819  0.2635  1.6955
 3408TIP3   OH231638   3.705   0.453  13.275 -0.1443  0.4020  0.1202
 3408TIP3    H131639   3.711   0.523  13.210  2.2945  2.1237  2.0871
 3408TIP3    H231640   3.624   0.471  13.322  0.4876  1.9594  0.6410
 3409TIP3   OH231641   0.133   5.465   2.771  0.2897  0.3944 -0.0561
 3409TIP3    H131642   0.184   5.488   2.694  1.2855  1.5443  0.9199
 3409TIP3    H231643   0.056   5.419   2.737  1.3278 -0.2077 -1.6303
 3410TIP3   OH231644   3.365   0.439   3.354  0.0188 -0.4448 -0.4973
 3410TIP3    H131645   3.439   0.379   3.361  1.0353  0.8861  0.2277
 3410TIP3    H231646   3.346   0.465   3.444 -1.2352 -0.6634 -0.6943
 3411TIP3   OH231647   3.390   3.878   3.919 -0.1174 -0.7890 -0.2459
 3411TIP3    H131648   3.342   3.828   3.985 -0.5470 -0.0351  0.0256
 3411TIP3    H231649   3.413   3.814   3.852 -0.7855 -1.3204  0.0256
 3412TIP3   OH231650   4.940   3.569  13.063 -0.0961  0.5081  0.0100
 3412TIP3    H131651   4.973   3.613  13.141 -1.1313 -0.0695  0.7866
 3412TIP3    H231652   5.017   3.556  13.008  0.2593  3.2483 -0.2171
 3413TIP3   OH231653   5.959   5.222   5.482  0.3139 -0.0926  0.3827
 3413TIP3    H131654   6.048   5.223   5.446  0.5090 -0.5436  0.8389
 3413TIP3    H231655   5.962   5.283   5.556  0.7619 -1.5537  1.5870
 3414TIP3   OH231656   5.393   4.633   4.952  0.0326  0.1764  0.4892
 3414TIP3    H131657   5.347   4.653   4.870  1.8130 -2.4199 -1.2055
 3414TIP3    H231658   5.485   4.644   4.931  0.5597 -1.4798  1.8871
 3415TIP3   OH231659   3.351   2.301  16.746 -0.1614 -0.4122  0.5193
 3415TIP3    H131660   3.325   2.392  16.760  1.9434  0.1132  1.1069
 3415TIP3    H231661   3.367   2.295  16.652  0.8573  0.1529  0.6497
 3416TIP3   OH231662   1.462   3.947  15.096  0.0743  0.4235 -0.3059
 3416TIP3    H131663   1.526   3.888  15.134 -1.0377  0.4509  1.6521
 3416TIP3    H231664   1.380   3.926  15.139 -1.0768  1.0132 -2.1151
 3417TIP3   OH231665   5.739   5.043   6.099 -0.6822  0.0054 -0.1662
 3417TIP3    H131666   5.690   5.022   6.020 -0.4024  1.0022 -0.6007
 3417TIP3    H231667   5.675   5.083   6.158 -0.8661 -0.6401  0.0780
 3418TIP3   OH231668   2.351   3.761   2.678  0.2116 -0.4660 -0.1126
 3418TIP3    H131669   2.427   3.784   2.625  0.3095 -0.3105  0.0943
 3418TIP3    H231670   2.278   3.809   2.638  0.1993 -0.7216 -0.3916
 3419TIP3   OH231671   0.368   4.603  13.542  1.0148 -0.1623  0.0003
 3419TIP3    H131672   0.286   4.643  13.573  0.7823  0.6905 -1.6770
 3419TIP3    H231673   0.433   4.627  13.608  0.0164 -0.4584  1.1085
 3420TIP3   OH231674   3.989   4.217  11.470 -0.5119  0.2846 -0.5924
 3420TIP3    H131675   3.956   4.156  11.536 -1.2316  2.0244  0.7162
 3420TIP3    H231676   4.081   4.194  11.459 -0.7094 -0.8555  0.0757
 3421TIP3   OH231677   5.127   2.228  16.481  0.3120 -0.2990 -0.1521
 3421TIP3    H131678   5.126   2.147  16.532  0.6741 -0.3001 -0.1430
 3421TIP3    H231679   5.050   2.222  16.424  0.3588 -0.6656 -0.1774
 3422TIP3   OH231680   6.423   1.137  15.023 -0.4975 -0.5346 -0.4356
 3422TIP3    H131681   6.454   1.110  14.936  3.3333  0.1264  0.6365
 3422TIP3    H231682   6.431   1.058  15.076 -0.6784 -0.3678 -0.1640
 3423TIP3   OH231683   5.221   2.094  13.970 -0.1633 -1.1156  0.2309
 3423TIP3    H131684   5.174   2.073  13.889 -0.9695 -0.1482  0.4382
 3423TIP3    H231685   5.182   2.037  14.036 -1.2506 -0.1511  0.4533
 3424TIP3   OH231686   6.503   2.921  15.498 -0.4407 -0.0132 -0.3718
 3424TIP3    H131687   6.419   2.938  15.456  0.9566  0.7987 -2.9284
 3424TIP3    H231688   6.533   3.006  15.530 -0.5414 -0.2894  0.4847
 3425TIP3   OH231689   3.586   1.085  16.010  0.2003 -0.0959 -0.2942
 3425TIP3    H131690   3.535   1.152  16.054  2.6556  1.1568  0.7634
 3425TIP3    H231691   3.609   1.124  15.926  0.0449 -0.3502 -0.4543
 3426TIP3   OH231692   1.218   4.932   6.166  0.3546  0.0506  0.3691
 3426TIP3    H131693   1.178   4.960   6.083 -1.0779 -1.1658  0.6325
 3426TIP3    H231694   1.305   4.900   6.140  1.6186  3.6797 -0.0647
 3427TIP3   OH231695   0.021   5.905  14.761  0.7256 -0.4794 -0.8196
 3427TIP3    H131696   0.053   5.837  14.821 -1.2451 -1.6759 -1.0809
 3427TIP3    H231697   0.083   5.903  14.689  0.8715 -1.8209 -0.6832
 3428TIP3   OH231698   3.350   5.040  11.191  0.1585  0.4339  0.2338
 3428TIP3    H131699   3.328   5.023  11.100 -1.3380 -0.5525  0.7505
 3428TIP3    H231700   3.446   5.033  11.195  0.0541 -2.1227 -0.7588
 3429TIP3   OH231701   6.208   4.312   6.407 -0.3000  0.2952  0.0787
 3429TIP3    H131702   6.221   4.406   6.398  0.9708 -0.0134 -1.4364
 3429TIP3    H231703   6.141   4.291   6.342  2.8587 -0.5880 -3.0026
 3430TIP3   OH231704   1.614   0.841  12.271  0.2716 -0.1175  0.5258
 3430TIP3    H131705   1.527   0.881  12.271 -0.4962 -1.7113 -1.1882
 3430TIP3    H231706   1.652   0.865  12.186  0.9429 -0.5897  0.6870
 3431TIP3   OH231707   2.214   5.544   0.634 -0.0402 -0.0536  0.2163
 3431TIP3    H131708   2.202   5.459   0.678 -0.5875 -0.1984 -0.2144
 3431TIP3    H231709   2.281   5.526   0.567 -1.6017 -0.6411 -1.2172
 3432TIP3   OH231710   5.301   3.751   2.950  0.0249 -0.4303 -0.3000
 3432TIP3    H131711   5.362   3.727   3.020 -0.2988 -0.6678 -0.0976
 3432TIP3    H231712   5.350   3.812   2.895  1.0030 -1.8476 -1.0338
 3433TIP3   OH231713   6.444   0.112   4.301 -0.2224 -0.2741  0.7768
 3433TIP3    H131714   6.475   0.134   4.389  0.9462 -2.2670  0.8973
 3433TIP3    H231715   6.498   0.165   4.242 -1.9005  2.0639  1.2697
 3434TIP3   OH231716   0.757   5.325  12.507 -0.0763 -0.3070  0.1221
 3434TIP3    H131717   0.749   5.288  12.419 -1.7024 -0.8563  0.4893
 3434TIP3    H231718   0.842   5.370  12.506  1.1403 -2.5355 -0.8727
 3435TIP3   OH231719   5.488   3.853  15.553  0.4607 -0.5468 -0.6535
 3435TIP3    H131720   5.464   3.911  15.625 -0.4933 -1.6511 -0.0851
 3435TIP3    H231721   5.584   3.846  15.559  0.5314  0.5234 -0.4015
 3436TIP3   OH231722   2.154   5.042   1.190  0.0489  0.1373 -0.2297
 3436TIP3    H131723   2.217   5.071   1.124  1.1662 -0.1638  0.6854
 3436TIP3    H231724   2.198   4.970   1.236 -1.3369 -0.7100 -0.2012
 3437TIP3   OH231725   5.000   3.576   5.513  0.2066 -0.2661 -0.0047
 3437TIP3    H131726   5.075   3.522   5.537  1.0881 -0.3302 -2.7583
 3437TIP3    H231727   4.930   3.514   5.495 -0.4686 -0.2172  2.2798
 3438TIP3   OH231728   1.072   2.299  11.334  0.1337  0.3602  0.4419
 3438TIP3    H131729   0.978   2.306  11.352 -0.1422  0.1074 -0.8611
 3438TIP3    H231730   1.104   2.389  11.343 -0.3616  0.5644  0.2244
 3439TIP3   OH231731   3.505   3.525   2.393  0.2808  0.0347  0.2614
 3439TIP3    H131732   3.458   3.492   2.469 -1.2719 -0.3560 -0.8521
 3439TIP3    H231733   3.444   3.587   2.352  1.0386  0.1157 -0.7589
 3440TIP3   OH231734   1.549   5.038  15.229  0.0773 -0.2419 -0.1377
 3440TIP3    H131735   1.530   4.955  15.186 -0.0090  0.3231 -1.2245
 3440TIP3    H231736   1.614   5.016  15.296 -3.4053 -1.9856  2.8342
 3441TIP3   OH231737   4.127   5.806   0.849  0.2417  0.6850  0.3086
 3441TIP3    H131738   4.056   5.764   0.898 -0.3755 -0.1381 -1.2483
 3441TIP3    H231739   4.092   5.817   0.760  1.2724  2.3169  0.0862
 3442TIP3   OH231740   0.117   3.029  10.773  0.3140 -0.0794  0.5199
 3442TIP3    H131741   0.033   3.033  10.727  1.2889  1.5241 -1.1843
 3442TIP3    H231742   0.132   2.935  10.785 -0.6966 -0.4881 -1.1442
 3443TIP3   OH231743   5.147   5.616   5.394 -0.1604  0.3476 -0.4058
 3443TIP3    H131744   5.054   5.624   5.415  0.0893  2.0116  0.1234
 3443TIP3    H231745   5.183   5.565   5.466 -0.6957 -0.5201 -0.7387
 3444TIP3   OH231746   4.466   1.021  13.044  0.1154  0.6878 -0.2679
 3444TIP3    H131747   4.420   1.102  13.022 -1.4429 -0.3874 -1.0982
 3444TIP3    H231748   4.450   0.964  12.969 -1.9858 -1.6905  1.8658
 3445TIP3   OH231749   4.547   5.080   5.605 -0.1818 -0.0198 -0.2579
 3445TIP3    H131750   4.595   4.998   5.614 -0.1238  0.2262  1.9041
 3445TIP3    H231751   4.603   5.146   5.647 -1.0799  0.7821 -0.2998
 3446TIP3   OH231752   0.136   5.924  14.361  0.5830  0.0437 -0.2006
 3446TIP3    H131753   0.095   5.991  14.415 -0.0396  1.1408 -1.9869
 3446TIP3    H231754   0.137   5.961  14.273 -1.1101 -2.8602 -1.5231
 3447TIP3   OH231755   3.895   3.956   2.716 -0.3445  0.6665 -0.0612
 3447TIP3    H131756   3.806   3.926   2.698 -0.4037 -1.9301  3.8850
 3447TIP3    H231757   3.885   4.049   2.736 -1.8128  0.9072 -1.7680
 3448TIP3   OH231758   4.087   1.226   1.111 -0.6558  0.0049  0.0574
 3448TIP3    H131759   4.006   1.235   1.159 -0.4228 -0.0438  0.4625
 3448TIP3    H231760   4.148   1.285   1.155  0.1460 -1.5868  1.1379
 3449TIP3   OH231761   2.701   3.122   1.209  0.1242 -0.0173 -0.3106
 3449TIP3    H131762   2.789   3.091   1.229  0.0305 -0.4855 -0.5985
 3449TIP3    H231763   2.678   3.077   1.127 -0.6335 -0.4251  0.1107
 3450TIP3   OH231764   4.196   3.934  13.159  0.9147  0.1130 -0.2201
 3450TIP3    H131765   4.173   3.907  13.248  1.0314 -0.6033 -0.4074
 3450TIP3    H231766   4.248   3.861  13.124  1.0791  0.4975 -0.7882
 3451TIP3   OH231767   2.674   5.364  15.684 -0.2665 -0.6476 -0.0688
 3451TIP3    H131768   2.721   5.419  15.746  0.2614 -0.0145 -1.0112
 3451TIP3    H231769   2.719   5.279  15.688 -0.6827 -0.8300  0.9149
 3452TIP3   OH231770   1.555   6.039   0.980 -0.0687  0.4643  0.2752
 3452TIP3    H131771   1.554   6.023   1.075 -1.9520 -1.0018  0.0280
 3452TIP3    H231772   1.592   5.958   0.943  1.5560  1.3964 -0.2077
 3453TIP3   OH231773   4.846   1.543  13.547  0.1910 -0.1236  0.1021
 3453TIP3    H131774   4.886   1.489  13.479 -1.0112  0.0108 -0.7076
 3453TIP3    H231775   4.877   1.632  13.530 -0.9420  0.0875 -0.9105
 3454TIP3   OH231776   5.698   6.232  15.607 -0.0660 -0.6786 -0.5404
 3454TIP3    H131777   5.715   6.299  15.540  1.2989 -0.1508  0.3012
 3454TIP3    H231778   5.607   6.208  15.595 -0.3803  0.8459 -1.3044
 3455TIP3   OH231779   3.736   4.640  16.847  0.7685 -0.3567 -0.6287
 3455TIP3    H131780   3.803   4.674  16.908  0.6456 -2.0767  0.4969
 3455TIP3    H231781   3.787   4.600  16.777  0.9061 -0.0545 -0.7082
 3456TIP3   OH231782   3.242   1.955  12.338 -0.8613  0.1975  0.3988
 3456TIP3    H131783   3.299   1.996  12.273  1.9523 -0.2132  2.5093
 3456TIP3    H231784   3.237   2.018  12.410 -1.1660 -0.7754  1.2494
 3457TIP3   OH231785   2.704   0.962   5.023 -0.0938  0.4629 -0.4473
 3457TIP3    H131786   2.683   1.044   5.067 -1.0405 -0.6336  1.1713
 3457TIP3    H231787   2.627   0.943   4.969 -1.1451 -0.8392  1.4396
 3458TIP3   OH231788   3.078   0.097   0.633 -0.9150 -0.3689  0.4905
 3458TIP3    H131789   3.114   0.155   0.700 -0.5317  1.1182 -0.9601
 3458TIP3    H231790   3.023   0.035   0.681  0.8689 -0.5262  2.3622
 3459TIP3   OH231791   1.946   0.440  12.998  0.1546  0.7731  0.2219
 3459TIP3    H131792   1.895   0.369  12.960 -1.7254  2.2245 -0.0424
 3459TIP3    H231793   1.895   0.468  13.074  0.8838  1.8203  0.3357
 3460TIP3   OH231794   2.718   6.372   2.290 -0.4148 -0.4530  0.0764
 3460TIP3    H131795   2.673   6.395   2.371 -1.3068  2.3182 -1.1275
 3460TIP3    H231796   2.811   6.377   2.311 -0.6096  2.2344  0.4823
 3461TIP3   OH231797   0.663   1.720  12.050 -0.0376  0.3321 -0.6876
 3461TIP3    H131798   0.670   1.815  12.040 -2.4515  0.5469 -0.6920
 3461TIP3    H231799   0.576   1.699  12.016 -0.6659 -1.5041  1.9281
 3462TIP3   OH231800   0.382   1.309   0.793  0.3994 -0.3401 -0.1020
 3462TIP3    H131801   0.470   1.286   0.821  0.1454 -1.9266 -0.5638
 3462TIP3    H231802   0.335   1.328   0.874  0.9021 -0.4729  0.2186
 3463TIP3   OH231803   2.875   4.536   5.626 -0.7310  0.3049 -0.6191
 3463TIP3    H131804   2.927   4.584   5.561 -2.4567  2.2806 -0.5909
 3463TIP3    H231805   2.896   4.444   5.609  0.9891  0.9274 -2.1178
 3464TIP3   OH231806   1.999   6.290  13.211 -0.3916  0.1490 -0.5179
 3464TIP3    H131807   2.094   6.303  13.211  0.0250 -2.5368 -1.8161
 3464TIP3    H231808   1.964   6.371  13.173  1.3265  1.3498  0.3866
 3465TIP3   OH231809   4.694   6.647  16.451  0.8077  0.6324 -0.3929
 3465TIP3    H131810   4.639   6.662  16.374  1.4520  1.6996 -0.6656
 3465TIP3    H231811   4.773   6.605  16.417 -0.4588 -2.3272  0.1986
 3466TIP3   OH231812   2.580   4.515  17.049 -0.1041  0.1606  0.1163
 3466TIP3    H131813   2.588   4.608  17.072  3.0634  0.0882 -0.3988
 3466TIP3    H231814   2.516   4.513  16.978 -0.6502  1.8621  0.5270
 3467TIP3   OH231815   6.499   5.038  15.867 -0.1363 -0.1779  0.8137
 3467TIP3    H131816   6.461   5.086  15.940 -0.8081  0.6540 -0.0715
 3467TIP3    H231817   6.423   5.006  15.817  0.3104  0.4070 -0.2556
 3468TIP3   OH231818   1.685   1.807   0.614 -0.1401 -0.9228 -0.0170
 3468TIP3    H131819   1.676   1.901   0.595 -0.3452 -1.0571 -0.5774
 3468TIP3    H231820   1.737   1.804   0.695  1.1406 -0.3726 -0.8126
 3469TIP3   OH231821   2.821   2.440  13.712 -0.5737  0.6713  0.6004
 3469TIP3    H131822   2.730   2.447  13.683 -0.3194  1.0974 -0.1069
 3469TIP3    H231823   2.850   2.355  13.681  0.0965  1.6506 -1.5821
 3470TIP3   OH231824   2.669   3.069  10.017 -0.3396 -0.5061  0.2276
 3470TIP3    H131825   2.765   3.062  10.016 -0.1540  1.8472 -1.8030
 3470TIP3    H231826   2.649   3.103  10.104  0.6405 -0.9672  0.6514
 3471TIP3   OH231827   3.576   5.412  15.470 -0.0132 -0.7119  0.8173
 3471TIP3    H131828   3.524   5.467  15.411 -0.3093 -0.2887  1.4726
 3471TIP3    H231829   3.631   5.474  15.517 -0.2401 -0.9957  1.4560
 3472TIP3   OH231830   6.679   6.041   4.953 -0.0841  0.3065 -0.0390
 3472TIP3    H131831   6.647   6.102   5.019  0.1963 -0.7233  1.0809
 3472TIP3    H231832   6.670   5.955   4.994 -0.2345 -0.3830 -1.4888
 3473TIP3   OH231833   3.827   4.868  14.910 -0.0595 -0.0520 -0.0226
 3473TIP3    H131834   3.789   4.841  14.826 -1.8781  1.7261  0.2001
 3473TIP3    H231835   3.845   4.785  14.955  0.3617 -1.0147 -1.8864
 3474TIP3   OH231836   0.802   4.071  11.703 -0.3248 -0.1373 -0.2518
 3474TIP3    H131837   0.746   4.003  11.665  0.0425 -0.6991  0.2004
 3474TIP3    H231838   0.798   4.055  11.797 -0.1352  0.3926 -0.1552
 3475TIP3   OH231839   1.542   1.282  12.522  0.2372 -0.4912  0.3674
 3475TIP3    H131840   1.495   1.352  12.566 -0.4573 -1.4900  1.2182
 3475TIP3    H231841   1.494   1.202  12.543  0.8658 -1.2058 -0.8079
 3476TIP3   OH231842   5.219   6.293  15.663 -0.6221 -0.0636 -0.4245
 3476TIP3    H131843   5.140   6.336  15.630 -1.0392 -0.3128  0.2457
 3476TIP3    H231844   5.274   6.365  15.695 -1.1428  0.0185  0.3134
 3477TIP3   OH231845   4.499   6.129   5.488 -0.2162  0.4984  0.0087
 3477TIP3    H131846   4.471   6.216   5.462 -4.9383 -0.7824  0.2892
 3477TIP3    H231847   4.505   6.133   5.583  0.7207  0.8150 -0.0623
 3478TIP3   OH231848   3.707   4.327  14.377 -0.0450 -0.3865 -0.0914
 3478TIP3    H131849   3.752   4.372  14.305 -0.1183 -1.3993 -0.7694
 3478TIP3    H231850   3.715   4.234  14.357 -2.4066 -0.5929 -0.2160
 3479TIP3   OH231851   6.749   5.524   3.513  0.3464  0.2147 -0.1157
 3479TIP3    H131852   6.785   5.586   3.450 -0.3194 -1.0113 -1.7146
 3479TIP3    H231853   6.702   5.579   3.576 -0.3796  1.3421 -1.6059
 3480TIP3   OH231854   3.360   5.965   5.323  0.0052 -0.6656 -0.4246
 3480TIP3    H131855   3.442   5.938   5.282 -0.7590 -2.1340 -1.0071
 3480TIP3    H231856   3.387   6.015   5.400  1.4445 -1.5959 -0.3098
 3481TIP3   OH231857   6.043   5.246   1.209 -0.6149  0.0920 -0.8855
 3481TIP3    H131858   6.108   5.251   1.139  0.6822 -0.2223  0.2778
 3481TIP3    H231859   5.999   5.163   1.194 -0.0785 -0.1567 -1.0992
 3482TIP3   OH231860   4.925   1.722  16.353  0.3043 -0.5804  0.0797
 3482TIP3    H131861   4.841   1.756  16.386  1.4943  0.8684  1.6961
 3482TIP3    H231862   4.936   1.766  16.268 -1.2408 -1.8856 -0.8255
 3483TIP3   OH231863   2.339   1.484   1.914 -0.2925 -0.2033  0.1023
 3483TIP3    H131864   2.269   1.422   1.932  1.2921 -1.7021  1.2266
 3483TIP3    H231865   2.323   1.558   1.972 -0.8904 -0.5778  0.4069
 3484TIP3   OH231866   6.345   4.365  15.063  0.1227  0.6388 -0.0333
 3484TIP3    H131867   6.276   4.314  15.021 -0.8536  1.7728  0.1751
 3484TIP3    H231868   6.421   4.355  15.006  0.2557 -1.8691  0.5107
 3485TIP3   OH231869   6.063   0.459  11.805 -0.3204  0.0627  0.3477
 3485TIP3    H131870   6.098   0.463  11.894  0.0948  1.6905  0.1304
 3485TIP3    H231871   6.107   0.530  11.759 -1.2759 -0.1310 -0.8894
 3486TIP3   OH231872   4.342   5.469  15.439 -0.6391  0.4326  0.5113
 3486TIP3    H131873   4.296   5.437  15.517 -1.7832 -0.1343 -0.3878
 3486TIP3    H231874   4.273   5.497  15.380  0.0577 -1.8030 -1.4532
 3487TIP3   OH231875   2.138   0.260  15.173  1.0779 -0.0842  0.6321
 3487TIP3    H131876   2.183   0.207  15.239  0.6914  0.7613  1.5727
 3487TIP3    H231877   2.108   0.338  15.220  0.8772  0.5675 -0.5561
 3488TIP3   OH231878   4.268   0.723  10.405 -0.1685  0.1774  0.0302
 3488TIP3    H131879   4.292   0.640  10.365 -0.3487  0.0108  0.2621
 3488TIP3    H231880   4.181   0.743  10.372 -0.7603 -0.4934  1.1536
 3489TIP3   OH231881   6.154   0.124   0.518 -0.1395  0.3594  0.1060
 3489TIP3    H131882   6.125   0.034   0.532 -0.2485  0.1484 -1.3673
 3489TIP3    H231883   6.077   0.177   0.535 -1.1166 -0.1117 -2.5434
 3490TIP3   OH231884   5.427   6.697  13.900  0.1360  0.0822  0.0204
 3490TIP3    H131885   5.444   6.772  13.957  1.0876  0.9702 -1.4022
 3490TIP3    H231886   5.332   6.698  13.889 -0.0883 -0.2146  1.7128
 3491TIP3   OH231887   6.515   5.525  10.883 -0.5256 -0.1460  0.5272
 3491TIP3    H131888   6.478   5.597  10.935 -0.9553 -0.9271  1.3093
 3491TIP3    H231889   6.525   5.562  10.796 -1.4913  0.6377  0.7343
 3492TIP3   OH231890   0.904   4.688   5.733  0.1746 -0.1605 -0.3109
 3492TIP3    H131891   0.934   4.626   5.800  1.3112 -0.7752 -1.3723
 3492TIP3    H231892   0.966   4.760   5.738  0.8230 -0.6337 -1.3237
 3493TIP3   OH231893   4.967   3.872  15.061 -0.0770 -0.0195 -0.0418
 3493TIP3    H131894   5.034   3.877  15.129 -0.2821  1.0287  0.1018
 3493TIP3    H231895   4.965   3.780  15.035  0.4397 -0.3133  0.9361
 3494TIP3   OH231896   5.541   2.728  12.690  0.7044 -0.1807 -0.3949
 3494TIP3    H131897   5.605   2.794  12.662  0.8308  1.3242  3.1487
 3494TIP3    H231898   5.593   2.651  12.710  1.2476  0.5622  1.0705
 3495TIP3   OH231899   6.549   4.992  12.995 -0.3914 -0.1955 -0.6759
 3495TIP3    H131900   6.543   4.904  13.033  3.1611 -0.2397 -0.0368
 3495TIP3    H231901   6.574   4.977  12.904 -0.1760  0.1655 -0.6740
 3496TIP3   OH231902   4.819   4.363   2.342 -0.1494 -0.2245 -0.2946
 3496TIP3    H131903   4.781   4.351   2.254  1.5735 -0.1797 -1.0579
 3496TIP3    H231904   4.906   4.325   2.336 -0.8884 -2.4430  2.1396
 3497TIP3   OH231905   4.257   2.283  13.900 -0.2636  0.4425  1.0798
 3497TIP3    H131906   4.254   2.229  13.979 -1.3825 -2.4400 -0.8449
 3497TIP3    H231907   4.171   2.270  13.860  0.0592  2.3849 -0.3061
 3498TIP3   OH231908   5.878   0.924  16.478 -0.6151 -0.2618 -0.2396
 3498TIP3    H131909   5.886   1.017  16.459  0.3060 -0.0088  1.3007
 3498TIP3    H231910   5.951   0.905  16.536  0.6598 -2.5124 -2.4762
 3499TIP3   OH231911   4.621   4.452   4.494  0.6978  0.3594 -0.2350
 3499TIP3    H131912   4.682   4.413   4.431  0.3572 -0.4822 -0.0519
 3499TIP3    H231913   4.559   4.501   4.440 -0.5390 -1.6553 -0.7058
 3500TIP3   OH231914   4.663   1.291  16.341  0.1986 -0.1137 -0.6396
 3500TIP3    H131915   4.582   1.324  16.379  0.1325 -0.1986 -0.7101
 3500TIP3    H231916   4.637   1.213  16.292  0.1852  0.3626 -1.3953
 3501TIP3   OH231917   5.278   6.245  17.018 -0.3112  0.1702 -1.0006
 3501TIP3    H131918   5.338   6.278  16.950  2.0337 -0.9652  0.4331
 3501TIP3    H231919   5.289   6.305  17.091  1.0519 -1.4829  0.2023
 3502TIP3   OH231920   2.846   3.646   4.558 -0.0131  0.3750 -0.0102
 3502TIP3    H131921   2.832   3.618   4.649 -1.9021  1.2328 -0.0106
 3502TIP3    H231922   2.899   3.576   4.519  0.6702 -0.0851  1.6928
 3503TIP3   OH231923   5.797   4.830  12.321  0.0798 -0.1082 -0.3777
 3503TIP3    H131924   5.804   4.860  12.411 -2.0947 -0.9467  0.1178
 3503TIP3    H231925   5.865   4.763  12.312 -0.4822 -0.8753  1.0166
 3504TIP3   OH231926   3.508   2.243  13.721  0.5762 -0.0432 -0.3647
 3504TIP3    H131927   3.571   2.241  13.649  2.5489  3.8740  1.1309
 3504TIP3    H231928   3.437   2.299  13.690 -0.6653 -1.7906 -0.7868
 3505TIP3   OH231929   2.328   3.228  12.165  0.1811  0.2212 -0.0381
 3505TIP3    H131930   2.316   3.206  12.258  0.1314  0.2986 -0.0257
 3505TIP3    H231931   2.240   3.222  12.127  0.4825 -1.7001 -0.4930
 3506TIP3   OH231932   1.262   3.147   3.710  0.3948 -0.0721  0.4571
 3506TIP3    H131933   1.189   3.140   3.771  1.0594  0.1324  1.2765
 3506TIP3    H231934   1.229   3.202   3.639 -0.6522 -0.9995  0.2102
 3507TIP3   OH231935   2.161   1.473  16.716 -0.0995 -0.1903 -0.0638
 3507TIP3    H131936   2.151   1.475  16.621 -1.1585  0.7300  0.0469
 3507TIP3    H231937   2.071   1.482  16.750  0.0964 -2.0723  1.0168
 3508TIP3   OH231938   0.208   5.312  13.814  0.1478 -0.5025 -0.1302
 3508TIP3    H131939   0.161   5.332  13.734  0.6223 -1.8776 -0.7666
 3508TIP3    H231940   0.144   5.267  13.870  0.5946 -2.0781 -0.8657
 3509TIP3   OH231941   0.463   6.114  15.347 -0.1846  0.4377 -0.0561
 3509TIP3    H131942   0.475   6.096  15.254  0.3937 -0.0462  0.1091
 3509TIP3    H231943   0.442   6.208  15.351  1.0434  0.7442 -0.5729
 3510TIP3   OH231944   1.650   0.844   4.716  0.2993  0.5240  0.0928
 3510TIP3    H131945   1.718   0.777   4.729 -0.2749 -0.2150 -0.6692
 3510TIP3    H231946   1.672   0.884   4.632  0.5255  1.1627  0.4544
 3511TIP3   OH231947   5.626   3.086   1.959 -0.7620  0.0673  0.3368
 3511TIP3    H131948   5.699   3.109   1.902  1.0830 -1.6986  1.9251
 3511TIP3    H231949   5.623   3.156   2.024 -0.6695  0.2789  0.1135
 3512TIP3   OH231950   1.196   0.892   5.765  0.3112 -0.2130  0.1379
 3512TIP3    H131951   1.127   0.831   5.793  1.3027 -1.5058 -0.2040
 3512TIP3    H231952   1.217   0.942   5.844 -0.5329 -0.2764  0.4107
 3513TIP3   OH231953   5.236   5.373   3.303  0.2613  0.0044  0.4408
 3513TIP3    H131954   5.181   5.401   3.229  2.1288  1.8268 -0.3122
 3513TIP3    H231955   5.187   5.401   3.380  0.1724  1.7384 -0.2192
 3514TIP3   OH231956   0.438   3.722   0.086  0.2095  0.7648 -0.6684
 3514TIP3    H131957   0.378   3.737   0.013  0.1214  0.6011 -0.6285
 3514TIP3    H231958   0.476   3.808   0.104 -0.5282  1.0011 -0.2349
 3515TIP3   OH231959   6.162   6.591   4.212 -0.1811 -0.1594  0.0279
 3515TIP3    H131960   6.209   6.626   4.287 -0.5693 -1.8654  1.0829
 3515TIP3    H231961   6.225   6.533   4.169  0.1778  1.1230 -1.2228
 3516TIP3   OH231962   5.817   4.411  13.711  0.0701 -0.2448  0.5312
 3516TIP3    H131963   5.786   4.475  13.776  1.0936  0.4830  0.3056
 3516TIP3    H231964   5.838   4.333  13.763  0.1282  0.0633  0.9773
 3517TIP3   OH231965   3.764   5.592  17.184 -0.3951  0.1802 -0.1316
 3517TIP3    H131966   3.859   5.579  17.180 -0.0921  2.2702 -0.0264
 3517TIP3    H231967   3.753   5.686  17.194 -2.4914 -0.0588 -0.0248
 3518TIP3   OH231968   0.187   2.702   0.225 -0.3675 -0.3665 -0.2420
 3518TIP3    H131969   0.204   2.676   0.135 -0.7014  0.9711 -0.6928
 3518TIP3    H231970   0.105   2.751   0.222  1.1192  2.2704  0.3024
 3519TIP3   OH231971   4.804   5.082   2.251 -0.3490 -0.7082  0.6967
 3519TIP3    H131972   4.789   5.059   2.160  1.6336  2.6529 -0.5945
 3519TIP3    H231973   4.893   5.051   2.270  0.0172  0.3744  0.8187
 3520TIP3   OH231974   2.648   4.078  16.741  0.8023 -0.1159 -0.6573
 3520TIP3    H131975   2.707   4.153  16.734 -1.4731  1.6132 -2.1919
 3520TIP3    H231976   2.592   4.098  16.815  0.4048 -0.4607 -0.8614
 3521TIP3   OH231977   6.600   5.480   3.043 -0.6043  0.0840 -0.1255
 3521TIP3    H131978   6.530   5.417   3.024  0.7640 -1.1528 -1.2535
 3521TIP3    H231979   6.590   5.502   3.135 -2.6528  0.1491 -0.3529
 3522TIP3   OH231980   5.320   3.553   1.742 -0.5928  0.2402  0.3824
 3522TIP3    H131981   5.284   3.480   1.791  1.5841 -0.4559  1.0170
 3522TIP3    H231982   5.324   3.522   1.651 -1.3795  0.2591  0.3369
 3523TIP3   OH231983   2.224   1.530   1.666 -0.3772 -0.5739 -0.4795
 3523TIP3    H131984   2.299   1.526   1.726 -1.0048  1.2519  0.4585
 3523TIP3    H231985   2.240   1.459   1.604  1.8723 -0.5520  0.0121
 3524TIP3   OH231986   1.246   5.828  16.239  0.3000  0.4302 -0.2989
 3524TIP3    H131987   1.170   5.885  16.225 -0.8193 -1.0821 -0.5053
 3524TIP3    H231988   1.285   5.859  16.320 -0.5397  1.2312 -0.1955
 3525TIP3   OH231989   0.284   6.487   1.170 -0.1940 -1.0363 -0.4846
 3525TIP3    H131990   0.353   6.486   1.237  0.1362  1.0464 -0.7539
 3525TIP3    H231991   0.203   6.473   1.218  0.0694  0.1470  0.3331
 3526TIP3   OH231992   1.533   2.339   5.733  0.4961 -0.3185 -0.2470
 3526TIP3    H131993   1.561   2.252   5.762  0.7863  0.2116  1.1048
 3526TIP3    H231994   1.452   2.323   5.685  0.0975 -1.2656  0.7004
 3527TIP3   OH231995   4.264   2.836   2.642  0.3823 -0.3475 -0.1859
 3527TIP3    H131996   4.176   2.856   2.672  0.1299  0.9927 -1.7432
 3527TIP3    H231997   4.311   2.919   2.648  1.3504 -0.8947 -0.0283
 3528TIP3   OH231998   0.684   2.027   5.075  0.2235 -0.3558  0.2807
 3528TIP3    H131999   0.745   2.021   5.001  0.7288 -0.7924  0.7277
 3528TIP3    H232000   0.717   1.963   5.138 -0.8677 -0.7915  0.4131
 3529TIP3   OH232001   4.650   0.544  16.847 -0.1503  0.4006  0.1700
 3529TIP3    H132002   4.692   0.631  16.848  0.2130  0.2478 -1.2813
 3529TIP3    H232003   4.564   0.559  16.887  0.1503  1.3073  0.4978
 3530TIP3   OH232004   2.573   5.212  12.501 -0.5078  0.1306 -0.0609
 3530TIP3    H132005   2.537   5.136  12.546  0.9282  0.1138  1.1327
 3530TIP3    H232006   2.510   5.233  12.433 -2.4573 -0.2423  1.5959
 3531TIP3   OH232007   4.215   4.486   5.419  0.1793  0.5526 -0.2074
 3531TIP3    H132008   4.249   4.473   5.508  0.4033  0.4824 -0.3030
 3531TIP3    H232009   4.269   4.429   5.365  1.1120  1.8181 -0.6201
 3532TIP3   OH232010   5.705   3.199   4.475 -0.0842 -0.6911  0.6724
 3532TIP3    H132011   5.641   3.136   4.442  0.3651 -1.4882  1.2902
 3532TIP3    H232012   5.790   3.158   4.459  0.1942 -0.4373  1.4555
 3533TIP3   OH232013   3.387   3.111   3.529  0.1258 -0.2427 -0.4770
 3533TIP3    H132014   3.430   3.179   3.476 -0.6045 -0.0598 -0.8471
 3533TIP3    H232015   3.442   3.034   3.517  2.2501  0.8525  1.7617
 3534TIP3   OH232016   5.747   6.186   0.460 -0.2559 -0.1135 -0.1755
 3534TIP3    H132017   5.756   6.090   0.463  0.8817 -0.1368 -2.8678
 3534TIP3    H232018   5.725   6.210   0.550  0.2123 -2.8300  0.7382
 3535TIP3   OH232019   6.215   3.663  15.079  1.0734  0.2266  0.6829
 3535TIP3    H132020   6.201   3.620  14.995 -0.5507  3.1277 -0.5802
 3535TIP3    H232021   6.166   3.609  15.141  0.6704 -0.8417 -0.5447
 3536TIP3   OH232022   2.444   2.449  17.223  0.2548 -0.3960  0.0633
 3536TIP3    H132023   2.522   2.434  17.277  0.9644  0.0046 -0.8327
 3536TIP3    H232024   2.463   2.530  17.176 -0.8590 -0.1086  0.1103
 3537TIP3   OH232025   3.777   3.194  10.245 -0.0826  0.0191  0.2955
 3537TIP3    H132026   3.860   3.215  10.287 -0.2586  0.4915  0.4060
 3537TIP3    H232027   3.767   3.099  10.256 -0.3851  0.2224  1.7729
 3538TIP3   OH232028   6.249   0.576  16.349 -0.0682  0.5823 -0.4324
 3538TIP3    H132029   6.243   0.484  16.374 -0.0882  0.1820 -1.8400
 3538TIP3    H232030   6.195   0.622  16.413  0.1382 -0.3523  0.4274
 3539TIP3   OH232031   1.553   1.495   0.208  0.5232  0.2487  0.6011
 3539TIP3    H132032   1.464   1.528   0.222 -0.0365 -1.0338  0.1198
 3539TIP3    H232033   1.553   1.462   0.119  0.5222 -2.6676  1.6071
 3540TIP3   OH232034   1.558   6.066  12.315  0.0334 -0.9276  0.2627
 3540TIP3    H132035   1.573   5.993  12.375  0.8552 -0.1184  1.0603
 3540TIP3    H232036   1.541   6.141  12.372  2.9391  0.3184 -0.4264
 3541TIP3   OH232037   1.324   2.776   2.020  0.2109  0.5716 -0.2377
 3541TIP3    H132038   1.348   2.765   1.928 -0.3137 -0.1680 -0.2936
 3541TIP3    H232039   1.233   2.744   2.025 -1.1610  4.2483 -0.2546
 3542TIP3   OH232040   4.677   1.274  13.104  0.1290 -0.2017  0.4239
 3542TIP3    H132041   4.671   1.178  13.109  0.6394 -0.1677  1.9217
 3542TIP3    H232042   4.619   1.305  13.173  2.2990  0.4992  1.9954
 3543TIP3   OH232043   2.846   6.298  13.022 -0.2589 -0.7661  0.1251
 3543TIP3    H132044   2.780   6.230  13.030  0.0931 -1.1284 -0.0569
 3543TIP3    H232045   2.802   6.368  12.974 -0.4178 -1.1287 -0.2596
 3544TIP3   OH232046   1.612   2.235  11.312 -0.3282  0.4053 -0.3584
 3544TIP3    H132047   1.612   2.331  11.310 -1.5183  0.5197  2.7369
 3544TIP3    H232048   1.595   2.209  11.221  0.3003  3.1076 -1.2922
 3545TIP3   OH232049   4.496   1.854  14.782  0.3164 -0.4493 -0.0703
 3545TIP3    H132050   4.471   1.767  14.813 -0.8394  0.1233  0.6271
 3545TIP3    H232051   4.413   1.900  14.771  0.9765  0.9581  0.7172
 3546TIP3   OH232052   5.526   3.334  11.285 -0.0562  0.2239  0.5429
 3546TIP3    H132053   5.616   3.307  11.268 -0.1712  0.0766  0.1571
 3546TIP3    H232054   5.504   3.392  11.212 -0.4358 -0.1255  0.3768
 3547TIP3   OH232055   6.181   5.087  14.718 -0.1757 -0.2945  0.0801
 3547TIP3    H132056   6.271   5.119  14.723 -0.1772 -0.2900  0.0707
 3547TIP3    H232057   6.151   5.088  14.809  0.0271 -0.8418  0.1585
 3548TIP3   OH232058   4.208   4.415  11.398  0.5104 -0.0787  0.5366
 3548TIP3    H132059   4.131   4.384  11.446  0.2878 -1.7375 -0.8059
 3548TIP3    H232060   4.171   4.466  11.325  0.7891  1.2844  1.3432
 3549TIP3   OH232061   4.634   3.777   3.914  0.6531 -0.4472 -0.1921
 3549TIP3    H132062   4.544   3.754   3.937  1.0791 -1.3769  0.6029
 3549TIP3    H232063   4.626   3.851   3.855 -0.6244 -0.3193  0.1338
 3550TIP3   OH232064   2.604   1.983   2.457 -0.4205  0.2677  0.0147
 3550TIP3    H132065   2.600   2.033   2.539 -2.2745  0.9720 -0.4821
 3550TIP3    H232066   2.640   2.045   2.393 -0.3169  0.1638 -0.0286
 3551TIP3   OH232067   3.710   1.132  12.602  0.0905 -0.4131 -0.4106
 3551TIP3    H132068   3.676   1.193  12.667  0.0508  0.4770 -1.2571
 3551TIP3    H232069   3.804   1.125  12.623 -0.2928 -1.7412  1.0100
 3552TIP3   OH232070   3.235   4.815  11.644  0.3967 -0.0625 -0.5988
 3552TIP3    H132071   3.303   4.850  11.586  1.0334 -0.3779 -0.0554
 3552TIP3    H232072   3.212   4.730  11.606  0.0651  0.1938 -0.9709
 3553TIP3   OH232073   1.282   6.345   4.407 -0.2736  0.0833  0.0128
 3553TIP3    H132074   1.293   6.424   4.460  1.0849  0.5817 -1.0075
 3553TIP3    H232075   1.204   6.303   4.443 -0.2789  1.2418  1.3743
 3554TIP3   OH232076   1.696   6.373   2.982  0.8440  0.0081  0.0936
 3554TIP3    H132077   1.643   6.370   3.062 -1.0373  2.0157 -1.0294
 3554TIP3    H232078   1.672   6.292   2.936 -2.4040  1.5188 -1.0473
 3555TIP3   OH232079   4.645   6.028  12.630  0.1057  0.5360  0.9486
 3555TIP3    H132080   4.670   6.103  12.576  1.3510 -0.9560 -0.6220
 3555TIP3    H232081   4.727   5.979  12.642 -1.0418 -1.6450  0.1968
 3556TIP3   OH232082   3.057   0.779  12.501 -0.1426  0.4102  0.1764
 3556TIP3    H132083   2.961   0.774  12.508  0.0241 -1.4274  1.2797
 3556TIP3    H232084   3.083   0.837  12.572 -0.4822  1.4893 -0.5656
 3557TIP3   OH232085   0.758   4.556   3.093 -0.2009 -0.4671 -0.0227
 3557TIP3    H132086   0.842   4.516   3.070 -0.7230 -1.8230  0.3800
 3557TIP3    H232087   0.780   4.621   3.160  0.6550 -0.1139 -0.6402
 3558TIP3   OH232088   1.583   3.994   6.353 -0.2247  0.8701 -0.0567
 3558TIP3    H132089   1.521   4.011   6.281 -0.9256  1.5176  0.6928
 3558TIP3    H232090   1.647   4.065   6.347 -1.7834  2.4479  1.5807
 3559TIP3   OH232091   2.816   2.657   1.335  0.3567 -0.8444 -0.5908
 3559TIP3    H132092   2.818   2.752   1.323  0.0056 -0.7962 -0.2415
 3559TIP3    H232093   2.762   2.625   1.263 -0.9800 -0.6279  0.3074
 3560TIP3   OH232094   2.725   3.792  12.712  0.1461 -0.6079  0.0536
 3560TIP3    H132095   2.721   3.886  12.692 -0.5924 -0.5117  0.6424
 3560TIP3    H232096   2.666   3.781  12.787  1.1561 -1.3427  0.7524
 3561TIP3   OH232097   5.545   0.888  16.868  0.4187 -0.3368 -0.5728
 3561TIP3    H132098   5.632   0.914  16.840  0.3922  0.5952  0.1779
 3561TIP3    H232099   5.555   0.798  16.899  1.7446  0.6730  2.1549
 3562TIP3   OH232100   4.978   5.084  14.632 -0.4177 -0.1004 -0.0670
 3562TIP3    H132101   4.961   5.174  14.605 -0.7479 -0.2104 -0.2436
 3562TIP3    H232102   4.931   5.031  14.567 -0.3461 -0.3947  0.1211
 3563TIP3   OH232103   2.632   4.877   4.985  0.1860  0.0391 -0.2609
 3563TIP3    H132104   2.679   4.867   4.902 -0.9609  0.4043 -0.9686
 3563TIP3    H232105   2.548   4.834   4.970  1.5034 -3.5911  2.0809
 3564TIP3   OH232106   6.162   5.037  16.351  1.0205  0.7255 -0.3018
 3564TIP3    H132107   6.145   5.131  16.357  1.3284  0.7250  0.8895
 3564TIP3    H232108   6.112   4.999  16.424  1.4787  0.0644 -0.3228
 3565TIP3   OH232109   6.111   2.075   0.695  0.0290  0.3611  0.4441
 3565TIP3    H132110   6.170   2.031   0.756  1.1828  0.7415 -0.4045
 3565TIP3    H232111   6.152   2.065   0.610 -1.5819 -0.1586 -0.2902
 3566TIP3   OH232112   0.503   6.508   1.354  0.4556 -0.3654 -0.4254
 3566TIP3    H132113   0.576   6.569   1.347  1.9129 -1.6329  2.7819
 3566TIP3    H232114   0.543   6.421   1.346 -0.7676 -1.0662  0.9211
 3567TIP3   OH232115   5.592   3.409  15.615  0.0090  0.3576  0.1043
 3567TIP3    H132116   5.668   3.446  15.570 -1.1672  1.6587 -0.8580
 3567TIP3    H232117   5.598   3.315  15.601  1.4985  0.4383  0.1346
 3568TIP3   OH232118   0.388   4.830   5.573 -0.4369 -0.1033  0.1755
 3568TIP3    H132119   0.481   4.822   5.595 -0.2332 -2.6245 -1.3973
 3568TIP3    H232120   0.350   4.878   5.646  1.7169 -0.9316  1.8898
 3569TIP3   OH232121   4.937   5.581   4.423  0.3501 -0.7144 -0.1752
 3569TIP3    H132122   4.961   5.508   4.366 -0.0480 -0.2936 -0.8898
 3569TIP3    H232123   5.007   5.586   4.488  1.1028 -0.8293 -0.9835
 3570TIP3   OH232124   1.459   5.240  14.164 -0.1984  0.2793  0.0326
 3570TIP3    H132125   1.428   5.172  14.104 -1.4983  0.9269 -0.0598
 3570TIP3    H232126   1.433   5.208  14.250 -1.1454  0.8271 -0.0460
 3571TIP3   OH232127   2.662   6.131   0.672 -0.6122 -0.5768 -0.3594
 3571TIP3    H132128   2.709   6.214   0.663 -1.8718  0.2991  0.8659
 3571TIP3    H232129   2.589   6.138   0.610  0.6495 -1.7895 -2.0122
 3572TIP3   OH232130   0.857   4.940  12.742 -0.5870  1.1555 -0.0677
 3572TIP3    H132131   0.762   4.932  12.729 -0.2778 -0.5924 -1.5023
 3572TIP3    H232132   0.895   4.889  12.670  1.4278  0.9530  1.1034
 3573TIP3   OH232133   2.273   0.229   5.093 -0.1665  0.2117  0.6115
 3573TIP3    H132134   2.225   0.309   5.114 -0.0421  0.6135 -0.5403
 3573TIP3    H232135   2.326   0.211   5.170 -1.1765  0.5105  1.3790
 3574TIP3   OH232136   4.065   3.771  13.666  0.2924 -0.4402 -0.1207
 3574TIP3    H132137   3.970   3.772  13.673  0.4094  2.5608  1.8357
 3574TIP3    H232138   4.091   3.695  13.718 -0.9984 -1.1477 -0.4819
 3575TIP3   OH232139   0.764   0.024  12.656  0.0867 -0.2009 -0.3421
 3575TIP3    H132140   0.707   0.041  12.731  0.4468  0.7885 -0.2848
 3575TIP3    H232141   0.833  -0.032  12.690 -0.1403 -0.3357 -0.1031
 3576TIP3   OH232142   1.108   5.314   5.509 -0.7036 -0.3989  0.3277
 3576TIP3    H132143   1.059   5.371   5.449 -1.0850  0.3848  1.3554
 3576TIP3    H232144   1.169   5.373   5.553  0.0845 -1.0999  0.1825
 3577TIP3   OH232145   3.134   4.602   3.372 -0.1053  0.5450  0.1671
 3577TIP3    H132146   3.053   4.637   3.408 -0.5144 -0.0501 -0.1693
 3577TIP3    H232147   3.148   4.519   3.419 -0.7979 -0.3838 -1.2271
 3578TIP3   OH232148   1.726   0.377   3.005  0.1446  0.1581  0.4469
 3578TIP3    H132149   1.729   0.283   3.024 -0.0571 -0.0786 -0.6478
 3578TIP3    H232150   1.678   0.383   2.922  0.4831  1.1941  0.3212
 3579TIP3   OH232151   3.687   3.554   4.939 -0.1003 -0.1052 -0.4234
 3579TIP3    H132152   3.677   3.632   4.883 -2.7386 -2.0501 -2.8329
 3579TIP3    H232153   3.616   3.562   5.002 -1.2607 -1.1988 -1.5539
 3580TIP3   OH232154   4.846   4.619  11.393  0.0269  0.2668 -0.4596
 3580TIP3    H132155   4.870   4.709  11.415  0.9133 -0.1020  0.1080
 3580TIP3    H232156   4.753   4.624  11.369 -0.2570  1.1106  0.7785
 3581TIP3   OH232157   1.667   3.113  16.726  0.2788  0.0834 -0.0121
 3581TIP3    H132158   1.717   3.140  16.649  0.0155 -0.9710 -0.5658
 3581TIP3    H232159   1.589   3.072  16.690 -0.5445  0.8890  0.8430
 3582TIP3   OH232160   2.667   3.705   6.053 -0.1173 -0.7427 -0.1016
 3582TIP3    H132161   2.733   3.713   6.122  0.4203 -0.0334 -0.6843
 3582TIP3    H232162   2.591   3.667   6.097  0.3432 -0.6549  0.7962
 3583TIP3   OH232163   0.876   6.202   4.132  0.2345 -0.4162  0.2958
 3583TIP3    H132164   0.954   6.146   4.128  1.2679  1.0515 -0.1843
 3583TIP3    H232165   0.894   6.264   4.203 -1.1056 -0.9440  1.1377
 3584TIP3   OH232166   5.916   0.788  17.225 -0.0542  0.0760 -0.2123
 3584TIP3    H132167   5.900   0.709  17.173 -0.4395 -0.9100  1.3526
 3584TIP3    H232168   5.999   0.771  17.269 -0.7086  0.0181  1.0413
 3585TIP3   OH232169   5.662   2.462  12.670  0.1442 -0.1929 -0.0671
 3585TIP3    H132170   5.747   2.483  12.632 -0.6581 -0.4330 -2.0294
 3585TIP3    H232171   5.624   2.397  12.611 -1.3864 -0.1265  0.8122
 3586TIP3   OH232172   1.846   3.440   3.660  0.1386  0.9924 -0.2010
 3586TIP3    H132173   1.778   3.476   3.603  0.5328  0.7849 -0.7966
 3586TIP3    H232174   1.827   3.347   3.665 -1.8055  1.4668  2.5773
 3587TIP3   OH232175   4.659   1.831  11.869  0.0664 -0.4582  0.3677
 3587TIP3    H132176   4.634   1.790  11.786  0.9169 -1.1863  0.4615
 3587TIP3    H232177   4.584   1.816  11.927 -0.7282  0.4766 -0.4157
 3588TIP3   OH232178   4.420   2.894   0.526  0.6663 -0.3125  0.4054
 3588TIP3    H132179   4.500   2.904   0.475  0.0756  0.1452 -0.4287
 3588TIP3    H232180   4.358   2.851   0.468  0.3066 -0.6997  1.0604
 3589TIP3   OH232181   4.255   0.105   0.015  0.3350  0.0997 -0.7740
 3589TIP3    H132182   4.331   0.074  -0.034 -0.1774 -0.5541 -1.1522
 3589TIP3    H232183   4.186   0.042  -0.005 -0.8841  1.7949 -1.9934
 3590TIP3   OH232184   4.358   5.512  15.015 -0.2411  0.3042  0.0644
 3590TIP3    H132185   4.391   5.452  14.948 -1.6594 -1.8426  1.2450
 3590TIP3    H232186   4.297   5.569  14.968  1.3283  1.0807 -1.1227
 3591TIP3   OH232187   0.061   3.794  14.459 -0.5455  0.8437  0.2721
 3591TIP3    H132188  -0.019   3.815  14.410 -1.8913 -0.2636  1.9119
 3591TIP3    H232189   0.090   3.878  14.496 -1.4730  1.1140  0.3995
 3592TIP3   OH232190   1.844   3.894  13.874 -0.1392 -0.4044  0.5483
 3592TIP3    H132191   1.903   3.826  13.841 -0.9387 -0.2430 -1.2822
 3592TIP3    H232192   1.758   3.852  13.876 -0.1852 -0.2940  2.1437
 3593TIP3   OH232193   4.078   2.815  13.655 -0.2607  0.2113 -0.3956
 3593TIP3    H132194   4.022   2.794  13.580  0.8128 -1.7971 -0.6769
 3593TIP3    H232195   4.051   2.753  13.723 -0.0578  0.8770  0.2926
 3594TIP3   OH232196   1.006   4.458  12.993  0.7090 -0.3821 -0.1994
 3594TIP3    H132197   1.018   4.386  12.932  0.0915 -0.3330 -0.3928
 3594TIP3    H232198   0.942   4.515  12.949 -0.0599 -0.5548  0.6689
 3595TIP3   OH232199   0.513   1.811   1.507  0.0825 -0.2686  0.3183
 3595TIP3    H132200   0.598   1.853   1.519  0.4245 -0.9438  0.2924
 3595TIP3    H232201   0.500   1.759   1.587 -0.0298 -0.6347  0.0657
 3596TIP3   OH232202   6.201   5.213  15.323  0.6722 -0.6339 -0.4383
 3596TIP3    H132203   6.227   5.205  15.232  2.5532 -1.5386  0.1618
 3596TIP3    H232204   6.254   5.285  15.357  1.6372 -1.7633  0.5024
 3597TIP3   OH232205   4.066   0.828  16.570  0.7074 -0.1739 -0.0103
 3597TIP3    H132206   4.047   0.857  16.659  0.6605 -2.4940  0.7447
 3597TIP3    H232207   4.126   0.896  16.536  0.2308  1.0590  1.5391
 3598TIP3   OH232208   1.690   4.784   4.075 -0.5912  0.0591  0.2924
 3598TIP3    H132209   1.662   4.842   4.145 -1.7229 -1.2196  0.9126
 3598TIP3    H232210   1.677   4.836   3.995 -2.1601  0.4616  0.7848
 3599TIP3   OH232211   2.384   3.154   4.704 -0.1474 -0.3912  0.1902
 3599TIP3    H132212   2.303   3.191   4.740 -0.2365  0.0198 -0.4213
 3599TIP3    H232213   2.437   3.230   4.682 -1.5304 -0.5137 -3.8555
 3600TIP3   OH232214   1.002   0.648   5.382  0.3830  0.1787 -0.4086
 3600TIP3    H132215   1.018   0.579   5.318  0.1154 -1.7068  1.4931
 3600TIP3    H232216   1.080   0.703   5.378  0.7731 -0.4445 -1.6843
 3601TIP3   OH232217   1.151   4.590  15.869 -0.1447 -0.4763  0.1893
 3601TIP3    H132218   1.059   4.608  15.889  0.1899  0.0158  1.2795
 3601TIP3    H232219   1.199   4.625  15.943  0.9928 -0.0601 -0.7326
 3602TIP3   OH232220   4.211   0.304  11.602  0.2230 -0.5520 -0.1490
 3602TIP3    H132221   4.228   0.241  11.672  2.2849 -1.4667 -1.4371
 3602TIP3    H232222   4.121   0.285  11.575 -0.0269 -1.2802  1.1170
 3603TIP3   OH232223   1.476   3.532   4.441  0.0343  0.2597 -0.4099
 3603TIP3    H132224   1.466   3.551   4.534  0.3350  0.6710 -0.4591
 3603TIP3    H232225   1.458   3.439   4.433  2.1485 -0.2431  0.3899
 3604TIP3   OH232226   2.041   3.645   1.574 -0.1418  0.7051 -0.6843
 3604TIP3    H132227   2.005   3.679   1.492  0.9352  0.9951 -1.0388
 3604TIP3    H232228   2.123   3.603   1.549  0.5860  1.4740  0.3410
 3605TIP3   OH232229   3.447   0.041   4.185  0.3437  0.6193 -0.3341
 3605TIP3    H132230   3.359   0.072   4.161 -0.0335 -0.3989 -0.2846
 3605TIP3    H232231   3.435  -0.001   4.270  0.8036  0.1183 -0.5159
 3606TIP3   OH232232   6.587   1.041   3.977  0.3026  0.1663 -0.0547
 3606TIP3    H132233   6.498   1.021   4.006 -0.5123  0.3125 -2.3464
 3606TIP3    H232234   6.601   1.132   4.001 -0.4366  0.3433 -0.2910
 3607TIP3   OH232235   0.761   3.461  13.397  0.3149 -0.6179  0.0055
 3607TIP3    H132236   0.680   3.469  13.447  0.9671  0.8123  0.8622
 3607TIP3    H232237   0.831   3.471  13.462  1.2037 -2.0371 -0.6920
 3608TIP3   OH232238   5.402   3.012  16.483  0.2223 -0.5095 -0.2629
 3608TIP3    H132239   5.388   2.929  16.438  1.7662 -1.6571  1.2971
 3608TIP3    H232240   5.435   2.987  16.570 -0.5192  1.6926  0.6986
 3609TIP3   OH232241   2.374   6.538   3.347 -0.8012  0.2805 -0.0296
 3609TIP3    H132242   2.323   6.603   3.298  0.4088  1.7981  0.6555
 3609TIP3    H232243   2.393   6.470   3.282 -3.6957 -0.3589 -0.2726
 3610TIP3   OH232244   5.931   6.487   3.171  0.2485 -0.0539  0.2089
 3610TIP3    H132245   5.958   6.492   3.079  0.8589  0.7283  0.4187
 3610TIP3    H232246   5.959   6.401   3.200 -0.7126 -0.6341 -0.5712
 3611TIP3   OH232247   0.081   3.745   5.865 -0.2202  0.2058 -0.1190
 3611TIP3    H132248   0.108   3.703   5.947 -0.3939  0.3022 -0.0119
 3611TIP3    H232249   0.158   3.738   5.808 -0.2698 -0.3020 -0.1210
 3612TIP3   OH232250   3.530   1.883  11.398  0.3460  0.3258 -0.3648
 3612TIP3    H132251   3.542   1.935  11.319 -1.0327  0.0267 -0.7873
 3612TIP3    H232252   3.619   1.858  11.424  0.7850  0.0536 -2.0670
 3613TIP3   OH232253   5.647   3.679  14.790 -0.0500 -0.0516  0.1535
 3613TIP3    H132254   5.586   3.740  14.748 -1.0805 -0.4573  1.0346
 3613TIP3    H232255   5.607   3.593  14.777  0.1107 -0.2763  1.1370
 3614TIP3   OH232256   2.762   2.521  11.897 -0.2355  0.3413  0.2531
 3614TIP3    H132257   2.852   2.498  11.921 -0.2308  1.1502  1.0611
 3614TIP3    H232258   2.760   2.617  11.902 -1.0196  0.3527 -0.2042
 3615TIP3   OH232259   4.890   1.406   4.671 -0.1894 -0.4051 -0.2449
 3615TIP3    H132260   4.858   1.445   4.752  0.6638  1.2261 -0.6612
 3615TIP3    H232261   4.824   1.430   4.605 -0.9501 -1.8416 -0.0183
 3616TIP3   OH232262   4.431   0.070  14.121 -0.2566 -0.2774  0.0707
 3616TIP3    H132263   4.443  -0.024  14.135  0.3704 -0.4355 -1.3821
 3616TIP3    H232264   4.363   0.076  14.053  1.4129  0.2146 -1.6136
 3617TIP3   OH232265   5.780   1.401   5.151 -0.0710 -0.4693 -0.6630
 3617TIP3    H132266   5.693   1.437   5.136  0.4575  0.9695 -0.3738
 3617TIP3    H232267   5.782   1.380   5.245  0.6108  1.5077 -0.2184
 3618TIP3   OH232268   5.739   6.145  11.641  0.6414  0.4370 -0.1066
 3618TIP3    H132269   5.814   6.095  11.607  1.4176  1.3938  0.1655
 3618TIP3    H232270   5.673   6.078  11.661  1.2579 -0.3848 -0.7513
 3619TIP3   OH232271   0.203   1.180   5.562  0.0861 -0.0523  0.6284
 3619TIP3    H132272   0.155   1.144   5.488  1.1617  0.0680 -0.1354
 3619TIP3    H232273   0.135   1.202   5.626 -0.7850 -0.8886  0.0061
 3620TIP3   OH232274   1.384   6.153  15.305  0.2047 -0.4792  0.6077
 3620TIP3    H132275   1.369   6.208  15.229 -0.2160 -0.3648  0.7734
 3620TIP3    H232276   1.311   6.172  15.364  1.5141  0.8205  1.8427
 3621TIP3   OH232277   1.778   1.412   5.250 -0.6362  0.1875 -0.0518
 3621TIP3    H132278   1.787   1.319   5.273 -0.8814  0.3766  0.8486
 3621TIP3    H232279   1.810   1.418   5.160 -0.2020 -0.6902  0.0392
 3622TIP3   OH232280   3.828   4.573   4.162  0.5659 -0.1554 -0.7893
 3622TIP3    H132281   3.737   4.601   4.175 -0.0712 -2.8501  0.8821
 3622TIP3    H232282   3.874   4.605   4.239  1.0199  1.1122 -1.5832
 3623TIP3   OH232283   1.686   4.496  10.396 -0.0012  0.7423 -0.0188
 3623TIP3    H132284   1.599   4.457  10.398  0.3020  0.0944  1.5496
 3623TIP3    H232285   1.672   4.584  10.359 -1.2686  0.5299 -0.0689
 3624TIP3   OH232286   0.382   4.654  17.138  0.5613  0.4791  0.4112
 3624TIP3    H132287   0.310   4.715  17.123  0.4185 -0.2323 -2.0122
 3624TIP3    H232288   0.346   4.587  17.196 -1.0954 -0.4512 -1.6332
 3625TIP3   OH232289   3.695   4.277   1.733 -0.4942  0.2848  1.4403
 3625TIP3    H132290   3.700   4.353   1.790  0.7919  0.9269  0.4832
 3625TIP3    H232291   3.744   4.301   1.655 -2.1391 -0.6239  0.0843
 3626TIP3   OH232292   2.366   5.117  16.299 -0.4948  0.4653  0.3409
 3626TIP3    H132293   2.446   5.104  16.350  0.2582  0.5205 -0.8249
 3626TIP3    H232294   2.383   5.073  16.215 -1.1672  1.6504 -0.4212
 3627TIP3   OH232295   1.656   6.643  12.229 -0.2934  0.0131  0.0996
 3627TIP3    H132296   1.685   6.701  12.159 -0.7747 -1.3547 -1.2709
 3627TIP3    H232297   1.561   6.634  12.215 -0.2943 -0.7478  0.5506
 3628TIP3   OH232298   1.309   5.673  15.757 -0.0434  0.6618  0.9600
 3628TIP3    H132299   1.235   5.615  15.779 -0.9574  0.9774 -1.1001
 3628TIP3    H232300   1.378   5.648  15.818 -1.5022 -0.3826  2.2314
 3629TIP3   OH232301   5.608   3.675   3.414 -0.4408 -0.2543 -0.4810
 3629TIP3    H132302   5.552   3.708   3.483 -0.9196 -0.3912 -0.8033
 3629TIP3    H232303   5.696   3.706   3.437 -0.5263 -0.6945  0.4247
 3630TIP3   OH232304   1.771   2.881  14.601 -0.2389 -0.4801  0.1223
 3630TIP3    H132305   1.834   2.872  14.529 -1.9391  0.1912 -1.5030
 3630TIP3    H232306   1.693   2.917  14.560 -1.2580 -0.0642  2.3363
 3631TIP3   OH232307   1.722   0.646   2.230  0.2615  0.0245  0.2025
 3631TIP3    H132308   1.660   0.658   2.158 -1.2953 -1.7786  1.2169
 3631TIP3    H232309   1.689   0.701   2.300 -0.3499 -1.1229  0.8264
 3632TIP3   OH232310   0.522   5.129  11.110 -0.1754 -0.0586  0.3712
 3632TIP3    H132311   0.492   5.138  11.019 -0.7082  0.2629  0.5788
 3632TIP3    H232312   0.508   5.037  11.131  0.5879 -0.2878 -0.0959
 3633TIP3   OH232313   6.013   6.191   0.808  0.0001 -0.5823  0.2133
 3633TIP3    H132314   6.082   6.235   0.759 -0.8298  0.4088 -0.0725
 3633TIP3    H232315   5.957   6.262   0.840 -1.5888 -1.4355 -0.6149
 3634TIP3   OH232316   6.214   3.174  13.391  0.1950 -0.6724  0.0505
 3634TIP3    H132317   6.253   3.091  13.419  0.0701 -0.2842  1.4293
 3634TIP3    H232318   6.126   3.173  13.429  0.6047  0.5975  1.0869
 3635TIP3   OH232319   2.296   4.120  13.121  0.7064 -0.3704  0.3239
 3635TIP3    H132320   2.338   4.205  13.135  0.7060 -0.0930 -1.3155
 3635TIP3    H232321   2.335   4.063  13.188  3.2438  0.0440 -0.7473
 3636TIP3   OH232322   1.153   0.706   2.769  0.1987  0.5029 -0.4770
 3636TIP3    H132323   1.203   0.782   2.740  0.3913 -0.2068 -2.0780
 3636TIP3    H232324   1.168   0.640   2.701 -0.1504 -0.8943  0.7487
 3637TIP3   OH232325   1.434   6.714  15.795 -0.3730 -0.4984  0.4685
 3637TIP3    H132326   1.392   6.629  15.810 -0.8991 -0.2922  0.1841
 3637TIP3    H232327   1.407   6.768  15.869  0.4175 -0.7503  0.9366
 3638TIP3   OH232328   1.373   1.173   2.417  0.1611 -0.1077  0.3846
 3638TIP3    H132329   1.297   1.204   2.369  1.3774  0.5550 -1.1414
 3638TIP3    H232330   1.410   1.104   2.362 -0.3599 -1.7268  1.9820
 3639TIP3   OH232331   5.662   0.266   3.955  0.5165 -0.4108  0.1308
 3639TIP3    H132332   5.651   0.245   4.048  0.9775 -1.5389 -0.0501
 3639TIP3    H232333   5.671   0.361   3.952  0.4238 -0.3613  1.2336
 3640TIP3   OH232334   3.991   5.791   4.312 -0.2972 -1.0769 -0.6776
 3640TIP3    H132335   3.936   5.837   4.249 -2.2883 -2.4337  0.0377
 3640TIP3    H232336   4.080   5.802   4.278 -0.9133  1.6346 -1.5461
 3641TIP3   OH232337   2.009   6.238  11.099  0.1104 -0.2759  0.0633
 3641TIP3    H132338   2.038   6.291  11.173  0.1232 -0.6115  0.2989
 3641TIP3    H232339   1.914   6.250  11.096 -0.0954 -1.5737  1.1571
 3642TIP3   OH232340   6.340   2.192   5.093 -0.6063  0.5493 -0.1065
 3642TIP3    H132341   6.251   2.190   5.127  0.8240  1.6500  3.8980
 3642TIP3    H232342   6.346   2.113   5.039 -4.0900  0.6711 -0.7989
 3643TIP3   OH232343   0.289   1.961   3.001  0.1690  0.4099 -0.7413
 3643TIP3    H132344   0.384   1.966   3.011  0.2109 -0.2757 -0.7321
 3643TIP3    H232345   0.259   1.919   3.082 -0.3695  2.5592  0.2215
 3644TIP3   OH232346   2.042   5.091   4.399  0.1065 -0.5469  0.2646
 3644TIP3    H132347   1.969   5.041   4.363  0.7444 -1.1444 -0.2142
 3644TIP3    H232348   2.113   5.027   4.407  0.0311 -0.4062  2.4748
 3645TIP3   OH232349   0.448   4.117  10.866 -0.7856 -0.0762  0.7716
 3645TIP3    H132350   0.504   4.115  10.944  0.9576  0.6401 -0.4245
 3645TIP3    H232351   0.386   4.046  10.879  1.4300 -1.9552  1.3984
 3646TIP3   OH232352   3.257   0.503  16.175 -0.6523 -0.3037  0.6531
 3646TIP3    H132353   3.286   0.496  16.084  1.8405  0.5566  1.3649
 3646TIP3    H232354   3.164   0.478  16.172 -0.7087  0.0994 -2.1743
 3647TIP3   OH232355   3.047   1.854  16.684  0.4675  0.4139 -0.5111
 3647TIP3    H132356   3.139   1.879  16.682 -0.0078  2.1197 -2.3611
 3647TIP3    H232357   3.001   1.932  16.716 -0.4247 -0.1521 -0.3768
 3648TIP3   OH232358   1.578   5.201  14.508  0.0739  0.2372  0.2107
 3648TIP3    H132359   1.506   5.163  14.557  0.9870 -1.0037  0.6154
 3648TIP3    H232360   1.616   5.128  14.459  2.9203  0.1891  2.3322
 3649TIP3   OH232361   0.440   2.017  14.958  0.3908  0.2639 -0.2028
 3649TIP3    H132362   0.413   2.025  14.867 -0.8932  0.4220  0.1847
 3649TIP3    H232363   0.379   2.073  15.006  0.0191 -1.0935  0.9471
 3650TIP3   OH232364   5.026   5.370   4.227  0.4127  0.4741 -0.1160
 3650TIP3    H132365   4.940   5.350   4.189 -0.9269  3.6713  1.0694
 3650TIP3    H232366   5.038   5.303   4.294 -1.3793  0.2440  0.0096
 3651TIP3   OH232367   3.139   3.254  14.992  0.2088  0.1290  0.1653
 3651TIP3    H132368   3.224   3.242  14.950  0.3811  0.2014  0.4948
 3651TIP3    H232369   3.077   3.211  14.933  0.8472 -2.7483  1.4845
 3652TIP3   OH232370   1.388   2.218  13.534 -0.3445 -0.5422  0.8363
 3652TIP3    H132371   1.408   2.309  13.554  3.4867 -0.5736 -2.1653
 3652TIP3    H232372   1.365   2.179  13.618 -2.2943  3.1725  2.1465
 3653TIP3   OH232373   6.373   0.365  13.925 -0.2115 -0.2857 -0.3071
 3653TIP3    H132374   6.390   0.288  13.978 -0.6534  0.0874  0.3934
 3653TIP3    H232375   6.396   0.339  13.836  0.5934 -0.8997  0.0770
 3654TIP3   OH232376   1.883   5.988  14.511 -0.4147 -0.0763  0.0382
 3654TIP3    H132377   1.823   6.053  14.473 -0.8240 -1.6342 -2.0524
 3654TIP3    H232378   1.857   5.982  14.602 -0.9721  2.0352  0.0413
 3655TIP3   OH232379   0.606   3.527   3.769  0.4358 -0.0451 -0.3720
 3655TIP3    H132380   0.585   3.542   3.861 -0.3830 -1.1325 -0.3783
 3655TIP3    H232381   0.702   3.531   3.765  0.3965  2.0666  0.1520
 3656TIP3   OH232382   2.516   4.205  15.373 -0.2152 -0.1077  0.3927
 3656TIP3    H132383   2.453   4.133  15.373  0.5798 -0.8104 -0.6354
 3656TIP3    H232384   2.599   4.166  15.345 -0.1926  1.5518 -2.0801
 3657TIP3   OH232385   1.904   5.068   0.329  0.2214 -0.1736  0.0533
 3657TIP3    H132386   1.858   5.122   0.265 -0.5266  0.9169  1.4543
 3657TIP3    H232387   1.997   5.078   0.307  0.2299  3.0225  1.2243
 3658TIP3   OH232388   3.953   3.140   4.591  0.1280 -0.3146 -0.3011
 3658TIP3    H132389   3.899   3.152   4.669  0.5187  0.5899 -0.1672
 3658TIP3    H232390   4.040   3.117   4.625 -0.1132 -1.6255 -0.5143
 3659TIP3   OH232391   0.535   4.966   0.094 -0.1264 -0.1702  0.5206
 3659TIP3    H132392   0.481   4.969   0.173 -0.9434 -1.1894  0.0112
 3659TIP3    H232393   0.602   5.033   0.108 -1.5293  1.1310  1.1599
 3660TIP3   OH232394   6.300   5.168   3.934 -0.3885  0.0450  0.7771
 3660TIP3    H132395   6.265   5.097   3.881 -0.5256 -0.0645  1.0142
 3660TIP3    H232396   6.229   5.232   3.938 -0.1536  0.3370  0.2992
 3661TIP3   OH232397   0.511   1.900   4.217 -0.4051  0.1432 -0.0443
 3661TIP3    H132398   0.475   1.989   4.211  0.2609  0.4594  0.5858
 3661TIP3    H232399   0.558   1.899   4.300 -0.2808 -0.7571 -0.1243
 3662TIP3   OH232400   5.148   2.636  15.537 -0.8111 -0.3412  0.1084
 3662TIP3    H132401   5.233   2.597  15.554 -1.2607 -1.1723  0.4609
 3662TIP3    H232402   5.111   2.584  15.466 -1.6943 -0.9753  1.0277
 3663TIP3   OH232403   4.596   3.043  12.534 -0.2015  0.6499 -0.5555
 3663TIP3    H132404   4.544   3.071  12.459 -0.3054  2.6662  0.2124
 3663TIP3    H232405   4.534   2.998  12.591 -0.0986 -0.9719 -1.7094
 3664TIP3   OH232406   4.553   6.226   4.881  0.3569  0.9461 -0.0395
 3664TIP3    H132407   4.506   6.308   4.898  0.6779  1.2697 -0.7057
 3664TIP3    H232408   4.503   6.160   4.928  0.3970  1.6045  0.9361
 3665TIP3   OH232409   3.331   3.543   2.651  0.4768  0.3746  0.4274
 3665TIP3    H132410   3.302   3.527   2.740 -1.6319 -0.0476 -0.3000
 3665TIP3    H232411   3.275   3.616   2.621  0.4373 -0.1820 -0.8734
 3666TIP3   OH232412   3.914   5.478   6.284 -0.1141  0.5734 -0.5352
 3666TIP3    H132413   3.886   5.561   6.322  1.9735  1.2237 -0.3707
 3666TIP3    H232414   3.959   5.433   6.355  1.8306  0.8205 -1.5877
 3667TIP3   OH232415   3.247   2.218   5.822  0.0252 -0.5729 -0.1474
 3667TIP3    H132416   3.285   2.247   5.739 -1.0368  0.9796 -0.1356
 3667TIP3    H232417   3.230   2.300   5.870 -2.7286 -1.2294  0.0692
 3668TIP3   OH232418   2.254   4.700  12.072 -0.7927  0.0245  0.6747
 3668TIP3    H132419   2.286   4.790  12.082 -1.1514  0.0780  1.4061
 3668TIP3    H232420   2.224   4.676  12.160 -0.3560 -0.9454  0.5556
 3669TIP3   OH232421   6.413   5.094   5.505 -0.2254  0.1156 -0.0484
 3669TIP3    H132422   6.366   5.169   5.541  0.8187  0.6875  0.1496
 3669TIP3    H232423   6.501   5.127   5.487 -0.3437 -0.5187 -1.8793
 3670TIP3   OH232424   4.283   5.080  15.136 -0.6724 -0.6510 -0.2604
 3670TIP3    H132425   4.290   5.144  15.065 -3.1733  0.6543  0.6026
 3670TIP3    H232426   4.323   5.123  15.211 -2.0435 -0.2297  0.2337
 3671TIP3   OH232427   3.856   1.061   5.255 -0.1782 -0.3169 -0.4809
 3671TIP3    H132428   3.934   1.005   5.258  0.4329  0.3882 -2.3638
 3671TIP3    H232429   3.871   1.118   5.180 -1.3501  1.5636  0.6793
 3672TIP3   OH232430   6.403   2.248   4.620  0.1596  0.2701  0.1585
 3672TIP3    H132431   6.478   2.301   4.592 -0.7417  1.0589 -0.8269
 3672TIP3    H232432   6.342   2.253   4.546 -1.3360  0.5382  1.4013
 3673TIP3   OH232433   1.615   4.111   1.495  0.8754 -0.3206 -0.1752
 3673TIP3    H132434   1.619   4.182   1.431 -0.7825 -0.0434  0.0108
 3673TIP3    H232435   1.522   4.097   1.510  1.2208  0.2656  2.8903
 3674TIP3   OH232436   2.183   3.266  13.475 -0.4570  0.0416  0.1969
 3674TIP3    H132437   2.212   3.250  13.385 -0.2156  1.4378  0.0137
 3674TIP3    H232438   2.134   3.348  13.470  0.0555  0.4342  1.4385
 3675TIP3   OH232439   5.459   0.391   6.004 -0.5970 -0.1156 -0.1572
 3675TIP3    H132440   5.365   0.403   6.000 -0.7624 -1.5778 -1.1285
 3675TIP3    H232441   5.495   0.467   5.958 -1.2291  1.2012  1.4863
 3676TIP3   OH232442   2.795   0.274  14.433  0.2110  0.9459  0.0399
 3676TIP3    H132443   2.785   0.209  14.364  1.6137 -0.3875  1.0462
 3676TIP3    H232444   2.721   0.260  14.492  1.8016 -1.4321  1.5602
 3677TIP3   OH232445   5.835   4.527  16.818 -0.1290  0.5356 -0.0191
 3677TIP3    H132446   5.778   4.462  16.859 -0.4872  0.2712 -0.9302
 3677TIP3    H232447   5.897   4.552  16.887  0.4114 -1.2356  0.1595
 3678TIP3   OH232448   2.512   3.093   2.538 -0.0209  0.4628  0.4025
 3678TIP3    H132449   2.501   3.030   2.609 -0.3116  0.3772  0.2789
 3678TIP3    H232450   2.474   3.174   2.572 -0.1254  0.4317  0.3617
 3679TIP3   OH232451   0.826   5.592  13.654 -0.4023 -0.0882  0.2724
 3679TIP3    H132452   0.850   5.540  13.730  0.2048  0.2830  0.3395
 3679TIP3    H232453   0.808   5.528  13.585 -0.6509 -0.4113  0.6365
 3680TIP3   OH232454   3.070   3.700   5.583  0.2028 -0.2898 -0.8492
 3680TIP3    H132455   3.140   3.747   5.629 -0.4056 -0.8622  0.7240
 3680TIP3    H232456   2.996   3.760   5.585  0.0573 -0.4723 -0.7169
 3681TIP3   OH232457   0.849   4.016   5.502 -0.4028  0.4633 -0.3084
 3681TIP3    H132458   0.761   4.034   5.536 -1.0363  1.3059 -2.2991
 3681TIP3    H232459   0.897   4.098   5.513 -0.4702  0.5996 -0.9898
 3682TIP3   OH232460   1.481   4.848   4.641  0.3215  0.1428 -0.2326
 3682TIP3    H132461   1.541   4.774   4.637  0.0025 -0.0874 -0.7421
 3682TIP3    H232462   1.441   4.841   4.728 -0.0642 -0.5634 -0.4636
 3683TIP3   OH232463   2.548   3.513  14.558  0.4569 -0.0291  0.1667
 3683TIP3    H132464   2.586   3.563  14.486  1.8642 -0.5892  0.5221
 3683TIP3    H232465   2.501   3.579  14.610  1.3881  0.7550  0.0288
 3684TIP3   OH232466   0.448   3.843   1.793 -0.4557 -0.0880  0.0664
 3684TIP3    H132467   0.360   3.825   1.826 -0.2967 -0.8020  0.1091
 3684TIP3    H232468   0.459   3.938   1.804 -0.9493 -0.1054  0.7162
 3685TIP3   OH232469   4.113   6.113  13.522 -0.2851 -0.2525  0.4560
 3685TIP3    H132470   4.071   6.031  13.498 -0.1691  0.2770 -1.6286
 3685TIP3    H232471   4.206   6.099  13.504  0.3877 -1.0460  4.0411
 3686TIP3   OH232472   3.961   1.883   3.988 -0.5544 -0.0182  0.0165
 3686TIP3    H132473   3.915   1.937   3.924  1.0124  0.3072 -0.8427
 3686TIP3    H232474   4.022   1.830   3.937  2.0511  1.5900  1.3815
 3687TIP3   OH232475   0.877   2.549  13.199  0.0201  0.4074  0.3671
 3687TIP3    H132476   0.823   2.527  13.274 -0.5819 -2.7736 -0.9309
 3687TIP3    H232477   0.955   2.495  13.207  0.9931  1.6916 -0.1392
 3688TIP3   OH232478   4.203   2.548  16.741  0.1346  0.7316  0.3018
 3688TIP3    H132479   4.171   2.511  16.823  0.3661 -1.4116 -0.5426
 3688TIP3    H232480   4.128   2.544  16.682 -0.1471  2.6392  0.4994
 3689TIP3   OH232481   3.302   6.141   5.087  0.1264  0.0809 -1.1719
 3689TIP3    H132482   3.251   6.076   5.039  2.2514 -1.0937 -1.9313
 3689TIP3    H232483   3.349   6.090   5.153  0.5916  1.0649 -0.7420
 3690TIP3   OH232484   0.515   5.751  13.348  0.5718 -0.0595 -0.0680
 3690TIP3    H132485   0.516   5.823  13.411  0.9895 -1.0166  1.0391
 3690TIP3    H232486   0.443   5.772  13.288  1.3395  1.7937 -0.3845
 3691TIP3   OH232487   4.221   4.645  12.925 -0.0070  0.0544  0.1547
 3691TIP3    H132488   4.222   4.572  12.863  0.5613 -0.1454  0.3996
 3691TIP3    H232489   4.299   4.695  12.904  0.1038  0.0708  0.6075
 3692TIP3   OH232490   2.733   2.359  15.102  0.0959 -0.1540 -0.3927
 3692TIP3    H132491   2.771   2.290  15.156 -0.6315 -1.0867 -1.0472
 3692TIP3    H232492   2.808   2.408  15.069  0.6832 -1.3001 -0.7955
 3693TIP3   OH232493   4.889   0.071   4.543  0.4236 -0.1964 -0.2168
 3693TIP3    H132494   4.846  -0.015   4.546 -0.0423  0.0159 -0.6639
 3693TIP3    H232495   4.900   0.089   4.449 -0.4161  0.6899 -0.1530
 3694TIP3   OH232496   5.558   5.876   0.495  0.0377 -0.0952 -0.1393
 3694TIP3    H132497   5.603   5.884   0.411 -1.2183 -0.9168 -0.8968
 3694TIP3    H232498   5.479   5.825   0.476 -0.5036  0.1206  1.4431
 3695TIP3   OH232499   6.529   2.354  14.160 -0.4893 -0.2076 -0.1165
 3695TIP3    H132500   6.444   2.374  14.200 -0.8494 -0.4640 -0.7486
 3695TIP3    H232501   6.509   2.294  14.088  0.5517 -2.7577  1.6246
 3696TIP3   OH232502   0.101   1.033   4.343  0.3135  0.0799 -0.5410
 3696TIP3    H132503   0.085   0.943   4.315  0.3735 -0.0668 -0.1161
 3696TIP3    H232504   0.025   1.054   4.397  1.9335 -0.9285  2.2335
 3697TIP3   OH232505   1.815   0.184  13.990  0.1177 -0.0058 -0.0858
 3697TIP3    H132506   1.820   0.168  14.085 -0.5272 -0.9570 -0.1966
 3697TIP3    H232507   1.754   0.258  13.982  0.4593  0.3149  0.2664
 3698TIP3   OH232508   5.020   6.170   1.329 -0.0646 -0.0275  0.0317
 3698TIP3    H132509   5.013   6.147   1.236 -2.3346 -1.2848  0.4860
 3698TIP3    H232510   5.008   6.265   1.330  1.7028  0.2279 -1.1151
 3699TIP3   OH232511   1.400   0.195  11.722  0.0063 -0.0577  0.1655
 3699TIP3    H132512   1.329   0.239  11.674  0.6206  1.5527  0.6933
 3699TIP3    H232513   1.475   0.202  11.663  0.1051 -0.3880  0.2584
 3700TIP3   OH232514   1.915   6.658  14.443  0.1356 -0.0151  0.1817
 3700TIP3    H132515   2.007   6.665  14.417 -0.5666 -1.5930 -2.9368
 3700TIP3    H232516   1.914   6.585  14.505  0.6881 -1.3752 -1.3872
 3701TIP3   OH232517   0.748   2.248   0.932 -0.3482  0.2471  0.1215
 3701TIP3    H132518   0.716   2.168   0.974  0.5644  1.0779  2.4933
 3701TIP3    H232519   0.669   2.302   0.922 -1.0059 -1.0198 -1.7144
 3702TIP3   OH232520   5.961   4.546  17.067 -0.3169  0.1251 -0.8008
 3702TIP3    H132521   5.881   4.512  17.107 -0.2255  1.1099  0.2694
 3702TIP3    H232522   6.024   4.475  17.075 -0.8446 -0.3586 -0.8971
 3703TIP3   OH232523   1.576   4.060   5.510  0.1538  0.2799  0.2662
 3703TIP3    H132524   1.579   4.037   5.602 -2.0839 -0.0509  0.2976
 3703TIP3    H232525   1.531   4.144   5.507  1.6812  1.0923 -0.4099
 3704TIP3   OH232526   1.210   2.984   0.250  0.0053 -0.6019 -0.4344
 3704TIP3    H132527   1.138   3.002   0.190 -0.6566 -1.3897  0.1073
 3704TIP3    H232528   1.286   3.025   0.209 -1.0744  1.8107 -0.1295
 3705TIP3   OH232529   3.301   5.719   1.163 -0.4764  0.1220 -0.4611
 3705TIP3    H132530   3.395   5.719   1.149 -0.4104 -1.6757 -0.1155
 3705TIP3    H232531   3.269   5.641   1.117 -1.2814 -1.3721  2.4460
 3706TIP3   OH232532   4.320   0.073   0.259 -0.0741 -0.2400 -0.1771
 3706TIP3    H132533   4.361  -0.013   0.253  0.5819  0.0730 -0.1923
 3706TIP3    H232534   4.288   0.090   0.171  1.2222  0.2269 -0.5739
 3707TIP3   OH232535   2.321   6.535  15.996 -0.2913 -0.3017  0.2329
 3707TIP3    H132536   2.375   6.614  15.996 -1.0626  0.2259 -0.9615
 3707TIP3    H232537   2.279   6.535  16.083 -0.4062  0.6819  0.1831
 3708TIP3   OH232538   5.606   6.500   5.464 -0.4536  0.0973  0.2064
 3708TIP3    H132539   5.514   6.526   5.461 -0.8014 -1.2042 -0.4169
 3708TIP3    H232540   5.605   6.408   5.488  0.7123  0.1344  0.4490
 3709TIP3   OH232541   5.908   2.511   5.642 -0.3501  0.2313 -0.7531
 3709TIP3    H132542   5.826   2.460   5.638 -0.3578 -0.0289  1.8890
 3709TIP3    H232543   5.975   2.446   5.665  0.0073  0.9935  0.4243
 3710TIP3   OH232544   1.471   0.799   6.299 -0.0790 -0.0069 -0.2102
 3710TIP3    H132545   1.565   0.815   6.302 -0.1399  0.0356  1.6810
 3710TIP3    H232546   1.462   0.704   6.296  0.0135 -0.0408  0.4949
 3711TIP3   OH232547   6.119   1.083  11.062  0.0456 -0.0146  0.1352
 3711TIP3    H132548   6.185   1.014  11.063 -0.3916 -0.4510 -0.8895
 3711TIP3    H232549   6.038   1.039  11.037 -0.3940  0.7335  0.2225
 3712TIP3   OH232550   5.739   6.298  13.243 -0.1104 -0.0354 -0.4150
 3712TIP3    H132551   5.700   6.259  13.164 -1.0302  1.5491 -0.7521
 3712TIP3    H232552   5.742   6.392  13.225  0.6110  0.2325  1.0430
 3713TIP3   OH232553   5.025   4.571   4.371  0.1341 -0.7354  0.5988
 3713TIP3    H132554   5.074   4.578   4.289 -0.0678 -0.4276  0.5027
 3713TIP3    H232555   5.008   4.477   4.381 -0.4327 -0.7155 -0.0636
 3714TIP3   OH232556   5.646   4.697   2.535  0.2122 -0.0333  0.3377
 3714TIP3    H132557   5.693   4.614   2.521 -0.6038 -0.3426 -0.6900
 3714TIP3    H232558   5.574   4.693   2.472 -0.1173  1.2439  0.6382
 3715TIP3   OH232559   6.432   3.293  11.618  0.0701 -0.3630  0.0035
 3715TIP3    H132560   6.513   3.329  11.582 -0.2286 -0.2797 -0.5840
 3715TIP3    H232561   6.386   3.370  11.653  0.8062 -0.5679  1.4476
 3716TIP3   OH232562   0.872   2.546  11.159 -0.4108  0.2793 -0.4093
 3716TIP3    H132563   0.858   2.521  11.068  2.8968  0.5827 -1.0720
 3716TIP3    H232564   0.927   2.624  11.154  0.3307 -0.0510  1.8523
 3717TIP3   OH232565   1.421   0.332   5.296 -0.4751  0.4197 -0.1300
 3717TIP3    H132566   1.488   0.398   5.315  0.4170  0.3807 -2.9197
 3717TIP3    H232567   1.368   0.329   5.375  1.9221  1.5323  1.5791
 3718TIP3   OH232568   1.583   0.879   3.887 -0.2415  0.2452  0.1240
 3718TIP3    H132569   1.584   0.841   3.975 -0.1158 -1.1653 -0.4634
 3718TIP3    H232570   1.502   0.845   3.848 -0.2544  0.8046 -0.3401
 3719TIP3   OH232571   3.740   2.832  11.942  0.0255 -0.3203  0.5682
 3719TIP3    H132572   3.823   2.808  11.983  0.6741  1.1988  0.1601
 3719TIP3    H232573   3.764   2.872  11.859 -1.0859  0.5670  0.6604
 3720TIP3   OH232574   3.014   3.676   3.506  0.0039 -0.3550 -0.3333
 3720TIP3    H132575   3.033   3.588   3.540 -1.5482 -0.5891 -0.0426
 3720TIP3    H232576   2.920   3.675   3.488  0.1298  0.9916 -1.0962
 3721TIP3   OH232577   6.225   5.470   3.973 -0.4386 -0.0111 -0.3179
 3721TIP3    H132578   6.144   5.504   4.013 -0.7942  0.0847 -1.1054
 3721TIP3    H232579   6.286   5.462   4.046 -1.4493 -0.9487  0.4459
 3722TIP3   OH232580   5.821   3.839   4.071 -0.5455  0.4600 -0.6041
 3722TIP3    H132581   5.832   3.791   3.989  0.3574  0.6770 -0.6176
 3722TIP3    H232582   5.824   3.771   4.139 -1.8017  0.2215 -0.7720
 3723TIP3   OH232583   2.994   1.085  15.242  0.0827  0.3683  0.9764
 3723TIP3    H132584   3.009   1.066  15.149  0.8709  0.0116  1.1742
 3723TIP3    H232585   2.907   1.049  15.259  0.1765 -0.0892  0.5178
 3724TIP3   OH232586   2.288   1.855   0.586 -0.3729 -0.2985 -0.0861
 3724TIP3    H132587   2.293   1.797   0.663  0.3344  0.4016  0.4004
 3724TIP3    H232588   2.195   1.864   0.569 -0.5820  0.3471  1.3138
 3725TIP3   OH232589   4.895   0.349  15.793 -0.5157  0.2252  0.2554
 3725TIP3    H132590   4.899   0.348  15.697  0.0979 -0.2114  0.2789
 3725TIP3    H232591   4.831   0.282  15.815 -2.5234  2.0359  0.0866
 3726TIP3   OH232592   4.974   0.155  12.282 -0.2160 -0.4587  0.6702
 3726TIP3    H132593   4.899   0.213  12.267 -0.3509 -0.7943  0.0306
 3726TIP3    H232594   5.031   0.204  12.342  0.0275  0.6444 -0.4527
 3727TIP3   OH232595   5.097   6.275  10.345  0.0916 -0.0008  0.0898
 3727TIP3    H132596   5.002   6.266  10.333 -0.5212  1.2702  3.4414
 3727TIP3    H232597   5.127   6.187  10.367  0.1872 -0.9593 -3.5266
 3728TIP3   OH232598   2.771   5.091   4.776 -0.4290 -0.2568  0.3240
 3728TIP3    H132599   2.791   5.133   4.692 -2.3936  2.0323  0.9640
 3728TIP3    H232600   2.763   4.998   4.755  2.2775 -0.1449 -1.4317
 3729TIP3   OH232601   3.574   5.015   5.216 -0.6351 -0.1609  1.0721
 3729TIP3    H132602   3.488   5.057   5.225 -0.7871 -0.1691 -0.2962
 3729TIP3    H232603   3.608   5.048   5.133 -0.2564 -1.8661  0.5362
 3730TIP3   OH232604   6.597   6.370   3.965 -0.7359  0.4966  0.0595
 3730TIP3    H132605   6.585   6.276   3.979 -0.2737  0.4636  0.2682
 3730TIP3    H232606   6.593   6.408   4.053 -1.0198  0.6815 -0.0352
 3731TIP3   OH232607   5.637   5.338   4.935  0.0012 -0.3910  0.4811
 3731TIP3    H132608   5.581   5.328   5.012 -1.1905 -2.1134 -0.5724
 3731TIP3    H232609   5.576   5.358   4.864  1.1522  1.8112  0.0899
 3732TIP3   OH232610   5.879   5.180  16.194  0.1723 -0.1054  0.0708
 3732TIP3    H132611   5.912   5.251  16.250  1.0961 -0.6578  0.2366
 3732TIP3    H232612   5.938   5.107  16.211 -0.4177 -0.7320 -0.5496
 3733TIP3   OH232613   1.266   3.847  12.286  0.1610 -0.1045 -0.5186
 3733TIP3    H132614   1.273   3.752  12.276 -0.9622 -0.2719  0.2103
 3733TIP3    H232615   1.293   3.882  12.201  0.9751 -1.0562 -0.6617
 3734TIP3   OH232616   6.244   0.688   4.458  0.5548  0.0107 -0.1683
 3734TIP3    H132617   6.280   0.757   4.403 -0.1667 -0.8761 -1.8157
 3734TIP3    H232618   6.149   0.691   4.442  0.5727 -1.7634 -0.8274
 3735TIP3   OH232619   0.156   6.726  15.423  0.2799  0.5133 -0.1077
 3735TIP3    H132620   0.096   6.684  15.485 -0.7234  0.1766 -1.2760
 3735TIP3    H232621   0.224   6.661  15.407 -2.4587 -1.6792 -3.6442
 3736TIP3   OH232622   5.906   3.919  12.158  0.2455 -0.2347 -0.4576
 3736TIP3    H132623   5.875   3.987  12.218 -0.6986 -1.0338 -0.0287
 3736TIP3    H232624   5.904   3.961  12.071  0.0010  0.3850 -0.1555
 3737TIP3   OH232625   0.325   2.376  10.269 -0.3079  0.2494  0.6749
 3737TIP3    H132626   0.293   2.314  10.335 -1.6435  0.7435  0.4932
 3737TIP3    H232627   0.406   2.410  10.307 -0.7804  0.1229  1.8206
 3738TIP3   OH232628   1.485   3.415  16.292 -0.7862  0.0551  0.3644
 3738TIP3    H132629   1.567   3.370  16.313  0.0565  1.5059  0.2148
 3738TIP3    H232630   1.439   3.421  16.376 -0.0047  0.6741  0.7627
 3739TIP3   OH232631   3.226   5.291  13.068  0.2577 -0.0309  0.4490
 3739TIP3    H132632   3.220   5.372  13.118 -0.6896 -0.6815  1.3946
 3739TIP3    H232633   3.147   5.291  13.012  1.2957  0.6862 -1.0480
 3740TIP3   OH232634   0.024   3.951   5.337 -0.6855 -0.1720 -0.1220
 3740TIP3    H132635   0.057   3.908   5.258  0.6667  1.4400 -0.4717
 3740TIP3    H232636  -0.029   3.885   5.380 -0.9951 -1.2600 -2.1090
 3741TIP3   OH232637   5.295   5.680  11.433 -0.1014  0.2398  0.0162
 3741TIP3    H132638   5.355   5.656  11.504 -1.9633  1.0146  1.8962
 3741TIP3    H232639   5.325   5.766  11.404  0.7893 -0.1685 -0.3138
 3742TIP3   OH232640   4.743   0.666   2.399 -0.0068  0.0571  0.2068
 3742TIP3    H132641   4.685   0.729   2.441  0.6474 -0.0246  1.2431
 3742TIP3    H232642   4.698   0.643   2.317 -1.5732 -0.2337  1.1368
 3743TIP3   OH232643   6.070   0.540   2.948 -0.4208 -0.4335 -0.2844
 3743TIP3    H132644   6.098   0.610   3.006 -1.3777 -1.5928  1.6229
 3743TIP3    H232645   5.998   0.578   2.898 -0.6298  0.0864  0.4016
 3744TIP3   OH232646   1.953   0.862   1.658  0.0495 -0.3025 -0.0094
 3744TIP3    H132647   1.865   0.870   1.620  0.1139 -0.3097 -0.1591
 3744TIP3    H232648   2.003   0.933   1.619  0.3571 -0.8378 -0.6095
 3745TIP3   OH232649   1.756   0.024  12.484  0.2816  0.2537 -0.0508
 3745TIP3    H132650   1.680  -0.026  12.452 -2.4227  3.3596  1.2864
 3745TIP3    H232651   1.758   0.008  12.578  0.2912  1.4844  0.1636
 3746TIP3   OH232652   0.298   2.286  14.724 -0.2973 -0.2934  0.2626
 3746TIP3    H132653   0.385   2.246  14.726 -0.6853 -1.1098  1.8726
 3746TIP3    H232654   0.247   2.231  14.664 -0.0108 -0.4642  0.1760
 3747TIP3   OH232655   2.594   0.542   1.424  0.1217  0.4690  0.0238
 3747TIP3    H132656   2.641   0.458   1.423 -2.8018 -1.2261  0.6631
 3747TIP3    H232657   2.645   0.597   1.483  0.6449 -1.7397  1.6920
 3748TIP3   OH232658   6.512   3.657   3.679  0.0383 -0.0591  0.2405
 3748TIP3    H132659   6.435   3.601   3.666 -0.2696  0.1711  1.0119
 3748TIP3    H232660   6.581   3.616   3.628 -0.4602 -0.5742 -0.0240
 3749TIP3   OH232661   0.530   3.841  13.248 -0.5382  0.4880 -0.4716
 3749TIP3    H132662   0.477   3.779  13.197  0.8718 -0.5859 -0.6900
 3749TIP3    H232663   0.541   3.799  13.333  0.9729  0.1080 -0.8371
 3750TIP3   OH232664   3.544   4.656   1.701 -0.2733  0.4679 -0.4139
 3750TIP3    H132665   3.474   4.591   1.687 -0.0997  0.1502  0.1806
 3750TIP3    H232666   3.563   4.690   1.613 -1.2841  0.6695 -0.5597
 3751TIP3   OH232667   4.682   6.403  10.968 -0.0519  0.0070  0.6720
 3751TIP3    H132668   4.656   6.311  10.969  0.5166 -0.1567  1.7973
 3751TIP3    H232669   4.729   6.415  10.886 -2.6945  0.0422 -0.8970
 3752TIP3   OH232670   2.931   2.109  16.802  0.3132  0.1544  0.3225
 3752TIP3    H132671   2.862   2.097  16.868  0.8905  0.8557  1.0677
 3752TIP3    H232672   2.893   2.172  16.740  0.9359  1.9938  1.7361
 3753TIP3   OH232673   4.547   0.050  15.600  0.1071 -0.2037 -0.2166
 3753TIP3    H132674   4.611  -0.014  15.569  1.2225  0.1078  1.3728
 3753TIP3    H232675   4.522   0.020  15.688 -0.9387  0.3985 -0.2885
 3754TIP3   OH232676   0.184   2.695  16.594  0.2871  0.0244  0.0863
 3754TIP3    H132677   0.103   2.668  16.551  0.2072 -0.2523  0.4127
 3754TIP3    H232678   0.220   2.764  16.537 -0.3513  0.3847  0.1236
 3755TIP3   OH232679   0.054   1.360  15.454 -0.2067  0.4221  0.1067
 3755TIP3    H132680  -0.006   1.327  15.522 -0.1022  0.2351  0.1102
 3755TIP3    H232681   0.140   1.330  15.483 -0.2285 -0.1249 -0.3933
 3756TIP3   OH232682   2.872   4.460   0.979 -0.1404  0.2710  0.3358
 3756TIP3    H132683   2.828   4.425   0.902 -1.7165  2.3527  0.2302
 3756TIP3    H232684   2.806   4.455   1.049  0.2414  1.1958  0.7790
 3757TIP3   OH232685   1.043   0.560  14.271  0.0250 -0.4439  0.5280
 3757TIP3    H132686   0.983   0.610  14.214  1.0755  0.4393  0.1891
 3757TIP3    H232687   1.024   0.591  14.359  0.1830  0.0460  0.3899
 3758TIP3   OH232688   3.702   3.255   2.754 -0.1373  0.5131 -0.5766
 3758TIP3    H132689   3.707   3.349   2.739  0.7797  0.3295 -1.5118
 3758TIP3    H232690   3.613   3.230   2.728 -0.6913  1.2642  0.5812
 3759TIP3   OH232691   2.713   3.457   1.782 -0.1722  0.8254  0.5035
 3759TIP3    H132692   2.702   3.391   1.851 -2.6237 -0.2999 -0.9201
 3759TIP3    H232693   2.800   3.438   1.746 -0.0117 -0.3353  1.4466
 3760TIP3   OH232694   2.332   2.740  14.079  0.1106  0.0526  0.9840
 3760TIP3    H132695   2.328   2.737  14.174  0.1446  0.0397  0.9842
 3760TIP3    H232696   2.382   2.819  14.059  3.3489 -1.9124  1.0415
 3761TIP3   OH232697   5.113   2.010   0.831  0.1459 -0.4983  0.1976
 3761TIP3    H132698   5.062   1.988   0.909 -0.9103  0.2589 -0.2727
 3761TIP3    H232699   5.128   2.104   0.837 -0.4488 -0.3256 -0.7986
 3762TIP3   OH232700   5.156   3.773   2.647  0.6799  0.2807 -0.1156
 3762TIP3    H132701   5.081   3.827   2.621  0.9224  0.9043  0.4600
 3762TIP3    H232702   5.121   3.718   2.718 -0.0432 -1.5789 -1.8637
 3763TIP3   OH232703   0.667   5.074   2.595 -0.8230  0.2112  0.5743
 3763TIP3    H132704   0.752   5.035   2.577 -0.1390  2.1338 -0.5927
 3763TIP3    H232705   0.619   5.065   2.512 -0.9600  1.0613  0.5568
 3764TIP3   OH232706   3.632   4.291   4.177 -0.1502  0.0769 -0.0529
 3764TIP3    H132707   3.696   4.255   4.238  0.3716 -0.1685 -0.7359
 3764TIP3    H232708   3.641   4.386   4.186 -0.5128  0.0399  0.7026
 3765TIP3   OH232709   4.223   6.533   4.373 -0.0509 -0.2848 -0.2287
 3765TIP3    H132710   4.174   6.481   4.309 -1.2481 -0.9344  1.1928
 3765TIP3    H232711   4.169   6.611   4.388  0.1047 -0.2529  0.1854
 3766TIP3   OH232712   2.807   2.276   3.818  0.4608 -0.0408  0.0234
 3766TIP3    H132713   2.874   2.321   3.765  0.2288 -0.1359 -0.3518
 3766TIP3    H232714   2.851   2.197   3.849 -0.0172 -1.0347 -1.7149
 3767TIP3   OH232715   0.830   3.223  11.094  0.0660  0.1471  0.0709
 3767TIP3    H132716   0.830   3.128  11.104 -0.5472 -0.1953 -2.8822
 3767TIP3    H232717   0.739   3.246  11.075  0.6534  0.9908 -1.8756
 3768TIP3   OH232718   1.361   1.973   0.296 -0.7286  0.2761 -0.2685
 3768TIP3    H132719   1.375   1.911   0.225  0.3108 -2.4116  2.1982
 3768TIP3    H232720   1.449   2.001   0.320 -0.9818  0.0648  0.9145
 3769TIP3   OH232721   3.700   5.129  16.356 -0.1501 -0.3373  0.0234
 3769TIP3    H132722   3.721   5.108  16.447 -0.4506 -2.8237 -0.4415
 3769TIP3    H232723   3.783   5.155  16.317  0.0790  0.2109  0.8809
 3770TIP3   OH232724   4.102   6.332   3.249 -0.2474  0.1973  0.7154
 3770TIP3    H132725   4.016   6.314   3.210 -0.4163 -0.2575  1.2807
 3770TIP3    H232726   4.158   6.262   3.216 -0.3014  0.0179  1.0059
 3771TIP3   OH232727   6.367   2.029   4.831 -0.7373  0.2070  0.0997
 3771TIP3    H132728   6.459   2.007   4.843 -0.6685 -0.9504 -2.3407
 3771TIP3    H232729   6.362   2.064   4.742 -2.4766  1.2914  0.5964
 3772TIP3   OH232730   3.757   1.749   2.793  0.1476 -0.2189 -0.1037
 3772TIP3    H132731   3.720   1.754   2.705  0.2282 -0.8517 -0.1808
 3772TIP3    H232732   3.682   1.732   2.850  0.0166  0.7767  0.0233
 3773TIP3   OH232733   6.219   0.720  12.561  0.0114  0.0245  0.2424
 3773TIP3    H132734   6.154   0.789  12.576  0.3397  0.2658  0.5506
 3773TIP3    H232735   6.247   0.693  12.648  0.1648 -0.2361  0.1140
 3774TIP3   OH232736   2.485   5.917   2.021 -0.3436  0.1715 -0.1972
 3774TIP3    H132737   2.464   5.958   1.937 -1.2185  0.7748  0.3166
 3774TIP3    H232738   2.408   5.863   2.041 -0.3530  0.4376  0.4800
 3775TIP3   OH232739   3.107   4.794   4.197 -0.3571  0.3792  0.0326
 3775TIP3    H132740   3.034   4.855   4.183 -0.7052 -0.0240  0.0997
 3775TIP3    H232741   3.131   4.765   4.109 -0.4232  0.3405  0.0275
 3776TIP3   OH232742   5.030   6.673  12.401 -0.5913 -0.5444  0.0897
 3776TIP3    H132743   5.125   6.676  12.415 -0.8362 -0.0248  1.7894
 3776TIP3    H232744   5.010   6.757  12.360 -0.3188 -0.6919 -0.3596
 3777TIP3   OH232745   4.889   0.741  15.903  0.6472 -0.5379 -0.4145
 3777TIP3    H132746   4.911   0.678  15.835  0.4793 -1.0218 -0.0268
 3777TIP3    H232747   4.863   0.688  15.978  0.3498 -0.0039 -0.1310
 3778TIP3   OH232748   0.711   0.470   5.220 -0.3937 -0.0581  0.0159
 3778TIP3    H132749   0.637   0.490   5.277 -0.6453 -0.6200 -0.1085
 3778TIP3    H232750   0.778   0.436   5.279 -0.0620  0.8999  0.1904
 3779TIP3   OH232751   3.353   3.780  13.135 -0.0766  0.5614  0.2084
 3779TIP3    H132752   3.322   3.865  13.164 -1.2941  0.0097  0.5528
 3779TIP3    H232753   3.440   3.771  13.173 -0.2096  1.3705  0.7005
 3780TIP3   OH232754   0.365   4.901   1.967  0.2650  0.4422 -0.3743
 3780TIP3    H132755   0.449   4.857   1.954  0.5263 -0.7135  4.4213
 3780TIP3    H232756   0.304   4.851   1.913  2.4089  0.7627 -3.2246
 3781TIP3   OH232757   4.580   5.101  13.982  0.1501 -0.1260 -0.3451
 3781TIP3    H132758   4.534   5.043  14.044  0.4587 -0.8517 -0.7891
 3781TIP3    H232759   4.645   5.045  13.940  2.4679  1.2196  1.3164
 3782TIP3   OH232760   3.750   1.682  11.793  0.5225  0.2492 -0.3802
 3782TIP3    H132761   3.806   1.723  11.860 -2.1926 -0.9652  2.7348
 3782TIP3    H232762   3.756   1.588  11.812  0.6552 -0.2260 -2.6657
 3783TIP3   OH232763   4.303   4.148  13.888  0.6581  0.3541  0.1426
 3783TIP3    H132764   4.368   4.196  13.940  0.3397  0.4201  0.4804
 3783TIP3    H232765   4.340   4.145  13.800  0.4294  1.6891 -0.0012
 3784TIP3   OH232766   6.204   3.493  13.925 -0.3460  0.2913  0.3161
 3784TIP3    H132767   6.152   3.430  13.975 -0.5460 -1.6712 -2.2189
 3784TIP3    H232768   6.290   3.452  13.916  0.2422  1.4491  0.6079
 3785TIP3   OH232769   4.987   3.704   6.136  0.1337 -0.6898  0.5836
 3785TIP3    H132770   5.034   3.621   6.130 -2.3865 -2.2034  0.9381
 3785TIP3    H232771   4.931   3.705   6.058 -0.3202  0.3787  0.9136
 3786TIP3   OH232772   2.438   5.493   0.914  0.3890 -0.9090  0.1988
 3786TIP3    H132773   2.346   5.519   0.921  0.5260 -0.8723  2.2850
 3786TIP3    H232774   2.488   5.573   0.929  0.7746 -0.9525 -0.7973
 3787TIP3   OH232775   2.412   4.572   4.197 -0.0850 -0.2616 -0.0959
 3787TIP3    H132776   2.484   4.610   4.147 -0.7348  0.3904 -0.5458
 3787TIP3    H232777   2.341   4.636   4.190 -0.8294 -1.0627  0.0306
 3788TIP3   OH232778   5.054   5.953  13.907 -0.3073 -0.1897  0.0487
 3788TIP3    H132779   5.053   5.988  13.818 -1.0059  0.4086  0.2838
 3788TIP3    H232780   5.139   5.909  13.914 -0.8676 -1.5555 -1.4101
 3789TIP3   OH232781   2.069   2.064   3.002  0.2011 -0.2003  0.8884
 3789TIP3    H132782   2.132   2.096   3.067  1.6944 -0.4780 -0.4070
 3789TIP3    H232783   2.110   2.081   2.918 -1.6105 -0.0935  0.0002
 3790TIP3   OH232784   2.872   4.440   2.777  0.5962  0.2582 -0.1060
 3790TIP3    H132785   2.947   4.497   2.793 -0.3383  1.1089  1.2821
 3790TIP3    H232786   2.801   4.477   2.829 -0.9023 -0.3372 -1.6543
 3791TIP3   OH232787   4.862   4.069   4.091  0.5618 -0.0411  0.2950
 3791TIP3    H132788   4.780   4.062   4.043  0.3037 -1.4937  0.9185
 3791TIP3    H232789   4.926   4.024   4.035  0.4993 -0.7197  0.7642
 3792TIP3   OH232790   0.401   1.970   2.028 -0.3560 -0.0887 -0.0141
 3792TIP3    H132791   0.323   2.005   2.071 -0.6665 -0.7453 -0.0506
 3792TIP3    H232792   0.389   1.875   2.028  0.2368 -0.1684 -0.4120
 3793TIP3   OH232793   4.259   4.294  11.661  0.0468 -0.2051  0.0979
 3793TIP3    H132794   4.342   4.341  11.668  0.3035 -0.4454 -1.1626
 3793TIP3    H232795   4.265   4.246  11.578 -1.0413 -0.8306  0.3625
 3794TIP3   OH232796   3.381   0.568  15.909  0.3500 -0.2283  0.2781
 3794TIP3    H132797   3.435   0.646  15.905 -0.0357 -0.0068 -0.7442
 3794TIP3    H232798   3.440   0.498  15.936  1.1919 -0.0381 -1.0591
 3795TIP3   OH232799   2.080   1.355  15.172 -0.0742  0.1609  0.2279
 3795TIP3    H132800   2.127   1.424  15.127  0.5777 -0.8184 -0.6176
 3795TIP3    H232801   2.080   1.381  15.265 -0.0344  1.3790 -0.1114
 3796TIP3   OH232802   3.059   5.065   2.617  0.3480  0.1831  0.3204
 3796TIP3    H132803   2.981   5.092   2.665  0.7394  2.2698 -0.1808
 3796TIP3    H232804   3.027   5.040   2.531  0.1925  0.8369  0.1840
 3797TIP3   OH232805   3.067   4.584   2.918  0.2446  0.3002 -0.4333
 3797TIP3    H132806   3.033   4.663   2.960 -1.0811 -1.0677  1.1263
 3797TIP3    H232807   3.154   4.572   2.956 -0.8475 -0.7862  1.7965
 3798TIP3   OH232808   0.848   1.782  11.773 -0.0305  0.3637 -0.1325
 3798TIP3    H132809   0.791   1.834  11.717  0.4609  1.1608  0.1042
 3798TIP3    H232810   0.788   1.736  11.832 -0.4581  0.8696 -0.1672
 3799TIP3   OH232811   0.173   4.189  14.833  0.8059 -0.1958  0.1729
 3799TIP3    H132812   0.123   4.107  14.828  0.9400 -0.1608 -2.6611
 3799TIP3    H232813   0.263   4.161  14.850  0.9780 -0.7233 -1.4833
 3800TIP3   OH232814   0.900   1.229   5.310  0.3056  0.5570 -0.2350
 3800TIP3    H132815   0.816   1.276   5.309  1.2376  2.3736  1.6844
 3800TIP3    H232816   0.880   1.147   5.355  0.0474  2.1287  2.6808
 3801TIP3   OH232817   2.623   3.850  15.651  0.1108  0.1437 -0.3807
 3801TIP3    H132818   2.693   3.864  15.586  0.2820 -1.5234 -0.5663
 3801TIP3    H232819   2.649   3.771  15.698 -0.9346  0.3285  0.5190
 3802TIP3   OH232820   4.876   0.156  16.482 -0.2064  0.1995  0.1443
 3802TIP3    H132821   4.893   0.248  16.463 -0.4309  0.1288 -0.3998
 3802TIP3    H232822   4.791   0.155  16.525 -0.0506  0.2781  0.4607
 3803TIP3   OH232823   4.892   6.486   2.038 -0.2623  0.1617 -0.3058
 3803TIP3    H132824   4.921   6.396   2.049 -0.3698 -0.1646 -2.4442
 3803TIP3    H232825   4.796   6.481   2.043 -0.2504  0.1918 -0.0805
 3804TIP3   OH232826   3.533   5.620  13.812 -0.2893  0.5740 -0.2962
 3804TIP3    H132827   3.569   5.635  13.724 -0.4647 -0.5298 -0.5584
 3804TIP3    H232828   3.606   5.587  13.863 -0.8032 -1.2624 -0.7187
 3805TIP3   OH232829   0.824   1.482   0.744 -0.1430  0.2539 -0.7732
 3805TIP3    H132830   0.877   1.524   0.812 -0.3991 -0.0875 -0.3584
 3805TIP3    H232831   0.734   1.496   0.772 -0.2791  0.9446 -1.5475
 3806TIP3   OH232832   4.404   2.054   5.871  0.4976  0.2182  0.4466
 3806TIP3    H132833   4.348   2.012   5.936  0.7181 -0.8283 -0.0405
 3806TIP3    H232834   4.433   1.983   5.814  0.5598  1.0826 -0.6090
 3807TIP3   OH232835   0.227   5.517   2.007  0.3782  0.1162 -0.0062
 3807TIP3    H132836   0.142   5.487   2.042  0.2702 -2.5039 -2.3660
 3807TIP3    H232837   0.292   5.468   2.058  0.3829  0.0931 -0.0345
 3808TIP3   OH232838   2.459   5.832  13.242 -0.4527 -0.4470  0.6197
 3808TIP3    H132839   2.508   5.840  13.324  0.6393 -1.4179  0.0852
 3808TIP3    H232840   2.393   5.901  13.247  1.1971  1.1523  1.2166
 3809TIP3   OH232841   0.892   0.740  13.596  0.4890  0.4670  0.2512
 3809TIP3    H132842   0.875   0.801  13.524 -0.7819  0.9557  0.9627
 3809TIP3    H232843   0.811   0.690  13.605  1.3604 -1.0455 -0.0356
 3810TIP3   OH232844   5.094   5.707  12.736 -0.0103 -0.9489  0.2020
 3810TIP3    H132845   5.182   5.738  12.712 -0.4203  0.2853  0.2716
 3810TIP3    H232846   5.106   5.666  12.821  0.3577 -0.0423  0.5969
 3811TIP3   OH232847   1.170   3.290  17.130  0.1408  0.0058 -0.4912
 3811TIP3    H132848   1.213   3.250  17.054  0.8843 -1.0634  0.4682
 3811TIP3    H232849   1.233   3.354  17.161 -0.0977  0.3315 -0.6793
 3812TIP3   OH232850   6.349   5.118   1.426  0.4573  0.6629  0.4767
 3812TIP3    H132851   6.350   5.214   1.430 -0.1723  0.7746 -1.4479
 3812TIP3    H232852   6.290   5.092   1.497 -3.2490  1.9424 -2.0004
 3813TIP3   OH232853   6.310   5.756  15.959 -0.2857  0.8159 -0.0919
 3813TIP3    H132854   6.369   5.757  15.884 -0.6719  1.8176 -0.3921
 3813TIP3    H232855   6.295   5.849  15.979 -0.6090  0.5576  0.8832
 3814TIP3   OH232856   1.364   2.674  13.534  0.3247  0.6343  0.0818
 3814TIP3    H132857   1.450   2.649  13.569 -0.6707 -1.3941  1.1654
 3814TIP3    H232858   1.343   2.606  13.470 -0.0504  1.6655 -0.9126
 3815TIP3   OH232859   5.717   5.108  14.090 -0.0111 -0.9175 -0.0285
 3815TIP3    H132860   5.640   5.062  14.123 -1.4688  2.1381  1.1029
 3815TIP3    H232861   5.702   5.114  13.996  0.0911 -2.5263 -0.1602
 3816TIP3   OH232862   2.707   1.904   4.015 -0.2185  0.2896  0.3402
 3816TIP3    H132863   2.743   1.897   3.927 -0.6762  0.8769  0.1060
 3816TIP3    H232864   2.779   1.936   4.068 -0.4641  1.7478 -0.1843
 3817TIP3   OH232865   4.079   3.139  11.312  0.6145 -0.1894 -0.2380
 3817TIP3    H132866   4.072   3.091  11.395  0.5006  1.1987  0.5865
 3817TIP3    H232867   4.039   3.224  11.331  0.0328 -0.0800 -1.9071
 3818TIP3   OH232868   2.657   5.902  14.911 -0.1943 -0.1713  0.0773
 3818TIP3    H132869   2.633   5.832  14.972  1.1397  0.3832  1.2811
 3818TIP3    H232870   2.738   5.939  14.948  0.7979  0.0066 -2.1603
 3819TIP3   OH232871   6.713   4.984  15.396  0.0266 -0.0910  0.1576
 3819TIP3    H132872   6.637   5.039  15.383  0.6027  0.8561  0.7229
 3819TIP3    H232873   6.763   5.028  15.465 -0.6338 -2.5054  2.2409
 3820TIP3   OH232874   0.434   1.058  14.969 -0.4255 -0.2802  0.1397
 3820TIP3    H132875   0.399   1.136  15.013 -1.8504 -0.7750 -0.0831
 3820TIP3    H232876   0.365   1.032  14.908 -0.6413 -2.6429  1.3324
 3821TIP3   OH232877   3.072   6.753  11.792 -0.0856 -0.7435  0.5634
 3821TIP3    H132878   3.102   6.784  11.707 -0.4324  1.0410  1.0578
 3821TIP3    H232879   3.034   6.667  11.774  0.7149 -0.8125 -0.9092
 3822TIP3   OH232880   0.844   5.981   6.600 -0.9360 -0.3842  0.1555
 3822TIP3    H132881   0.792   5.988   6.680  0.0119  0.0275  0.7425
 3822TIP3    H232882   0.934   5.996   6.629 -0.5802 -0.3229 -0.9774
 3823TIP3   OH232883   2.206   2.053  16.024  0.1996  0.4881  0.4695
 3823TIP3    H132884   2.210   2.130  16.080 -1.6292 -0.0172  1.3545
 3823TIP3    H232885   2.171   2.085  15.941  1.6887  1.0086  0.0301
 3824TIP3   OH232886   2.020   4.498  11.773  0.5474 -0.0259  0.4906
 3824TIP3    H132887   1.970   4.496  11.692  1.0033 -1.0192  0.2253
 3824TIP3    H232888   2.111   4.503  11.745  0.6823  0.1973  0.9551
 3825TIP3   OH232889   4.861   4.630  13.965  0.1172 -0.2883 -0.3419
 3825TIP3    H132890   4.783   4.661  13.920  0.8539 -0.5229 -1.7989
 3825TIP3    H232891   4.846   4.651  14.057  0.0953  3.3043 -1.1291
 3826TIP3   OH232892   5.688   2.690  11.660  0.2685 -0.3702 -0.3135
 3826TIP3    H132893   5.718   2.603  11.635  2.5133  0.6253 -1.2779
 3826TIP3    H232894   5.676   2.736  11.577  2.2093  1.1921  0.2278
 3827TIP3   OH232895   6.290   1.406   4.963  0.1771 -0.0496  0.2854
 3827TIP3    H132896   6.285   1.330   4.904  0.2202  1.1438 -1.2840
 3827TIP3    H232897   6.212   1.399   5.017  1.6428 -2.8344  2.1886
 3828TIP3   OH232898   4.683   5.330   3.156 -0.3096 -0.5999 -0.0766
 3828TIP3    H132899   4.651   5.420   3.151  0.2131 -0.4824 -1.5179
 3828TIP3    H232900   4.635   5.283   3.088 -0.8869 -1.5264  0.9461
 3829TIP3   OH232901   5.282   3.051   3.724  0.4439  0.5885 -0.1847
 3829TIP3    H132902   5.221   3.045   3.798  0.0148 -0.0642 -0.5933
 3829TIP3    H232903   5.263   3.137   3.685  0.7009  0.9549  0.4828
 3830TIP3   OH232904   1.109   6.706   4.022  0.1443 -1.2220  0.4976
 3830TIP3    H132905   1.017   6.728   4.038 -0.5759 -2.3179 -1.9283
 3830TIP3    H232906   1.152   6.790   4.007 -0.4150 -0.6947  1.7839
 3831TIP3   OH232907   6.733   1.226  11.793 -0.1358  0.1963  0.2015
 3831TIP3    H132908   6.673   1.287  11.749  0.6983 -0.0237 -1.2868
 3831TIP3    H232909   6.806   1.282  11.822  0.0584  0.1115 -0.1089
 3832TIP3   OH232910   3.436   5.399  14.310  0.0601 -0.2038 -0.3716
 3832TIP3    H132911   3.371   5.419  14.377 -0.1621 -0.2657 -0.5643
 3832TIP3    H232912   3.445   5.480  14.260 -0.6976 -0.5233 -1.0351
 3833TIP3   OH232913   3.687   6.363   5.908  0.6155  0.4076  0.3410
 3833TIP3    H132914   3.754   6.379   5.975  0.7697  2.6381 -0.3104
 3833TIP3    H232915   3.614   6.418   5.933  0.0250 -0.0288 -0.4113
 3834TIP3   OH232916   0.635   5.822  12.479 -0.1098  0.1193 -0.1295
 3834TIP3    H132917   0.658   5.824  12.572 -1.3475  1.7164  0.1754
 3834TIP3    H232918   0.539   5.819  12.479 -0.0797 -1.4887 -1.3615
 3835TIP3   OH232919   0.441   1.702   1.760  0.1780 -0.5321 -0.7014
 3835TIP3    H132920   0.488   1.677   1.840  1.7445  0.2908 -1.3481
 3835TIP3    H232921   0.360   1.650   1.762 -0.2062  0.1035  1.8348
 3836TIP3   OH232922   6.077   5.657  10.939 -0.9346 -0.0684 -0.5463
 3836TIP3    H132923   6.147   5.720  10.921 -2.8985  2.9979  1.9172
 3836TIP3    H232924   6.015   5.670  10.867 -0.4877 -0.5251 -1.0217
 3837TIP3   OH232925   4.397   3.368  10.612 -0.3634 -0.1994 -0.2440
 3837TIP3    H132926   4.392   3.346  10.519  2.7453  0.5309 -0.6538
 3837TIP3    H232927   4.441   3.293  10.652  0.3761  0.4966  0.2459
 3838TIP3   OH232928   5.570   0.887   4.577 -0.0626  0.6292  0.8671
 3838TIP3    H132929   5.506   0.893   4.649 -2.2280  1.6725 -1.0663
 3838TIP3    H232930   5.525   0.835   4.510  2.2005 -0.9249  0.5179
 3839TIP3   OH232931   0.891   6.255  10.988 -0.1653  0.3805  0.3525
 3839TIP3    H132932   0.823   6.230  10.927  1.2069  1.1494 -1.5348
 3839TIP3    H232933   0.952   6.181  10.989  0.0016  0.5175  0.5373
 3840TIP3   OH232934   0.717   3.945   1.332 -0.5496  0.3237  0.4907
 3840TIP3    H132935   0.692   3.864   1.288 -1.2694  0.0736  1.3299
 3840TIP3    H232936   0.772   3.992   1.269  0.6213 -1.2197  0.3404
 3841TIP3   OH232937   0.465   4.417  10.962 -0.1907 -0.0753 -0.0654
 3841TIP3    H132938   0.446   4.425  11.055  0.6844  0.9215  0.0284
 3841TIP3    H232939   0.388   4.372  10.926 -0.5326 -0.4581  1.1220
 3842TIP3   OH232940   6.088   0.439   3.691 -0.3552  0.2801  0.5385
 3842TIP3    H132941   6.138   0.516   3.716 -0.9671  0.3148  1.7174
 3842TIP3    H232942   6.150   0.384   3.643  0.6540  0.5717  1.5018
 3843TIP3   OH232943   2.932   2.923   2.930  0.3984 -0.3661 -0.3258
 3843TIP3    H132944   2.929   2.837   2.889  2.2798 -0.9590  0.7090
 3843TIP3    H232945   2.986   2.975   2.872  0.7856 -0.4201 -0.0173
 3844TIP3   OH232946   5.405   4.685  16.815 -0.4060 -0.2151 -0.1237
 3844TIP3    H132947   5.436   4.729  16.736 -0.5398  0.3223  0.1184
 3844TIP3    H232948   5.364   4.755  16.867  0.9573 -0.2802  1.0771
 3845TIP3   OH232949   6.574   6.348   1.305 -0.0261  0.3513  0.9627
 3845TIP3    H132950   6.519   6.350   1.226  1.0258  0.0920  0.2178
 3845TIP3    H232951   6.598   6.256   1.316 -0.9743  0.2360  2.1603
 3846TIP3   OH232952   3.727   2.781   6.162 -0.6013  0.7395  0.4853
 3846TIP3    H132953   3.761   2.699   6.196 -0.1738  0.4247 -0.7018
 3846TIP3    H232954   3.632   2.767   6.157 -0.6016  0.5654  0.9229
 3847TIP3   OH232955   4.421   0.261   1.087 -0.2151 -0.8339  0.2695
 3847TIP3    H132956   4.355   0.293   1.149 -0.7298 -1.6534  0.1571
 3847TIP3    H232957   4.442   0.173   1.117 -0.1077 -1.0550 -0.4328
 3848TIP3   OH232958   4.170   0.071   0.481  0.7494  0.1729 -0.0063
 3848TIP3    H132959   4.218   0.087   0.400 -0.1895  2.0810 -0.2105
 3848TIP3    H232960   4.078   0.076   0.456  0.4485  1.5059  1.2927
 3849TIP3   OH232961   6.732   1.468   2.280 -0.9916  0.4017  0.0005
 3849TIP3    H132962   6.678   1.440   2.354  0.0674  0.4084  0.7859
 3849TIP3    H232963   6.712   1.561   2.270 -0.7570  0.5207  0.6065
 3850TIP3   OH232964   1.131   3.445  11.318  0.0885  0.5363  0.3205
 3850TIP3    H132965   1.078   3.452  11.238 -1.1664 -0.5293  1.0357
 3850TIP3    H232966   1.158   3.535  11.336 -0.1291  0.8768 -0.9591
 3851TIP3   OH232967   5.858   0.419  14.976  0.2981 -0.7931 -0.1006
 3851TIP3    H132968   5.766   0.396  14.984 -0.4427  1.4443 -1.8003
 3851TIP3    H232969   5.887   0.376  14.895 -0.7674  2.8898 -2.6012
 3852TIP3   OH232970   4.650   3.154   1.063  0.0850  0.7605 -0.2373
 3852TIP3    H132971   4.623   3.172   0.973 -0.9759  2.2924  0.3592
 3852TIP3    H232972   4.568   3.142   1.111  0.6618 -0.9029  0.3793
 3853TIP3   OH232973   2.203   6.179  14.988 -0.1839  0.4289 -0.0627
 3853TIP3    H132974   2.288   6.203  15.024 -1.0286  2.2574  0.8085
 3853TIP3    H232975   2.141   6.236  15.033 -1.8415 -0.6417 -0.9215
 3854TIP3   OH232976   0.452   1.006   2.163  0.0977  0.6089 -0.2878
 3854TIP3    H132977   0.436   1.084   2.217 -0.9009  0.1785  0.0408
 3854TIP3    H232978   0.457   1.040   2.073 -0.4322  1.0438 -0.1557
 3855TIP3   OH232979   2.473   2.396  10.418 -0.0644  0.6491  0.2409
 3855TIP3    H132980   2.516   2.435  10.494 -1.0588  0.4172  0.9362
 3855TIP3    H232981   2.493   2.302  10.425 -0.3876  0.5887  0.3782
 3856TIP3   OH232982   5.581   3.361  12.536  0.0155 -0.0771 -0.1440
 3856TIP3    H132983   5.542   3.278  12.507 -0.8019 -0.4607  1.9523
 3856TIP3    H232984   5.506   3.413  12.565  0.5802  1.2110 -0.9931
 3857TIP3   OH232985   2.056   3.160  12.123 -0.5973  0.2086  0.0221
 3857TIP3    H132986   2.073   3.204  12.040  0.2049 -0.1687 -0.0221
 3857TIP3    H232987   1.961   3.162  12.133 -0.6831  0.3850 -0.8306
 3858TIP3   OH232988   1.846   5.346  12.274 -0.0635 -0.3559  0.6706
 3858TIP3    H132989   1.792   5.268  12.289 -1.7208  0.5355 -0.5061
 3858TIP3    H232990   1.870   5.341  12.181 -0.3474  0.6429  0.5375
 3859TIP3   OH232991   0.922   4.148   0.481  0.0588  0.1161 -0.5034
 3859TIP3    H132992   0.900   4.236   0.450  2.8234  0.2711 -2.2211
 3859TIP3    H232993   0.954   4.102   0.403 -1.9798 -2.6615  0.2333
 3860TIP3   OH232994   1.468   6.723  13.251 -1.1700 -0.3914 -0.0833
 3860TIP3    H132995   1.493   6.810  13.284  0.5744 -1.2032  0.7968
 3860TIP3    H232996   1.438   6.676  13.329  0.2886 -1.3999 -0.1082
 3861TIP3   OH232997   3.622   0.228   4.325  0.4785 -0.7113 -0.0668
 3861TIP3    H132998   3.611   0.315   4.287  3.4925 -0.5301 -0.6608
 3861TIP3    H232999   3.538   0.184   4.309 -0.4236  1.4170 -1.4482
 3862TIP3   OH233000   4.915   0.921  10.865  0.8732 -0.2493 -0.1286
 3862TIP3    H133001   4.826   0.904  10.833  0.7193  0.1180  0.0938
 3862TIP3    H233002   4.941   0.840  10.908  0.6225 -0.3405 -0.1465
 3863TIP3   OH233003   3.223   4.959  16.184  0.1475 -0.1828 -0.1332
 3863TIP3    H133004   3.278   4.977  16.260  2.1820  0.7955 -1.7921
 3863TIP3    H233005   3.173   5.040  16.171 -0.1530 -0.3274  0.1175
 3864TIP3   OH233006   4.434   6.772  14.460 -0.5718  0.4481 -0.0061
 3864TIP3    H133007   4.510   6.828  14.475 -0.5586  0.5210 -0.3467
 3864TIP3    H233008   4.462   6.711  14.391 -0.8813  0.5894 -0.2568
 3865TIP3   OH233009   2.192   2.743   3.213  0.6021  0.0966 -0.1988
 3865TIP3    H133010   2.197   2.779   3.301  2.0124 -0.2769 -0.1138
 3865TIP3    H233011   2.108   2.696   3.210 -0.8748  2.6320 -0.0441
 3866TIP3   OH233012   6.313   0.067  14.837  0.7115 -0.3839 -0.2110
 3866TIP3    H133013   6.337   0.093  14.748 -0.2365  0.6716 -0.1814
 3866TIP3    H233014   6.218   0.051  14.832  0.2587  1.6961  1.0454
 3867TIP3   OH233015   4.999   6.200   2.471  0.3198  0.3948 -0.8035
 3867TIP3    H133016   4.949   6.155   2.403 -1.0890 -0.0980  0.5144
 3867TIP3    H233017   5.089   6.203   2.437 -0.2859 -0.1452 -2.5104
 3868TIP3   OH233018   2.089   4.366  13.668 -0.0232 -0.8014 -0.0876
 3868TIP3    H133019   2.163   4.417  13.701  0.8003 -0.4335 -2.4791
 3868TIP3    H233020   2.110   4.275  13.692  0.6348 -0.5680  0.2276
 3869TIP3   OH233021   3.474   1.445  15.234  0.0004  0.0984  0.2491
 3869TIP3    H133022   3.531   1.514  15.267  1.2216 -0.5669 -0.4242
 3869TIP3    H233023   3.439   1.480  15.152 -1.1016  0.7729  0.9965
 3870TIP3   OH233024   1.789   3.520   0.333  0.1931  0.0888 -0.3027
 3870TIP3    H133025   1.807   3.613   0.341 -1.0219  0.3519 -0.4302
 3870TIP3    H233026   1.840   3.492   0.257  2.4883  0.1101  1.2000
 3871TIP3   OH233027   4.702   0.860  13.318 -0.1831 -0.1958 -0.4148
 3871TIP3    H133028   4.612   0.857  13.285 -0.6173 -1.1201  0.8083
 3871TIP3    H233029   4.735   0.771  13.303  0.7058  0.2775 -1.3136
 3872TIP3   OH233030   1.499   2.465   6.026  0.4031 -0.0132  0.5326
 3872TIP3    H133031   1.409   2.464   5.994  0.0009  1.2098  1.5815
 3872TIP3    H233032   1.502   2.537   6.089  2.8612  1.8484 -1.5944
 3873TIP3   OH233033   0.392   1.405   6.160  0.2650 -0.5043  0.2278
 3873TIP3    H133034   0.430   1.382   6.245 -0.1433  1.6097  1.0031
 3873TIP3    H233035   0.333   1.478   6.179 -0.1774 -0.3092 -1.8123
 3874TIP3   OH233036   3.110   6.202   0.373 -0.0127  0.0913  0.5262
 3874TIP3    H133037   3.041   6.249   0.328 -1.7178  0.2709  3.2264
 3874TIP3    H233038   3.184   6.263   0.374 -1.1831  1.5135  1.2660
 3875TIP3   OH233039   0.782   2.675  11.735  0.1650  0.0190  0.2038
 3875TIP3    H133040   0.873   2.701  11.723  0.7968 -2.0413  0.3581
 3875TIP3    H233041   0.782   2.624  11.816 -1.1050 -0.0402  0.1807
 3876TIP3   OH233042   5.560   4.162   1.958  0.0110  0.0106  0.2612
 3876TIP3    H133043   5.476   4.209   1.952 -0.4989 -0.8412  0.6247
 3876TIP3    H233044   5.614   4.217   2.016 -0.7998 -0.1600  1.2013
 3877TIP3   OH233045   3.665   4.599  15.681  0.8601 -0.0532 -0.0946
 3877TIP3    H133046   3.597   4.559  15.735  0.6092 -1.8728 -1.6897
 3877TIP3    H233047   3.684   4.682  15.724 -1.8826  0.1792  0.7741
 3878TIP3   OH233048   4.486   3.405  12.441 -0.6826  0.4710  0.4603
 3878TIP3    H133049   4.420   3.421  12.374 -2.0547  0.1448  1.7116
 3878TIP3    H233050   4.499   3.491  12.482  0.1223  0.6610 -0.1767
 3879TIP3   OH233051   2.625   5.283  11.190  0.3874 -0.0326 -0.1841
 3879TIP3    H133052   2.699   5.225  11.206  0.9529  0.9881  0.9940
 3879TIP3    H233053   2.554   5.247  11.243  0.2516 -0.5908 -0.7412
 3880TIP3   OH233054   5.383   2.330   3.193  0.1404  0.5229 -0.3053
 3880TIP3    H133055   5.338   2.375   3.265 -1.4674 -0.9223 -0.3742
 3880TIP3    H233056   5.465   2.377   3.183  0.5587  0.5291  2.7256
 3881TIP3   OH233057   0.387   1.055  13.036  0.6780 -0.3958  0.4995
 3881TIP3    H133058   0.479   1.045  13.059  1.0209  1.4127  0.0137
 3881TIP3    H233059   0.382   1.142  12.996 -1.1212 -0.7407 -0.0629
 3882TIP3   OH233060   5.026   6.320  15.124  0.5018  0.3932  0.0492
 3882TIP3    H133061   4.977   6.402  15.117  0.7720  0.6132  0.7176
 3882TIP3    H233062   5.087   6.334  15.196  1.2186 -0.0504 -0.4568
 3883TIP3   OH233063   5.001   3.000   3.275 -0.3105  0.1526 -0.2805
 3883TIP3    H133064   5.020   2.907   3.284  3.4187  0.7022 -1.4750
 3883TIP3    H233065   5.014   3.018   3.182 -1.9550  1.6831 -0.2358
 3884TIP3   OH233066   5.221   6.296  14.865  0.5574  0.5131  0.1809
 3884TIP3    H133067   5.177   6.216  14.836  0.7116  0.2004  0.8218
 3884TIP3    H233068   5.154   6.343  14.915  0.3554  0.9565 -0.5010
 3885TIP3   OH233069   3.172   3.961   0.535 -0.6430  0.0559 -0.3232
 3885TIP3    H133070   3.115   4.034   0.510 -1.1533 -1.2438 -3.1047
 3885TIP3    H233071   3.151   3.946   0.628 -1.0422  2.9332  0.1219
 3886TIP3   OH233072   6.570   5.997  14.881 -0.5447 -0.3810 -0.5221
 3886TIP3    H133073   6.651   5.973  14.836 -2.0142  0.2710 -3.6329
 3886TIP3    H233074   6.567   6.092  14.877 -0.2518 -0.2635  1.8080
 3887TIP3   OH233075   3.348   3.341   2.182 -0.0170 -0.2005  0.3280
 3887TIP3    H133076   3.330   3.434   2.200  0.9386 -0.0530  0.5422
 3887TIP3    H233077   3.434   3.326   2.221 -0.2902 -1.2492  0.5328
 3888TIP3   OH233078   5.364   5.936  14.143 -0.2905 -0.2626  0.1212
 3888TIP3    H133079   5.452   5.898  14.146  0.0331  0.0905 -2.7896
 3888TIP3    H233080   5.330   5.908  14.058 -3.0400 -0.4556  1.2485
 3889TIP3   OH233081   0.847   5.978  11.414  0.2351  0.3341 -0.0465
 3889TIP3    H133082   0.809   5.894  11.389  0.6122  0.3974 -0.8515
 3889TIP3    H233083   0.820   6.038  11.344  1.7311  0.4015 -0.5945
 3890TIP3   OH233084   1.777   6.783   0.291 -0.0318  0.0937 -0.3484
 3890TIP3    H133085   1.746   6.709   0.239 -0.8300 -0.1175  0.4001
 3890TIP3    H233086   1.707   6.848   0.284  0.4587  0.5849 -0.6269
 3891TIP3   OH233087   0.853   4.923   1.846 -0.3010  0.6131 -0.6621
 3891TIP3    H133088   0.782   4.907   1.909  1.3655  2.7015  1.8701
 3891TIP3    H233089   0.893   4.837   1.834 -0.5249  0.2001  1.3315
 3892TIP3   OH233090   1.315   0.149  14.125 -0.0986  0.6393  0.2498
 3892TIP3    H133091   1.234   0.187  14.158 -0.6684  1.4509 -1.9815
 3892TIP3    H233092   1.379   0.220  14.130  0.0789  0.4590  0.5626
 3893TIP3   OH233093   1.189   4.846   6.534  0.3007 -0.2927 -0.6644
 3893TIP3    H133094   1.151   4.876   6.452  2.6967  0.0296 -1.6801
 3893TIP3    H233095   1.283   4.838   6.517  0.9072  0.0935  2.1143
 3894TIP3   OH233096   6.440   0.298  12.572  0.4448  0.1424 -0.4640
 3894TIP3    H133097   6.417   0.310  12.480  0.9373  1.1370 -0.4685
 3894TIP3    H233098   6.438   0.203  12.586 -0.9836  0.0623 -1.1425
 3895TIP3   OH233099   2.057   5.223   3.771 -0.1414  0.2718 -0.3251
 3895TIP3    H133100   2.082   5.261   3.855 -1.1636  0.6893 -0.2135
 3895TIP3    H233101   2.082   5.289   3.706  2.4668 -0.8629 -0.5347
 3896TIP3   OH233102   2.916   6.630  16.105 -0.4956 -0.0491  0.0067
 3896TIP3    H133103   2.825   6.643  16.131 -0.4399  2.9072 -1.1111
 3896TIP3    H233104   2.967   6.670  16.176 -0.2093  1.9304 -1.2649
 3897TIP3   OH233105   6.426   6.085  15.679 -0.1045  0.0813 -0.1163
 3897TIP3    H133106   6.343   6.056  15.642 -0.2229  0.9748 -0.5722
 3897TIP3    H233107   6.434   6.177  15.651 -0.6697  1.1057  2.8504
 3898TIP3   OH233108   4.506   2.897   1.005  0.5680  0.4093 -0.8647
 3898TIP3    H133109   4.448   2.968   1.031 -1.0308 -0.2711 -2.4900
 3898TIP3    H233110   4.505   2.899   0.909  0.5509 -1.7427 -0.9281
 3899TIP3   OH233111   3.220   6.323   2.835  0.7311  0.1047 -0.1456
 3899TIP3    H133112   3.244   6.340   2.744 -0.4153 -0.2301 -0.5255
 3899TIP3    H233113   3.181   6.235   2.833  1.5416 -0.2896  0.8352
 3900TIP3   OH233114   5.445   4.494  14.633  0.4465 -0.1625 -0.5082
 3900TIP3    H133115   5.356   4.464  14.653 -0.8609  1.5425 -3.3703
 3900TIP3    H233116   5.466   4.555  14.703 -0.5423 -0.7267  0.2996
 3901TIP3   OH233117   2.605   2.082   2.702 -0.4404  0.1502  0.8917
 3901TIP3    H133118   2.635   2.167   2.733 -2.1961  0.8070  0.8275
 3901TIP3    H233119   2.548   2.049   2.771 -2.0449  0.3215 -0.3037
 3902TIP3   OH233120   2.072   4.328   5.529 -0.4681 -0.1613 -0.0478
 3902TIP3    H133121   2.084   4.235   5.511  0.6502  0.2612 -1.5560
 3902TIP3    H233122   1.985   4.348   5.493  0.2596 -0.1233 -1.8433
 3903TIP3   OH233123   6.183   4.903  10.877  0.3248 -0.3367 -0.0261
 3903TIP3    H133124   6.144   4.891  10.791  0.9429 -1.0171 -0.2221
 3903TIP3    H233125   6.277   4.889  10.863  0.4806  0.0004  0.6703
 3904TIP3   OH233126   6.597   5.703  12.691  0.3438 -0.4441 -0.1995
 3904TIP3    H133127   6.566   5.667  12.774  0.1277 -0.1480 -0.1491
 3904TIP3    H233128   6.679   5.657  12.673  1.1016  0.4724  0.8617
 3905TIP3   OH233129   3.715   0.890  16.233  0.6352  0.9666 -0.2738
 3905TIP3    H133130   3.692   0.944  16.157  0.9133  0.3240 -0.8201
 3905TIP3    H233131   3.781   0.941  16.280 -0.8087  2.1552  0.5018
 3906TIP3   OH233132   3.312   0.582   0.886  0.0575  0.2074  0.2724
 3906TIP3    H133133   3.302   0.488   0.905  0.9615  0.0335 -0.0993
 3906TIP3    H233134   3.330   0.622   0.971  0.7102 -0.1014  0.2789
 3907TIP3   OH233135   0.659   0.689   3.609 -0.1210  0.3134  0.5358
 3907TIP3    H133136   0.668   0.643   3.525  0.3853 -0.0850  0.8094
 3907TIP3    H233137   0.598   0.760   3.590  0.5714  0.6854 -0.3770
 3908TIP3   OH233138   5.786   5.293  14.523  0.7199  0.6624  0.3311
 3908TIP3    H133139   5.878   5.271  14.537  0.8842 -0.0186 -1.6494
 3908TIP3    H233140   5.738   5.231  14.577  1.3905  0.1426  0.3370
 3909TIP3   OH233141   3.777   3.708   5.463  0.3732 -0.3803 -0.2250
 3909TIP3    H133142   3.764   3.692   5.556  0.2138  0.2614 -0.1363
 3909TIP3    H233143   3.734   3.792   5.446  1.7870  0.3043 -0.5382
 3910TIP3   OH233144   2.219   3.197  13.190 -0.4423  0.0259 -0.5062
 3910TIP3    H133145   2.309   3.178  13.162 -0.9828 -0.0015 -2.2711
 3910TIP3    H233146   2.164   3.144  13.132 -1.6557  1.1315 -0.3767
 3911TIP3   OH233147   4.864   5.690  17.087 -0.2928  0.0835  0.2889
 3911TIP3    H133148   4.808   5.680  17.164  0.3405 -0.0635  0.7350
 3911TIP3    H233149   4.832   5.769  17.044 -1.2080 -0.3094  0.2238
 3912TIP3   OH233150   5.004   4.262   5.451  0.0523  0.0455  0.3523
 3912TIP3    H133151   4.910   4.245   5.446 -0.6807  3.6628  0.6284
 3912TIP3    H233152   5.037   4.237   5.365 -1.4508  0.2886 -0.3177
 3913TIP3   OH233153   1.662   2.329   2.225  0.3582 -0.0104 -0.3438
 3913TIP3    H133154   1.604   2.400   2.198  0.4393 -0.2828 -1.2475
 3913TIP3    H233155   1.669   2.338   2.320 -0.7943  0.3037 -0.2877
 3914TIP3   OH233156   5.047   6.697  12.986  0.0134  0.2129  0.4914
 3914TIP3    H133157   5.107   6.643  13.038  0.4134  2.1338  2.0725
 3914TIP3    H233158   4.989   6.633  12.944  0.5265 -1.4631  2.2308
 3915TIP3   OH233159   3.305   6.566   2.982  0.4700  0.2109 -0.1531
 3915TIP3    H133160   3.285   6.487   2.932 -1.0434  0.4369  0.0687
 3915TIP3    H233161   3.221   6.593   3.018  0.9685  1.9615 -0.2714
 3916TIP3   OH233162   2.068   6.012   4.733  0.4290  0.2202 -0.1443
 3916TIP3    H133163   2.122   6.037   4.808 -1.2070  2.9076  0.2309
 3916TIP3    H233164   2.131   5.997   4.663  1.7861  1.6194  0.7253
 3917TIP3   OH233165   6.292   4.406  15.562 -0.4357 -0.1707 -0.2824
 3917TIP3    H133166   6.376   4.451  15.571 -0.2887 -0.6840  0.9233
 3917TIP3    H233167   6.305   4.345  15.489  0.2752 -0.3387 -0.0199
 3918TIP3   OH233168   1.490   4.498  13.065 -0.2459  0.1124  0.2921
 3918TIP3    H133169   1.549   4.570  13.044 -0.8991 -0.0306 -2.1997
 3918TIP3    H233170   1.411   4.541  13.099 -0.4703  0.5629 -0.7835
 3919TIP3   OH233171   1.259   4.827  11.921 -0.6306  0.1377  0.4299
 3919TIP3    H133172   1.272   4.921  11.911 -1.7389  0.2052 -0.5125
 3919TIP3    H233173   1.247   4.795  11.832 -2.9438 -0.4687  0.9125
 3920TIP3   OH233174   0.928   5.412  10.610  0.4652  0.3601 -0.0578
 3920TIP3    H133175   0.835   5.408  10.585  0.3354 -0.3246  0.5194
 3920TIP3    H233176   0.975   5.413  10.527 -0.0370  0.0525 -0.3483
 3921TIP3   OH233177   4.632   6.441   5.549 -0.4309 -0.0532  0.3123
 3921TIP3    H133178   4.654   6.415   5.639  0.4387  0.7625  0.3424
 3921TIP3    H233179   4.717   6.454   5.507 -0.8441  0.2166 -0.4396
 3922TIP3   OH233180   3.128   1.669  11.196 -0.1435 -0.3428 -0.5344
 3922TIP3    H133181   3.115   1.759  11.166  1.9137  0.3806  0.6312
 3922TIP3    H233182   3.204   1.674  11.255 -0.4857 -2.7054  0.1657
 3923TIP3   OH233183   1.985   4.082  13.298  0.2062  0.3993 -0.2568
 3923TIP3    H133184   1.968   4.015  13.232  1.9899 -1.2665  0.9156
 3923TIP3    H233185   1.970   4.165  13.252 -2.6930 -0.7810 -1.5382
 3924TIP3   OH233186   6.295   6.230   1.159 -0.2402 -0.4709  0.2099
 3924TIP3    H133187   6.351   6.164   1.199 -0.1954 -0.3655  0.3191
 3924TIP3    H233188   6.274   6.194   1.073 -0.7361 -0.9274  0.5119
 3925TIP3   OH233189   4.884   4.788   5.820  1.2166 -0.1598  0.6690
 3925TIP3    H133190   4.863   4.742   5.902  1.7561 -1.3708  0.1383
 3925TIP3    H233191   4.976   4.812   5.829  1.9222 -2.2815 -0.4875
 3926TIP3   OH233192   1.230   6.521   1.658  0.7082  0.0826  0.3301
 3926TIP3    H133193   1.241   6.499   1.566 -0.0069 -0.3770  0.3489
 3926TIP3    H233194   1.294   6.467   1.704  0.8764  0.1083  0.1252
 3927TIP3   OH233195   5.615   6.034  12.420 -0.3647  0.2331  0.6608
 3927TIP3    H133196   5.550   6.048  12.352 -1.5505  1.3773  2.0065
 3927TIP3    H233197   5.694   6.078  12.389 -0.9094  0.7660  0.0521
 3928TIP3   OH233198   3.783   0.151  13.998  0.2805  0.4138  0.4120
 3928TIP3    H133199   3.801   0.102  13.919 -3.1346 -0.0977 -0.1443
 3928TIP3    H233200   3.794   0.088  14.069 -1.5905 -0.5428 -0.1057
 3929TIP3   OH233201   4.907   5.350   2.867  0.6275 -0.1994 -0.2005
 3929TIP3    H133202   4.904   5.256   2.851  0.4660 -0.4944  1.4366
 3929TIP3    H233203   4.910   5.357   2.963  0.4321  1.4636 -0.3144
 3930TIP3   OH233204   5.749   6.181  12.223 -0.1568 -0.1061 -0.4615
 3930TIP3    H133205   5.730   6.272  12.246  3.6073  0.6416 -0.1148
 3930TIP3    H233206   5.718   6.172  12.133 -1.0297  1.3278 -0.3272
 3931TIP3   OH233207   2.533   0.670  11.344  0.9129  0.4739 -0.1234
 3931TIP3    H133208   2.616   0.638  11.379  0.8558  1.9677  1.4762
 3931TIP3    H233209   2.474   0.671  11.420 -0.0941  0.9814 -0.8911
 3932TIP3   OH233210   2.475   2.399  13.371  0.0513  0.2250 -0.0240
 3932TIP3    H133211   2.555   2.436  13.333  0.2487 -1.4253 -1.2868
 3932TIP3    H233212   2.437   2.346  13.300 -1.5047  0.0014  0.9484
 3933TIP3   OH233213   3.465   4.013   4.688  0.4844 -0.2030 -0.4422
 3933TIP3    H133214   3.391   4.072   4.674 -0.6440 -1.2215  1.1345
 3933TIP3    H233215   3.483   3.977   4.601  0.0022  1.0630 -1.0788
 3934TIP3   OH233216   0.789   2.624  14.631 -0.1164  0.1285  0.2373
 3934TIP3    H133217   0.828   2.666  14.555 -0.2047 -2.3451 -1.2185
 3934TIP3    H233218   0.746   2.695  14.679  0.6784  1.8394 -1.5453
 3935TIP3   OH233219   1.415   0.759   5.962 -0.3991 -0.0321  0.2631
 3935TIP3    H133220   1.449   0.734   5.876  0.8718  1.1680  0.4039
 3935TIP3    H233221   1.327   0.721   5.965  0.3390 -1.8767 -0.7267
 3936TIP3   OH233222   6.190   4.603  15.965  0.1797  0.0547  0.2559
 3936TIP3    H133223   6.095   4.616  15.964 -0.5238 -3.7693  3.0857
 3936TIP3    H233224   6.224   4.679  16.012 -1.5243  1.2093 -0.3054
 3937TIP3   OH233225   4.093   3.845  16.932 -0.0735  0.2388  0.0349
 3937TIP3    H133226   4.028   3.877  16.994 -0.4391 -1.2347  0.4481
 3937TIP3    H233227   4.164   3.909  16.936 -0.8337  1.0570  0.7019
 3938TIP3   OH233228   5.549   4.641   3.965  0.0846  0.4622 -0.1941
 3938TIP3    H133229   5.492   4.699   4.015  2.3709  2.4206  0.2064
 3938TIP3    H233230   5.631   4.690   3.954  1.2972 -1.7983 -1.7832
 3939TIP3   OH233231   0.435   2.638   4.086 -0.0855 -0.4083 -0.3003
 3939TIP3    H133232   0.491   2.593   4.023  0.3786  2.2834 -1.9058
 3939TIP3    H233233   0.495   2.662   4.157 -0.1278 -1.4160  0.0810
 3940TIP3   OH233234   5.360   5.651  12.048 -0.8529  0.1472 -0.1838
 3940TIP3    H133235   5.387   5.700  12.126 -1.6295 -0.3625  0.4094
 3940TIP3    H233236   5.269   5.626  12.065 -0.6666 -0.9538 -0.7498
 3941TIP3   OH233237   2.826   4.340  13.460  0.6350  0.4968  0.3233
 3941TIP3    H133238   2.788   4.261  13.421 -0.9805 -0.0816  2.9185
 3941TIP3    H233239   2.917   4.316  13.479  0.6907 -0.0893 -0.6619
 3942TIP3   OH233240   4.110   2.999  12.166 -0.4377  0.3461  0.5723
 3942TIP3    H133241   4.139   3.084  12.132  0.1283  1.3607  3.4754
 3942TIP3    H233242   4.045   3.021  12.233 -2.2207 -1.6455 -0.4368
 3943TIP3   OH233243   1.131   1.868  11.801 -1.2506  0.0279  0.7673
 3943TIP3    H133244   1.158   1.800  11.863 -2.1646 -0.7773  0.2928
 3943TIP3    H233245   1.041   1.846  11.778 -1.9553  2.0473  1.4533
 3944TIP3   OH233246   2.986   0.338  15.310 -0.3533  0.2460 -0.3561
 3944TIP3    H133247   2.966   0.338  15.217  1.0443  0.9019 -0.6721
 3944TIP3    H233248   3.043   0.261  15.322 -0.0852  0.4748 -0.1474
 3945TIP3   OH233249   4.169   1.299  12.614 -0.0533  1.2064  0.0760
 3945TIP3    H133250   4.240   1.245  12.650 -2.2743  1.2237  4.9721
 3945TIP3    H233251   4.203   1.388  12.617  0.4526  1.0052  0.4851
 3946TIP3   OH233252   2.615   1.980  13.258  0.0442 -0.1496 -0.1731
 3946TIP3    H133253   2.704   1.958  13.286  0.2959  0.1579 -0.7074
 3946TIP3    H233254   2.558   1.926  13.312  0.4577  1.2730  1.7040
 3947TIP3   OH233255   2.952   6.245   0.625  0.3384 -0.5434  0.2602
 3947TIP3    H133256   2.951   6.159   0.667  0.0810 -0.5199  0.3069
 3947TIP3    H233257   3.011   6.235   0.551  0.8911 -0.5528  0.6964
 3948TIP3   OH233258   2.351   3.978  17.110 -0.0106  0.5584  0.1347
 3948TIP3    H133259   2.341   3.923  17.188 -2.9553  0.9675  0.1065
 3948TIP3    H233260   2.380   3.917  17.042 -1.2639 -0.5834  0.5965
 3949TIP3   OH233261   1.962   2.366  10.502 -0.4923  0.4022  0.0036
 3949TIP3    H133262   1.890   2.380  10.440 -0.6945 -0.3598  0.0599
 3949TIP3    H233263   1.937   2.286  10.550 -1.6965  2.4750  3.0060
 3950TIP3   OH233264   5.566   5.737  11.179  0.1138  0.1775  0.3895
 3950TIP3    H133265   5.542   5.822  11.144  0.5039  0.1928  0.1497
 3950TIP3    H233266   5.487   5.684  11.171  0.5907 -0.2590 -1.8935
 3951TIP3   OH233267   6.034   3.239  13.830  0.0670 -0.2334  0.1110
 3951TIP3    H133268   5.953   3.284  13.806 -0.5565 -1.7583 -0.7550
 3951TIP3    H233269   6.051   3.181  13.756  2.2344  0.4268  0.0565
 3952TIP3   OH233270   5.063   3.701  11.813 -0.3644  0.9175 -0.3326
 3952TIP3    H133271   5.089   3.793  11.810  0.3422  0.8329  2.5273
 3952TIP3    H233272   5.144   3.654  11.832 -0.9940 -0.1628 -0.3052
 3953TIP3   OH233273   0.986   4.363  15.420 -0.2819  0.4095 -0.2580
 3953TIP3    H133274   0.902   4.350  15.464 -0.0392  0.8506  0.3503
 3953TIP3    H233275   0.963   4.385  15.330 -0.8139  0.3190 -0.1448
 3954TIP3   OH233276   2.608   5.686   6.342 -0.5545  0.2708  0.6180
 3954TIP3    H133277   2.567   5.612   6.297  0.9191 -0.3516  0.2522
 3954TIP3    H233278   2.632   5.652   6.428 -0.8816  0.6455  0.8567
 3955TIP3   OH233279   2.963   6.486  16.509 -0.8484 -0.6807 -0.2384
 3955TIP3    H133280   2.909   6.452  16.581 -0.2786  0.3882  0.7192
 3955TIP3    H233281   3.021   6.414  16.486  0.3038 -0.3927  1.7167
 3956TIP3   OH233282   0.412   5.127  10.864  0.4262 -0.4508  0.4939
 3956TIP3    H133283   0.329   5.084  10.884  1.3944 -2.4336  0.3745
 3956TIP3    H233284   0.411   5.137  10.769  0.5029 -0.8812  0.4443
 3957TIP3   OH233285   6.095   4.091   5.039 -0.1601  0.3737  0.0207
 3957TIP3    H133286   6.153   4.018   5.015 -0.0033  0.7458 -0.7425
 3957TIP3    H233287   6.115   4.107   5.132  1.3421  0.8262 -0.3579
 3958TIP3   OH233288   6.149   1.702   0.556 -0.1543  0.3132 -0.1057
 3958TIP3    H133289   6.055   1.716   0.558  0.0649  2.2871 -1.8707
 3958TIP3    H233290   6.178   1.744   0.475  2.2389 -0.2039  0.4428
 3959TIP3   OH233291   3.226   3.863  16.233  0.2380  0.0879 -0.0218
 3959TIP3    H133292   3.141   3.900  16.260  0.5402 -0.2914  1.4946
 3959TIP3    H233293   3.226   3.870  16.137 -1.9098 -0.7858 -0.1085
 3960TIP3   OH233294   1.862   2.791   2.852 -0.4536  0.5382  0.1267
 3960TIP3    H133295   1.781   2.803   2.803 -0.5342 -0.5239 -0.0170
 3960TIP3    H233296   1.843   2.825   2.939 -0.7659  1.1157 -0.1643
 3961TIP3   OH233297   2.270   0.896  15.083  0.1124 -0.9153  0.6752
 3961TIP3    H133298   2.308   0.832  15.023  1.5955  1.0333 -0.5477
 3961TIP3    H233299   2.227   0.959  15.026 -2.7316 -1.6605  1.9378
 3962TIP3   OH233300   5.112   5.856  17.047 -0.1145  0.0584  0.5907
 3962TIP3    H133301   5.048   5.796  17.085 -0.5079 -0.0874 -0.2822
 3962TIP3    H233302   5.103   5.844  16.952  2.2729 -1.0487  0.4881
 3963TIP3   OH233303   3.792   4.888  12.552 -0.1346  0.1366  0.1909
 3963TIP3    H133304   3.765   4.806  12.593 -1.3630 -0.4022 -1.6511
 3963TIP3    H233305   3.887   4.885  12.553 -0.1623 -1.8683 -0.9321
 3964TIP3   OH233306   5.257   1.988  14.299  0.1310 -0.0273 -0.1149
 3964TIP3    H133307   5.313   1.946  14.234 -0.2491  0.1351 -0.5505
 3964TIP3    H233308   5.168   1.963  14.273 -0.0103 -0.1353  0.4653
 3965TIP3   OH233309   0.336   6.584   5.173  0.0758 -0.4840  0.4613
 3965TIP3    H133310   0.249   6.600   5.210 -0.3572 -0.2866 -0.6438
 3965TIP3    H233311   0.323   6.514   5.109  0.1243  1.6495 -1.9703
 3966TIP3   OH233312   1.713   0.483  10.777  0.1324  0.0433 -0.0490
 3966TIP3    H133313   1.772   0.535  10.831 -0.7181  0.8633  0.1017
 3966TIP3    H233314   1.728   0.515  10.688  0.0710  0.1141 -0.0346
 3967TIP3   OH233315   3.442   6.614  16.253 -0.4331 -0.7824 -0.2889
 3967TIP3    H133316   3.435   6.597  16.347 -0.6013  1.0667  0.0400
 3967TIP3    H233317   3.505   6.549  16.221  2.1919  0.7338  1.6742
 3968TIP3   OH233318   6.412   1.800   3.956  0.2512 -0.1580 -0.2842
 3968TIP3    H133319   6.357   1.766   4.026 -1.7787  1.2055 -1.1644
 3968TIP3    H233320   6.483   1.845   4.001  0.1972 -1.1945  0.8759
 3969TIP3   OH233321   4.951   3.858   6.551 -0.0072 -0.4541  0.0447
 3969TIP3    H133322   4.998   3.787   6.595  0.2201  0.4006  1.1968
 3969TIP3    H233323   5.019   3.915   6.516 -0.1796 -1.3699 -1.8640
 3970TIP3   OH233324   5.389   3.921   1.471  0.2493  0.2531 -0.6536
 3970TIP3    H133325   5.362   3.897   1.560 -0.0956 -2.1069 -1.3673
 3970TIP3    H233326   5.451   3.993   1.484  2.4445 -1.9502  1.7141
 3971TIP3   OH233327   6.362   0.604   0.200 -0.4490  0.1253 -0.3318
 3971TIP3    H133328   6.432   0.539   0.196 -0.6464 -0.1170  0.2087
 3971TIP3    H233329   6.287   0.556   0.234 -0.2254  0.9597  1.3829
 3972TIP3   OH233330   5.169   0.673  15.788 -0.2672  0.5497  0.3085
 3972TIP3    H133331   5.148   0.735  15.718 -0.0052 -0.1831 -0.4314
 3972TIP3    H233332   5.250   0.706  15.827  2.2349 -1.5586 -2.8379
 3973TIP3   OH233333   0.092   4.962  12.086 -0.5086 -0.1774  0.0622
 3973TIP3    H133334   0.084   5.031  12.152 -0.1948 -0.1906  0.1143
 3973TIP3    H233335   0.040   4.890  12.120 -1.4840  0.3162 -0.3700
 3974TIP3   OH233336   6.397   6.560   0.960  0.3717  0.2233  0.4794
 3974TIP3    H133337   6.307   6.552   0.930  1.0117  0.4710 -1.5539
 3974TIP3    H233338   6.446   6.500   0.904  1.8244  1.8627 -0.0173
 3975TIP3   OH233339   1.612   5.623  13.971 -0.4872 -0.0383 -0.5761
 3975TIP3    H133340   1.531   5.648  14.016  0.0293  1.7542 -0.5927
 3975TIP3    H233341   1.598   5.650  13.880 -0.1409 -0.3507 -0.7218
 3976TIP3   OH233342   1.145   4.348   4.666 -0.0555  0.0986  0.3442
 3976TIP3    H133343   1.059   4.305   4.672 -0.1894  0.0533 -1.5619
 3976TIP3    H233344   1.185   4.310   4.588  1.8025 -0.0339  1.3451
 3977TIP3   OH233345   3.141   0.452   5.367  0.2915  0.4465  0.5324
 3977TIP3    H133346   3.125   0.362   5.340  1.4846  0.7406 -1.2234
 3977TIP3    H233347   3.080   0.504   5.314  0.6841  0.8023  0.4297
 3978TIP3   OH233348   1.660   5.905  13.178 -0.3062 -0.0449 -0.1960
 3978TIP3    H133349   1.591   5.971  13.171 -0.4769 -0.2504 -0.4560
 3978TIP3    H233350   1.734   5.951  13.219 -0.1696  0.5042 -1.0427
 3979TIP3   OH233351   3.809   1.800   0.587 -0.4469  0.3261 -0.8369
 3979TIP3    H133352   3.771   1.712   0.595 -2.9494  1.3105 -1.3025
 3979TIP3    H233353   3.864   1.809   0.665 -1.2126 -1.1750 -0.0845
 3980TIP3   OH233354   2.570   1.500  15.218  0.1920 -0.0501 -0.4587
 3980TIP3    H133355   2.590   1.408  15.200  0.4673 -0.0491 -0.1586
 3980TIP3    H233356   2.551   1.538  15.132 -0.1096 -0.4325 -0.5613
 3981TIP3   OH233357   6.002   1.089  12.133  0.4646  0.6820 -0.1743
 3981TIP3    H133358   5.924   1.141  12.112  0.5734  0.4820 -1.0957
 3981TIP3    H233359   6.037   1.064  12.048  1.2859  0.3917  0.2490
 3982TIP3   OH233360   6.514   0.945   1.930 -0.4420 -0.0212  0.3660
 3982TIP3    H133361   6.497   0.867   1.877 -1.5414  1.9561 -2.3048
 3982TIP3    H233362   6.477   1.017   1.879  0.9653  2.3181  2.5429
 3983TIP3   OH233363   0.405   6.244  16.932 -0.3713  0.3509 -0.2528
 3983TIP3    H133364   0.369   6.187  17.000 -0.2003  0.4842 -0.0518
 3983TIP3    H233365   0.336   6.309  16.917 -0.3891  0.3509 -0.1700
 3984TIP3   OH233366   3.580   6.269  15.050 -0.2868  0.3127  0.8613
 3984TIP3    H133367   3.626   6.246  14.969 -0.0738 -2.7127  1.8020
 3984TIP3    H233368   3.562   6.363  15.041  0.5119  0.2169 -2.2847
 3985TIP3   OH233369   6.749   1.810  16.606  0.3293 -0.6449  0.3492
 3985TIP3    H133370   6.675   1.859  16.572  2.0278  1.2379 -0.7145
 3985TIP3    H233371   6.726   1.792  16.697 -0.9739  0.8205  0.3218
 3986TIP3   OH233372   1.462   3.889   4.656  0.6418  0.1407 -0.4656
 3986TIP3    H133373   1.526   3.835   4.702 -0.2678 -1.3964 -0.9310
 3986TIP3    H233374   1.390   3.828   4.636  0.3380  1.1215 -2.5237
 3987TIP3   OH233375   1.737   1.065   1.779 -0.1862 -1.1141 -0.4934
 3987TIP3    H133376   1.682   0.992   1.751 -2.1139  0.3179 -0.5226
 3987TIP3    H233377   1.731   1.129   1.708  1.2569 -0.7803 -0.3363
 3988TIP3   OH233378   1.810   0.005  11.210  0.6035  0.4999  0.2253
 3988TIP3    H133379   1.813   0.044  11.122 -0.0578 -1.4087 -0.6498
 3988TIP3    H233380   1.752  -0.070  11.202  0.6255  0.2287  2.2812
 3989TIP3   OH233381   5.128   4.345   5.719  0.4117 -0.0340 -0.0427
 3989TIP3    H133382   5.052   4.350   5.661 -0.1294  0.2581  0.6748
 3989TIP3    H233383   5.200   4.319   5.662 -0.5035 -1.7003 -0.5022
 3990TIP3   OH233384   3.167   3.930   5.185 -0.2247 -0.5558  0.4326
 3990TIP3    H133385   3.185   3.939   5.091 -2.9986  0.5399 -0.0539
 3990TIP3    H233386   3.126   3.844   5.194 -4.0691  1.1132 -0.1355
 3991TIP3   OH233387   3.613   2.855   1.111 -0.0557 -0.1476 -0.0259
 3991TIP3    H133388   3.687   2.860   1.171  0.4743 -1.0041 -0.6147
 3991TIP3    H233389   3.584   2.946   1.103  0.6112  0.1287  0.5925
 3992TIP3   OH233390   3.808   4.503   3.313 -0.1780  0.0214 -0.0263
 3992TIP3    H133391   3.749   4.560   3.362 -0.8583  1.7432 -2.7014
 3992TIP3    H233392   3.753   4.431   3.283  0.0358 -0.5477  0.9203
 3993TIP3   OH233393   3.006   3.152  12.982  0.3156 -0.2489  0.2088
 3993TIP3    H133394   2.919   3.193  12.979  1.5706  2.6096  1.1890
 3993TIP3    H233395   3.019   3.130  13.074  0.6487 -0.5842  0.0784
 3994TIP3   OH233396   6.550   5.566  10.439  0.6449  0.5243  0.2333
 3994TIP3    H133397   6.635   5.549  10.398  0.3920 -0.6470  0.1995
 3994TIP3    H233398   6.518   5.480  10.466 -0.8523  0.8711 -0.3871
 3995TIP3   OH233399   2.992   5.515   5.748 -0.9318  1.0573  0.3003
 3995TIP3    H133400   3.016   5.495   5.658 -0.4117  0.9341  0.4635
 3995TIP3    H233401   2.950   5.601   5.744 -2.0668  0.4919 -0.2347
 3996TIP3   OH233402   1.716   6.501  10.503 -0.3529 -0.2792  0.4719
 3996TIP3    H133403   1.728   6.431  10.439 -0.0010  0.4240 -0.2371
 3996TIP3    H233404   1.686   6.456  10.582 -0.0884 -1.2355  0.0374
 3997TIP3   OH233405   3.820   2.631   0.617  0.2563 -0.0591  0.2188
 3997TIP3    H133406   3.752   2.698   0.619 -1.8968 -2.1280 -0.3555
 3997TIP3    H233407   3.803   2.578   0.695  0.9091 -0.8921 -0.1980
 3998TIP3   OH233408   4.766   2.963  15.082  0.0890  0.0747  0.4057
 3998TIP3    H133409   4.723   3.025  15.022  0.5722 -0.0149 -0.0379
 3998TIP3    H233410   4.793   2.891  15.025 -0.2708 -0.4348  0.8886
 3999TIP3   OH233411   1.983   3.455  11.618 -0.0843  0.3389  0.2509
 3999TIP3    H133412   2.043   3.524  11.646  1.0896 -0.6542  0.2171
 3999TIP3    H233413   2.039   3.387  11.581 -1.4170  0.4508 -2.0314
 4000TIP3   OH233414   5.167   3.173   0.443 -0.6326  0.4997  0.9638
 4000TIP3    H133415   5.220   3.152   0.520  1.4170  1.1103 -0.2415
 4000TIP3    H233416   5.151   3.267   0.451  1.3701  0.9785 -0.4140
 4001TIP3   OH233417   5.262   2.065  16.076  0.2051  0.8188 -0.6142
 4001TIP3    H133418   5.188   2.099  16.125 -0.8165 -0.6533 -1.1127
 4001TIP3    H233419   5.300   1.998  16.133 -1.5905 -1.6161 -2.1731
 4002TIP3   OH233420   2.550   3.844   6.509 -0.8694  0.3481 -0.0376
 4002TIP3    H133421   2.457   3.856   6.492 -0.6712  0.9422 -0.7185
 4002TIP3    H233422   2.593   3.915   6.461 -0.0439 -0.0893  0.0427
 4003TIP3   OH233423   0.910   4.750  11.264  0.0943  0.1548  0.2408
 4003TIP3    H133424   0.876   4.734  11.176  0.5534 -0.1115  0.1076
 4003TIP3    H233425   0.996   4.709  11.264  0.4649  0.9250  0.5409
 4004TIP3   OH233426   2.758   4.808   4.729 -0.4154 -0.3282  0.1504
 4004TIP3    H133427   2.724   4.762   4.652  1.3045 -2.6447  0.7160
 4004TIP3    H233428   2.828   4.752   4.761  0.2299  1.6110  2.2419
 4005TIP3   OH233429   1.099   4.273  11.495  0.2957  0.2239  0.4278
 4005TIP3    H133430   1.076   4.263  11.587 -0.4939  1.1917  0.3407
 4005TIP3    H233431   1.156   4.350  11.492  1.0197 -0.3159  0.2212
 4006TIP3   OH233432   6.669   0.276  13.004  0.2289  0.0758 -0.0523
 4006TIP3    H133433   6.642   0.261  13.095 -0.3485  0.2155 -0.1969
 4006TIP3    H233434   6.611   0.346  12.973  1.2585  0.9124 -0.1406
 4007TIP3   OH233435   6.509   2.592  17.085 -0.3156  0.3507 -0.0704
 4007TIP3    H133436   6.502   2.649  17.162 -1.6046  0.9299 -0.5978
 4007TIP3    H233437   6.446   2.629  17.023  0.5844 -0.2296 -1.3292
 4008TIP3   OH233438   3.773   5.968  13.057  0.3115 -0.0938 -0.2436
 4008TIP3    H133439   3.719   5.962  12.978 -0.2226 -0.4810  0.1479
 4008TIP3    H233440   3.739   6.045  13.103 -0.5632 -0.9137  0.4892
 4009TIP3   OH233441   5.291   3.190   6.575 -0.5909 -0.6746  0.5464
 4009TIP3    H133442   5.348   3.132   6.524  0.1911  1.2288 -0.7750
 4009TIP3    H233443   5.203   3.153   6.563 -0.2379 -1.0477 -1.0855
 4010TIP3   OH233444   1.962   6.366   0.282  0.1395 -0.0265 -0.7161
 4010TIP3    H133445   1.892   6.401   0.336  0.4493  1.7077 -1.4123
 4010TIP3    H233446   2.042   6.390   0.328  0.3318 -0.3494 -0.8813
 4011TIP3   OH233447   4.756   2.227   0.772  0.2666 -0.3050 -0.3710
 4011TIP3    H133448   4.792   2.302   0.819  0.0044 -0.8049  0.6501
 4011TIP3    H233449   4.717   2.172   0.841 -0.8534 -0.6432 -1.2620
 4012TIP3   OH233450   5.134   3.403  12.596  0.1981  0.2621  0.2548
 4012TIP3    H133451   5.160   3.361  12.514  0.5166  0.3930  0.2859
 4012TIP3    H233452   5.105   3.490  12.571 -0.7531 -0.0767  0.1566
 4013TIP3   OH233453   6.733   2.839   0.193  0.1626 -0.0386 -0.0274
 4013TIP3    H133454   6.768   2.902   0.130 -0.9694 -0.1873 -0.8211
 4013TIP3    H233455   6.695   2.892   0.262 -0.4349  0.1518 -0.4993
 4014TIP3   OH233456   2.448   4.995   2.615 -0.4353 -0.0333 -0.2992
 4014TIP3    H133457   2.420   4.903   2.614 -1.0127  0.1301  0.6569
 4014TIP3    H233458   2.367   5.045   2.611 -0.2336  0.4377  1.1737
 4015TIP3   OH233459   3.210   5.355  14.518  0.1275 -0.1816  0.4086
 4015TIP3    H133460   3.118   5.343  14.543 -0.1721 -1.4686 -1.2525
 4015TIP3    H233461   3.259   5.316  14.591 -0.6669 -0.5020  0.7795
 4016TIP3   OH233462   2.033   4.723   5.184 -0.2129  0.1292  0.5972
 4016TIP3    H133463   1.940   4.702   5.181  0.0365 -1.0177  0.7947
 4016TIP3    H233464   2.067   4.672   5.257  0.5724  0.5566  0.5386
 4017TIP3   OH233465   3.116   0.076  11.414  0.4904 -0.1175  0.9440
 4017TIP3    H133466   3.074   0.140  11.471  0.3174  0.3277  0.3289
 4017TIP3    H233467   3.138   0.003  11.471  0.8464  0.5618  1.6861
 4018TIP3   OH233468   6.757   5.233  10.778 -0.3358 -0.7272  0.0572
 4018TIP3    H133469   6.666   5.259  10.796  0.0016 -0.2119  1.0904
 4018TIP3    H233470   6.810   5.298  10.824  0.5635 -0.9262 -0.6767
 4019TIP3   OH233471   5.068   0.177   2.016 -0.1820  0.1609 -0.1255
 4019TIP3    H133472   4.978   0.191   2.045  0.0818  0.3473  0.6254
 4019TIP3    H233473   5.083   0.245   1.950 -0.8499 -0.3796 -0.8266
 4020TIP3   OH233474   4.574   3.975  15.147 -0.4595 -0.4195 -0.1101
 4020TIP3    H133475   4.495   3.927  15.123 -0.0776 -1.2088  0.1962
 4020TIP3    H233476   4.556   4.009  15.235  0.2610 -2.2091  0.7497
 4021TIP3   OH233477   4.489   2.196  14.682 -0.4783 -0.0623 -0.1702
 4021TIP3    H133478   4.479   2.182  14.776  0.3681  0.7068  0.0320
 4021TIP3    H233479   4.454   2.115  14.642  0.8875 -1.1800  0.8602
 4022TIP3   OH233480   0.892   2.224   5.234 -0.6207  0.2016  0.3589
 4022TIP3    H133481   0.861   2.219   5.143  1.0324 -0.3800 -0.1816
 4022TIP3    H233482   0.812   2.222   5.286 -1.5590 -0.1762 -1.0629
 4023TIP3   OH233483   2.357   1.986  15.441  0.0752 -0.0639  0.4592
 4023TIP3    H133484   2.376   1.920  15.374  0.0782  0.7091 -0.2996
 4023TIP3    H233485   2.336   2.065  15.392 -1.9072 -0.0202  1.3221
 4024TIP3   OH233486   0.060   1.964  13.572 -0.2649  0.5524  0.3025
 4024TIP3    H133487   0.098   2.045  13.606  0.4185  0.3450  0.0366
 4024TIP3    H233488   0.119   1.938  13.502 -1.4804  0.8098 -0.8398
 4025TIP3   OH233489   1.661   0.368   3.298 -0.1299 -0.7581  0.1441
 4025TIP3    H133490   1.576   0.403   3.324 -1.5820 -2.8554 -1.5787
 4025TIP3    H233491   1.669   0.391   3.205  0.6496 -1.5866 -0.0003
 4026TIP3   OH233492   4.903   5.745  12.216  0.1184  0.1200 -0.3874
 4026TIP3    H133493   4.900   5.806  12.289  3.4266  1.3352 -1.1937
 4026TIP3    H233494   4.937   5.797  12.143  0.2963 -1.9814 -1.8445
 4027TIP3   OH233495   1.610   6.425  13.886  0.7344  0.2604 -0.0518
 4027TIP3    H133496   1.562   6.506  13.900 -0.2982 -0.3328 -0.0802
 4027TIP3    H233497   1.594   6.374  13.966 -0.0741 -0.6148 -0.7517
 4028TIP3   OH233498   1.142   1.271   2.605 -0.2787 -0.1492  0.2014
 4028TIP3    H133499   1.221   1.234   2.564  0.2821  0.7577  0.4525
 4028TIP3    H233500   1.093   1.194   2.635  0.0886 -0.7613 -0.7131
 4029TIP3   OH233501   0.050   2.244   1.848 -0.5223  0.2884  0.2063
 4029TIP3    H133502   0.098   2.173   1.889 -1.5371 -0.1857  0.5807
 4029TIP3    H233503   0.007   2.204   1.772  1.2969  1.1400 -1.3177
 4030TIP3   OH233504   4.665   4.695  12.368  0.3384 -0.2291  0.1518
 4030TIP3    H133505   4.709   4.647  12.438 -0.7857 -1.8833 -0.2561
 4030TIP3    H233506   4.711   4.669  12.288 -0.3783 -0.7861 -0.0890
 4031TIP3   OH233507   2.914   6.195  11.600 -0.1869 -0.2888  0.2206
 4031TIP3    H133508   2.838   6.187  11.543  0.1734  3.1461 -0.8386
 4031TIP3    H233509   2.894   6.270  11.656  1.4434 -0.7800  1.4990
 4032TIP3   OH233510   5.252   2.559   5.659 -0.1600  0.3506 -0.2667
 4032TIP3    H133511   5.209   2.642   5.636  1.6716  1.4214  0.0273
 4032TIP3    H233512   5.194   2.519   5.724 -1.2364  1.2395 -0.6626
 4033TIP3   OH233513   1.810   2.302  11.947 -0.0949  0.0792  0.1663
 4033TIP3    H133514   1.844   2.215  11.964 -0.1729 -0.2338 -1.2565
 4033TIP3    H233515   1.789   2.337  12.034  1.1675 -0.8003  0.8338
 4034TIP3   OH233516   5.701   0.304   5.210  0.1505  0.8091 -0.0460
 4034TIP3    H133517   5.606   0.315   5.211  0.2682  1.8503  0.0063
 4034TIP3    H233518   5.733   0.369   5.272  0.8714  0.1619  0.2680
 4035TIP3   OH233519   5.899   1.393  15.966 -0.5920  0.1413  0.0747
 4035TIP3    H133520   5.934   1.456  16.028  0.3519 -0.6514  0.3732
 4035TIP3    H233521   5.805   1.392  15.983 -0.6442  1.6476 -0.1185
 4036TIP3   OH233522   3.140   2.186  10.561  0.2093 -0.5096 -0.9032
 4036TIP3    H133523   3.059   2.237  10.568  1.4738  1.5057 -0.7492
 4036TIP3    H233524   3.118   2.102  10.602 -1.2540  0.6760  0.8509
 4037TIP3   OH233525   1.687   2.478   6.423 -0.3882  0.5787 -0.1317
 4037TIP3    H133526   1.677   2.556   6.368  1.0831  0.7422 -0.1974
 4037TIP3    H233527   1.782   2.464   6.427 -0.5338 -0.0391  1.5204
 4038TIP3   OH233528   6.602   0.165   4.074 -0.4001 -0.4503  0.0352
 4038TIP3    H133529   6.661   0.238   4.092 -1.6395  0.1306  1.9267
 4038TIP3    H233530   6.660   0.090   4.061  0.8446  0.6635 -0.9614
 4039TIP3   OH233531   0.470   5.674  14.728  0.2774 -0.0662  0.0326
 4039TIP3    H133532   0.398   5.717  14.682  1.3693 -0.0115 -1.6776
 4039TIP3    H233533   0.444   5.582  14.732  0.2070 -0.0904 -0.8181
 4040TIP3   OH233534   5.790   5.254  13.461  0.1743  0.2095  0.6775
 4040TIP3    H133535   5.714   5.309  13.442  0.2469 -0.2035 -0.8290
 4040TIP3    H233536   5.835   5.300  13.532 -0.5499  1.3351  0.4222
 4041TIP3   OH233537   1.552   3.300   5.259  0.3436 -0.3700 -0.3586
 4041TIP3    H133538   1.513   3.345   5.334  0.2303 -0.2437 -0.4923
 4041TIP3    H233539   1.582   3.216   5.294  1.0183  0.0174  0.0051
 4042TIP3   OH233540   5.809   1.683   3.935 -0.1408 -0.1397 -0.5436
 4042TIP3    H133541   5.884   1.661   3.879  0.6625  1.8834 -0.3018
 4042TIP3    H233542   5.847   1.688   4.023 -0.0707  3.1107 -0.7119
 4043TIP3   OH233543   5.614   1.343  12.994  0.0786  0.2133  0.2006
 4043TIP3    H133544   5.525   1.309  12.980  0.5372 -1.1699  0.5604
 4043TIP3    H233545   5.625   1.410  12.926 -1.5011  0.9067  0.6110
 4044TIP3   OH233546   2.732   4.268   3.380  0.2513  0.0899  0.0300
 4044TIP3    H133547   2.733   4.174   3.359  1.2536 -0.0266  0.5514
 4044TIP3    H233548   2.640   4.292   3.376  0.0613 -0.7469 -0.8717
 4045TIP3   OH233549   0.307   3.657   2.658  0.4589 -0.0867  0.4889
 4045TIP3    H133550   0.376   3.591   2.660  0.3299 -0.3988 -2.6831
 4045TIP3    H233551   0.351   3.739   2.678  1.9830 -0.1317 -2.4551
 4046TIP3   OH233552   2.198   1.482   3.011 -0.0093 -0.7532  0.1289
 4046TIP3    H133553   2.161   1.543   3.076  0.6231 -2.2817  1.9869
 4046TIP3    H233554   2.122   1.442   2.970 -0.4525 -1.4177  1.5503
 4047TIP3   OH233555   2.815   2.417   1.025  0.0169  0.2214  0.5118
 4047TIP3    H133556   2.900   2.461   1.019 -0.0113  0.1351 -0.4580
 4047TIP3    H233557   2.834   2.336   1.073  0.1925  0.9368  1.6874
 4048TIP3   OH233558   6.177   5.711   5.060  0.0060  0.4281 -1.3485
 4048TIP3    H133559   6.229   5.719   4.979 -0.5507  1.2419 -1.6274
 4048TIP3    H233560   6.088   5.733   5.034 -0.4907 -0.9424 -0.8554
 4049TIP3   OH233561   1.682   5.494   4.451  0.3290  0.7146 -0.0336
 4049TIP3    H133562   1.706   5.524   4.539  0.9918  1.4601 -0.4679
 4049TIP3    H233563   1.765   5.483   4.406  0.1132 -1.7167  0.0761
 4050TIP3   OH233564   5.061   5.116   0.191 -0.8042 -0.4289 -0.3007
 4050TIP3    H133565   5.124   5.066   0.140 -0.0488  0.8396 -0.6382
 4050TIP3    H233566   4.982   5.062   0.193 -0.4923 -0.9440 -1.9149
 4051TIP3   OH233567   3.245   4.728   4.978 -0.1897 -0.0240  0.4110
 4051TIP3    H133568   3.333   4.700   5.004 -0.6143 -0.5955  1.2305
 4051TIP3    H233569   3.243   4.821   5.000  0.6487  0.3025 -0.8024
 4052TIP3   OH233570   5.978   2.117  16.337  0.1224 -0.5759 -0.6002
 4052TIP3    H133571   6.045   2.164  16.386 -0.4504 -1.1443  0.7553
 4052TIP3    H233572   5.904   2.177  16.332  0.0886 -0.6147 -0.5639
 4053TIP3   OH233573   6.515   6.060  16.128  0.1488 -0.1514 -0.5400
 4053TIP3    H133574   6.498   5.981  16.077  0.9788  0.1339 -1.2953
 4053TIP3    H233575   6.475   6.130  16.076 -1.0302 -0.1325  0.3787
 4054TIP3   OH233576   2.237   6.176  11.602 -0.1569  0.0787 -0.1888
 4054TIP3    H133577   2.323   6.139  11.583 -0.2330 -0.3981  0.4089
 4054TIP3    H233578   2.198   6.117  11.666 -2.1388 -1.3784 -2.6447
 4055TIP3   OH233579   4.421   3.578  15.856 -0.4693 -0.3945  0.2557
 4055TIP3    H133580   4.440   3.547  15.945 -2.5029  0.1610  0.9029
 4055TIP3    H233581   4.344   3.528  15.829 -0.4634  0.1668 -0.8310
 4056TIP3   OH233582   1.731   5.264  13.047 -0.6765  0.2858 -0.2219
 4056TIP3    H133583   1.787   5.327  13.092  2.5673 -2.3525 -0.3161
 4056TIP3    H233584   1.646   5.307  13.039  1.1039  4.1194  0.7204
 4057TIP3   OH233585   6.175   4.531  11.752  0.1518  0.1305 -0.0106
 4057TIP3    H133586   6.195   4.437  11.750 -1.8230 -0.3478  1.5952
 4057TIP3    H233587   6.254   4.572  11.788  0.3449 -1.1109  0.9957
 4058TIP3   OH233588   0.641   1.857   4.807  0.5863 -0.6742  0.4995
 4058TIP3    H133589   0.649   1.766   4.780  0.3829 -0.1813 -1.3219
 4058TIP3    H233590   0.557   1.861   4.854 -0.5501 -0.9953 -1.4277
 4059TIP3   OH233591   2.725   3.955   2.330 -0.1441 -0.0976  0.0993
 4059TIP3    H133592   2.693   4.045   2.322  1.0769  0.3767  0.3545
 4059TIP3    H233593   2.683   3.908   2.258 -1.5360  0.4533  0.5413
 4060TIP3   OH233594   6.628   1.863   0.396  0.6374  0.6706  0.2433
 4060TIP3    H133595   6.635   1.818   0.312  1.4024  0.6014  0.3410
 4060TIP3    H233596   6.585   1.946   0.376  0.0571  0.2973 -0.0836
 4061TIP3   OH233597   1.025   2.178   3.671  0.1747  0.2621  0.5300
 4061TIP3    H133598   0.935   2.166   3.643  0.5797 -1.1015 -0.2551
 4061TIP3    H233599   1.073   2.106   3.629  1.6433  1.0521  0.8234
 4062TIP3   OH233600   6.314   3.618   5.036 -0.1739 -0.2404  0.1136
 4062TIP3    H133601   6.303   3.596   4.943 -3.9369  2.1263 -0.0811
 4062TIP3    H233602   6.251   3.563   5.081  0.2084  0.1044  1.0801
 4063TIP3   OH233603   2.600   0.126   5.479  0.3020  0.3593 -0.3413
 4063TIP3    H133604   2.596   0.214   5.516  2.0188  0.5820 -0.6049
 4063TIP3    H233605   2.675   0.085   5.523 -0.8292 -1.1685  0.1840
 4064TIP3   OH233606   5.503   1.392   2.640 -0.0546  0.7900  0.5783
 4064TIP3    H133607   5.596   1.371   2.638 -0.5792 -1.8263  1.2158
 4064TIP3    H233608   5.460   1.317   2.600 -1.7200  3.4569 -2.9257
 4065TIP3   OH233609   0.236   2.905  11.897  0.4836  0.1487 -0.4046
 4065TIP3    H133610   0.221   2.814  11.873  0.4694  0.2206 -0.6743
 4065TIP3    H233611   0.153   2.949  11.881  0.0077 -0.1176  1.3033
 4066TIP3   OH233612   0.973   5.783  13.128  0.0736  0.3188 -0.1792
 4066TIP3    H133613   0.971   5.774  13.223  1.4086  1.4902 -0.0247
 4066TIP3    H233614   0.969   5.693  13.095  0.1063 -0.1183  0.9945
 4067TIP3   OH233615   1.149   3.929   4.651 -0.2594  0.1049  0.2614
 4067TIP3    H133616   1.145   3.951   4.744  1.4800 -0.6503  0.5245
 4067TIP3    H233617   1.072   3.873   4.637 -0.7304  0.5154  1.1522
 4068TIP3   OH233618   4.952   5.228  15.803 -0.1949 -0.2738  0.3940
 4068TIP3    H133619   5.042   5.206  15.826 -0.6595 -0.1465  2.4440
 4068TIP3    H233620   4.898   5.167  15.853 -1.2521 -0.5856 -1.0824
 4069TIP3   OH233621   4.517   5.040  14.698  0.0312  0.9007  1.0032
 4069TIP3    H133622   4.438   5.094  14.706 -0.2706  0.5682  0.3099
 4069TIP3    H233623   4.589   5.102  14.704 -0.2733  1.1444  2.1704
 4070TIP3   OH233624   1.634   5.640   4.965 -0.1467 -0.4870 -0.0637
 4070TIP3    H133625   1.599   5.702   4.902  0.1625 -0.6319 -0.3755
 4070TIP3    H233626   1.578   5.651   5.043  0.2707  0.5894  0.0844
 4071TIP3   OH233627   1.372   2.000  12.572 -0.4117  0.3830  0.8809
 4071TIP3    H133628   1.328   1.915  12.567 -1.8563  1.1098  1.1140
 4071TIP3    H233629   1.357   2.039  12.486  0.2724  0.4168  0.7665
 4072TIP3   OH233630   1.628   4.481  11.363 -0.0419  0.1462  0.7848
 4072TIP3    H133631   1.686   4.431  11.422 -0.4643  0.9011  1.8414
 4072TIP3    H233632   1.661   4.460  11.275  1.7642  0.4693  1.3637
 4073TIP3   OH233633   3.938   3.876   4.814 -0.0793 -0.4524  0.5842
 4073TIP3    H133634   3.911   3.816   4.744 -2.5515  1.1065  0.1312
 4073TIP3    H233635   3.909   3.833   4.894  1.4400 -1.5445  0.5806
 4074TIP3   OH233636   5.812   6.151  11.312 -0.1260 -0.5140 -0.0411
 4074TIP3    H133637   5.732   6.098  11.311  0.8078 -2.0898  2.4402
 4074TIP3    H233638   5.783   6.236  11.344 -0.9175 -0.9151  0.3431
 4075TIP3   OH233639   2.750   3.413   2.850 -0.5204  0.0090 -0.0026
 4075TIP3    H133640   2.732   3.321   2.831 -0.9222 -0.0746  0.7487
 4075TIP3    H233641   2.756   3.455   2.764  3.5471 -1.4153 -0.4985
 4076TIP3   OH233642   1.817   6.668  14.034  0.1205 -0.3033 -0.3977
 4076TIP3    H133643   1.793   6.759  14.015 -1.9213 -0.2850  2.0340
 4076TIP3    H233644   1.734   6.620  14.029  1.3183 -2.2494 -2.5559
 4077TIP3   OH233645   3.948   0.905   4.163  0.5717  0.5103  0.4657
 4077TIP3    H133646   4.012   0.854   4.114  0.8076 -1.0183  2.3300
 4077TIP3    H233647   3.949   0.868   4.251 -2.4369  0.8457  0.7006
 4078TIP3   OH233648   5.077   1.055  10.678 -0.2627  0.0980  0.3814
 4078TIP3    H133649   5.011   1.123  10.665  1.0353  1.2610 -0.2420
 4078TIP3    H233650   5.036   0.993  10.739 -2.2863  0.3007 -0.7042
 4079TIP3   OH233651   3.229   1.334   4.174  0.1378  0.2649  0.0278
 4079TIP3    H133652   3.148   1.356   4.128  0.2771 -1.0010 -0.8499
 4079TIP3    H233653   3.200   1.290   4.254 -0.0498  0.7684  0.2448
 4080TIP3   OH233654   4.918   6.759  15.856  0.4651  0.0876 -0.5175
 4080TIP3    H133655   4.857   6.828  15.881 -0.8284 -1.5786  1.0770
 4080TIP3    H233656   4.877   6.717  15.781  1.4137  1.2419 -1.6965
 4081TIP3   OH233657   1.984   2.388   2.391  0.1846  0.0434 -0.2673
 4081TIP3    H133658   1.951   2.475   2.412 -0.5761 -0.6643  1.5367
 4081TIP3    H233659   2.043   2.366   2.462 -1.7897 -2.0435  0.8143
 4082TIP3   OH233660   4.414   2.770   1.753  0.0743  0.4200 -0.2471
 4082TIP3    H133661   4.428   2.735   1.841  0.8129 -0.2253 -0.6197
 4082TIP3    H233662   4.497   2.809   1.728 -0.2222  0.8746 -0.5459
 4083TIP3   OH233663   4.632   3.559  11.801 -0.1799  0.4329  0.9743
 4083TIP3    H133664   4.720   3.524  11.793 -0.2894  0.3740 -0.1583
 4083TIP3    H233665   4.580   3.507  11.739 -0.4093  2.3669 -0.5070
 4084TIP3   OH233666   3.216   2.212  13.542  0.4015 -1.1450 -0.5787
 4084TIP3    H133667   3.236   2.231  13.634 -0.1823 -0.9343 -0.4975
 4084TIP3    H233668   3.127   2.244  13.529  0.6243 -0.8050 -1.3258
 4085TIP3   OH233669   1.154   3.529   0.930  0.2496  0.0795  0.2396
 4085TIP3    H133670   1.238   3.484   0.935 -0.5524 -1.5399 -0.2397
 4085TIP3    H233671   1.148   3.580   1.011  2.0227  0.8419 -0.1008
 4086TIP3   OH233672   1.574   5.988   4.808 -0.1888  0.4624 -0.6003
 4086TIP3    H133673   1.532   6.015   4.726 -0.5657  0.8461 -0.2864
 4086TIP3    H233674   1.649   6.047   4.817  0.1820  0.0469 -0.9549
 4087TIP3   OH233675   6.397   0.770   1.230 -0.0389  0.2228  0.2427
 4087TIP3    H133676   6.478   0.819   1.221 -0.1681  0.5260  0.7202
 4087TIP3    H233677   6.328   0.836   1.220 -0.2226  0.0175  0.1497
 4088TIP3   OH233678   2.826   6.170  11.897  0.4598 -0.2272  0.2707
 4088TIP3    H133679   2.884   6.131  11.962  0.0581 -0.3376  0.5635
 4088TIP3    H233680   2.885   6.218  11.839  0.6195  1.8076  2.0521
 4089TIP3   OH233681   3.343   6.681   3.332  0.4094  0.1360  0.1270
 4089TIP3    H133682   3.312   6.761   3.289 -1.2042 -0.3900  0.2634
 4089TIP3    H233683   3.393   6.635   3.265  0.0649  0.5446 -0.4084
 4090TIP3   OH233684   0.264   5.431  12.732  0.7411  0.8126  0.0184
 4090TIP3    H133685   0.258   5.441  12.637  2.2201  3.0227  0.1188
 4090TIP3    H233686   0.206   5.499  12.767 -0.1212 -0.2634  0.7101
 4091TIP3   OH233687   2.719   4.359  11.750 -0.2199  0.4795  0.0058
 4091TIP3    H133688   2.726   4.441  11.701  0.2210  0.4745  0.0653
 4091TIP3    H233689   2.625   4.350  11.768 -0.2183  1.2071  0.3978
 4092TIP3   OH233690   0.587   4.688   3.349  0.5601  0.6805  0.0996
 4092TIP3    H133691   0.650   4.616   3.340  1.3973  1.7147 -3.3899
 4092TIP3    H233692   0.641   4.765   3.366  0.1818  1.3776 -1.7402
 4093TIP3   OH233693   5.620   1.940   2.227  1.1748 -0.0562 -0.0694
 4093TIP3    H133694   5.599   1.864   2.173  0.4341  1.1721 -1.5615
 4093TIP3    H233695   5.670   1.998   2.169  0.1940  1.3861  0.4880
 4094TIP3   OH233696   1.621   5.986  10.571  0.4526 -0.1441 -0.3329
 4094TIP3    H133697   1.551   6.006  10.508  1.0228  1.5931 -0.4417
 4094TIP3    H233698   1.607   6.049  10.642  0.8099 -1.0099  0.4968
 4095TIP3   OH233699   2.652   3.493  12.397  0.7324  0.3858  0.2375
 4095TIP3    H133700   2.611   3.526  12.477  1.3990  1.7861  0.0178
 4095TIP3    H233701   2.735   3.455  12.426  0.5017 -0.0288  0.3475
 4096TIP3   OH233702   3.347   3.117   0.638  0.5195  0.2405 -0.1447
 4096TIP3    H133703   3.273   3.124   0.698  0.3857  0.4119 -0.3277
 4096TIP3    H233704   3.308   3.100   0.552  0.7589 -0.9159 -0.0233
 4097TIP3   OH233705   4.832   5.025   2.965  0.4504  0.1231  0.2186
 4097TIP3    H133706   4.814   4.994   2.876  0.0525  0.3064  0.2311
 4097TIP3    H233707   4.747   5.054   2.997  0.5637 -0.1198  0.7309
 4098TIP3   OH233708   5.169   1.864  14.633 -0.2816 -0.1103  0.4150
 4098TIP3    H133709   5.261   1.839  14.641 -0.0069  0.8984  0.4977
 4098TIP3    H233710   5.164   1.951  14.672 -0.9511  0.5233 -1.0131
 4099TIP3   OH233711   0.393   0.143   4.813  0.1854  0.2139  0.3679
 4099TIP3    H133712   0.403   0.142   4.718 -0.1506 -1.0380  0.3325
 4099TIP3    H233713   0.366   0.232   4.834  1.1714  0.7526 -0.6123
 4100TIP3   OH233714   1.846   3.981  15.971  0.1523 -0.2549  0.0804
 4100TIP3    H133715   1.768   4.015  16.017  1.0571  1.2038  0.5705
 4100TIP3    H233716   1.840   4.020  15.884 -0.1006 -0.8176 -0.1570
 4101TIP3   OH233717   5.802   0.067   2.781  0.0325  0.3183 -0.1231
 4101TIP3    H133718   5.738   0.126   2.821  0.0255  0.2369 -0.0141
 4101TIP3    H233719   5.785   0.074   2.687 -1.3968 -1.1202 -0.0025
 4102TIP3   OH233720   1.734   1.084   0.686 -0.0373 -0.2139 -0.2185
 4102TIP3    H133721   1.712   1.078   0.593  0.4806 -1.2074 -0.2863
 4102TIP3    H233722   1.702   1.002   0.724  0.1081  0.0104  0.4091
 4103TIP3   OH233723   0.579   5.141   1.191  0.2400 -0.0786 -0.3075
 4103TIP3    H133724   0.618   5.133   1.278 -1.2108 -1.5122  0.2292
 4103TIP3    H233725   0.653   5.128   1.131  1.4859  2.1565  0.6746
 4104TIP3   OH233726   4.978   1.128  13.196 -0.2885  0.0354  0.1145
 4104TIP3    H133727   4.900   1.104  13.146 -1.4977  2.2805  0.8733
 4104TIP3    H233728   4.956   1.108  13.287  0.5696 -0.6733  0.1750
 4105TIP3   OH233729   6.045   2.789  15.388  0.0263 -0.2509  0.2981
 4105TIP3    H133730   5.969   2.774  15.331  0.7902 -0.1426 -0.7598
 4105TIP3    H233731   6.104   2.843  15.335  0.4193  0.4842  1.4720
 4106TIP3   OH233732   2.567   6.723   0.800 -0.2508  0.2138  0.2810
 4106TIP3    H133733   2.555   6.720   0.895 -0.9290  0.2400  0.2029
 4106TIP3    H233734   2.485   6.760   0.768 -1.2817 -2.6675 -0.5487
 4107TIP3   OH233735   6.590   0.675  12.598  0.5978 -0.4133  0.1015
 4107TIP3    H133736   6.591   0.580  12.607 -0.0387 -0.5291 -0.9968
 4107TIP3    H233737   6.539   0.692  12.519 -2.8990  1.0010  2.4848
 4108TIP3   OH233738   1.432   6.058   5.531 -0.3347  0.7645  0.3070
 4108TIP3    H133739   1.437   6.134   5.473  0.4113  1.8088  1.7088
 4108TIP3    H233740   1.474   6.087   5.612 -1.4474 -0.6452  1.4094
 4109TIP3   OH233741   1.640   6.185  15.160 -0.4505  0.3713  0.5921
 4109TIP3    H133742   1.545   6.192  15.145 -0.1674  1.6315 -0.7599
 4109TIP3    H233743   1.654   6.093  15.184 -1.6337 -0.5651 -2.1142
 4110TIP3   OH233744   5.635   5.604  14.744  0.6160 -0.5428 -0.9509
 4110TIP3    H133745   5.706   5.551  14.780  0.9761  0.0897 -0.7234
 4110TIP3    H233746   5.653   5.608  14.650  0.0324 -1.6533 -1.1225
 4111TIP3   OH233747   5.323   2.631   4.662  0.1436 -0.2532 -0.1352
 4111TIP3    H133748   5.362   2.544   4.673 -0.7067 -0.6270 -0.0301
 4111TIP3    H233749   5.300   2.658   4.751 -0.5407 -0.3679 -0.2745
 4112TIP3   OH233750   0.184   6.429  10.498 -0.5206  0.2120 -0.2481
 4112TIP3    H133751   0.147   6.401  10.582  2.2980  0.9029  1.2882
 4112TIP3    H233752   0.155   6.520  10.487  0.9585  0.8688  1.1232
 4113TIP3   OH233753   2.787   3.758  15.454 -0.3680  0.0762  0.4868
 4113TIP3    H133754   2.870   3.712  15.465  0.3943  0.1021 -4.0146
 4113TIP3    H233755   2.732   3.697  15.405 -2.1315  1.0109  1.2632
 4114TIP3   OH233756   5.076   6.581  14.374 -0.5338  0.3015  0.2732
 4114TIP3    H133757   5.068   6.651  14.310  0.0183 -0.3594 -0.5399
 4114TIP3    H233758   5.085   6.625  14.458  0.1608  1.2071 -0.2764
 4115TIP3   OH233759   0.487   3.531  16.524  0.4686 -0.0862  0.4899
 4115TIP3    H133760   0.545   3.578  16.465 -0.2109  0.7543  0.4915
 4115TIP3    H233761   0.399   3.559  16.500  0.1585 -0.0519  1.6044
 4116TIP3   OH233762   5.177   0.441  13.682 -0.0934  0.3634  0.3061
 4116TIP3    H133763   5.237   0.469  13.613 -0.7813  0.9789 -0.0442
 4116TIP3    H233764   5.210   0.483  13.761  1.3706 -1.2512  0.5912
 4117TIP3   OH233765   5.738   6.639   3.306 -0.1979  0.3921 -0.0564
 4117TIP3    H133766   5.793   6.595   3.241 -0.5351 -1.3452  0.8033
 4117TIP3    H233767   5.798   6.660   3.377 -0.3024  0.0326  0.1418
 4118TIP3   OH233768   3.074   3.967  10.708  0.0616 -0.5323  0.3106
 4118TIP3    H133769   3.048   4.053  10.677  1.8490 -0.4469 -1.0462
 4118TIP3    H233770   3.074   3.911  10.630  0.2515 -1.4113  0.9247
 4119TIP3   OH233771   6.385   0.971  16.135  0.9067 -0.3885 -0.6078
 4119TIP3    H133772   6.342   1.038  16.187  2.0252  0.9494 -1.3982
 4119TIP3    H233773   6.349   0.888  16.169 -0.0069  0.5572  0.7821
 4120TIP3   OH233774   2.642   5.696   4.861  0.1807  0.3282 -0.8018
 4120TIP3    H133775   2.670   5.750   4.935 -0.5296 -0.1192 -0.1882
 4120TIP3    H233776   2.716   5.639   4.843  0.6406  0.9637 -0.9352
 4121TIP3   OH233777   5.512   6.284  14.242 -0.4107  0.5628 -0.1956
 4121TIP3    H133778   5.551   6.207  14.283  0.5037  1.3839  0.5177
 4121TIP3    H233779   5.502   6.260  14.150  0.2841 -0.2390 -0.0719
 4122TIP3   OH233780   4.346   0.855  11.046 -0.5517  0.1403  0.4195
 4122TIP3    H133781   4.312   0.905  10.972 -2.2234 -0.2049  0.9499
 4122TIP3    H233782   4.270   0.811  11.083  0.7080 -1.9001  0.6590
 4123TIP3   OH233783   4.009   4.228   1.867  0.3761 -1.0337  0.1113
 4123TIP3    H133784   4.081   4.192   1.815  0.8645 -0.8014  0.6249
 4123TIP3    H233785   4.002   4.319   1.840  1.2717 -0.6490  1.1462
 4124TIP3   OH233786   0.928   3.875  12.241 -0.1558  0.7038 -0.1204
 4124TIP3    H133787   0.884   3.790  12.244 -1.2470  1.2664  0.1799
 4124TIP3    H233788   1.014   3.859  12.278  0.0753 -0.5279 -1.1469
 4125TIP3   OH233789   0.067   1.009  17.206  0.2502 -0.7295  0.2267
 4125TIP3    H133790   0.041   0.989  17.116 -0.8690  0.5399  0.2623
 4125TIP3    H233791   0.061   0.925  17.252 -0.2088 -1.1660 -0.6220
 4126TIP3   OH233792   5.003   3.556  15.258 -0.0245  0.2441  0.9106
 4126TIP3    H133793   5.075   3.619  15.269  1.0472 -0.8869  0.4863
 4126TIP3    H233794   5.046   3.475  15.232 -1.5382 -0.2285 -0.1679
 4127TIP3   OH233795   5.250   4.167  13.989 -0.2177  0.4283 -0.2782
 4127TIP3    H133796   5.211   4.182  13.903 -0.1506  0.6320 -0.2733
 4127TIP3    H233797   5.275   4.254  14.019 -0.3342  0.3686 -0.0075
 4128TIP3   OH233798   0.239   6.360  12.528 -0.3855 -0.3451 -0.0104
 4128TIP3    H133799   0.149   6.379  12.554 -0.2436  0.0263  0.2201
 4128TIP3    H233800   0.283   6.335  12.610  0.1665  1.2268  0.1829
 4129TIP3   OH233801   2.263   0.902   5.901 -0.4783 -0.7180 -0.4009
 4129TIP3    H133802   2.171   0.900   5.931 -1.2099  0.6153 -2.4900
 4129TIP3    H233803   2.308   0.953   5.968 -1.9042  1.3842 -0.9967
 4130TIP3   OH233804   1.160   5.307  14.296  0.1262 -0.5022  0.1305
 4130TIP3    H133805   1.178   5.226  14.248  0.9203  0.5874 -1.4499
 4130TIP3    H233806   1.226   5.310  14.364 -0.0319 -1.2738  0.3253
 4131TIP3   OH233807   4.224   3.588  14.301  0.3470 -0.8295 -0.0845
 4131TIP3    H133808   4.147   3.614  14.251 -0.4560 -2.9551  0.0216
 4131TIP3    H233809   4.209   3.624  14.389 -0.9406 -1.9601  0.1709
 4132TIP3   OH233810   2.271   2.113  12.970 -0.5372 -0.4133 -0.0067
 4132TIP3    H133811   2.192   2.167  12.973 -0.6260 -0.6007  0.9770
 4132TIP3    H233812   2.331   2.161  12.914 -0.5166  0.8203  1.0710
 4133TIP3   OH233813   5.802   5.987  16.474 -0.2050  0.4540  0.4268
 4133TIP3    H133814   5.778   5.998  16.382  0.7800  1.2870  0.2575
 4133TIP3    H233815   5.878   6.043  16.485 -1.6275  2.0604  2.3107
 4134TIP3   OH233816   4.854   0.661  11.001 -0.0279 -0.0579 -0.4743
 4134TIP3    H133817   4.933   0.645  10.950  0.1387 -1.1249  0.1000
 4134TIP3    H233818   4.785   0.612  10.956  0.1025 -0.9304  0.2728
 4135TIP3   OH233819   1.532   1.335  16.794 -0.0936  0.2681 -0.2590
 4135TIP3    H133820   1.479   1.345  16.715 -0.4191  1.0868  0.0553
 4135TIP3    H233821   1.469   1.336  16.866  0.2856  0.6105  0.0775
 4136TIP3   OH233822   5.254   1.869   5.023  0.5466  0.0309 -0.5629
 4136TIP3    H133823   5.285   1.806   4.958  0.0097  0.1024 -0.8960
 4136TIP3    H233824   5.166   1.893   4.993  0.2676  0.0085  0.2360
 4137TIP3   OH233825   5.933   5.066   5.002 -0.1092  0.3825  0.0683
 4137TIP3    H133826   5.977   5.008   5.064 -1.4994 -3.1101 -2.0369
 4137TIP3    H233827   6.000   5.091   4.940  0.2149 -0.0420  0.2479
 4138TIP3   OH233828   4.797   1.112   0.170 -0.2618 -0.8038 -0.6302
 4138TIP3    H133829   4.849   1.034   0.189  1.2983  0.4689  0.4768
 4138TIP3    H233830   4.756   1.135   0.253 -1.5364 -1.0212 -1.1882
 4139TIP3   OH233831   5.013   4.093   1.302 -0.4535  0.2164  0.2654
 4139TIP3    H133832   4.934   4.130   1.341 -0.6841 -0.0476  0.0529
 4139TIP3    H233833   5.059   4.053   1.376  0.5847  2.2816  0.7610
 4140TIP3   OH233834   2.326   3.280   2.628  0.0629  0.3785  0.5777
 4140TIP3    H133835   2.377   3.339   2.683  0.6134  0.3732  0.0760
 4140TIP3    H233836   2.262   3.336   2.584 -0.2013  0.4210  1.0082
 4141TIP3   OH233837   0.252   6.654  11.893  0.4507  0.3631  0.2631
 4141TIP3    H133838   0.340   6.687  11.912  1.2461 -2.4328  1.6817
 4141TIP3    H233839   0.267   6.571  11.848 -1.4873 -0.1195  0.4699
 4142TIP3   OH233840   5.461   1.455  14.599  0.4189 -0.3109 -0.7748
 4142TIP3    H133841   5.401   1.478  14.669 -0.4281 -1.2910 -1.1767
 4142TIP3    H233842   5.548   1.474  14.636  0.0522 -1.6808  0.8859
 4143TIP3   OH233843   5.860   6.780   1.438  0.1664  0.0902 -0.5064
 4143TIP3    H133844   5.876   6.845   1.506  0.0959 -0.3101 -0.1003
 4143TIP3    H233845   5.940   6.726   1.437 -0.4275 -0.8376  0.3185
 4144TIP3   OH233846   1.086   1.916   3.866  0.0663 -0.3620 -0.4745
 4144TIP3    H133847   1.023   1.959   3.808  1.0641  0.7192 -0.7516
 4144TIP3    H233848   1.044   1.919   3.953 -0.5390 -0.2105 -0.7688
 4145TIP3   OH233849   0.246   6.702  15.966 -1.0403 -0.6903  0.1663
 4145TIP3    H133850   0.160   6.692  15.925 -0.7513 -2.9279  0.0293
 4145TIP3    H233851   0.229   6.704  16.060 -1.1745 -2.2180  0.1866
 4146TIP3   OH233852   5.846   4.126   4.108 -1.0071  0.0629 -0.7188
 4146TIP3    H133853   5.837   4.034   4.084 -0.4056 -0.6925  1.7905
 4146TIP3    H233854   5.940   4.143   4.104 -1.0220  0.2844 -0.1997
 4147TIP3   OH233855   4.019   5.628   1.401  0.3021 -0.1095 -0.3097
 4147TIP3    H133856   3.990   5.717   1.422  0.4604 -0.1370  0.0321
 4147TIP3    H233857   4.081   5.639   1.329 -0.3193 -0.0227 -0.8373
 4148TIP3   OH233858   6.700   1.452  11.600 -0.5237  0.3293 -0.2167
 4148TIP3    H133859   6.772   1.511  11.576 -0.7930  1.1747  0.9732
 4148TIP3    H233860   6.683   1.401  11.521  1.0620  0.4525 -0.6583
 4149TIP3   OH233861   3.904   5.803   3.336 -0.0880  0.2653  0.0240
 4149TIP3    H133862   3.919   5.857   3.258 -0.2872 -2.0259 -1.6656
 4149TIP3    H233863   3.976   5.825   3.394  1.8041 -0.1912 -2.0879
 4150TIP3   OH233864   0.157   1.133  12.724 -0.4378 -0.1226  0.2584
 4150TIP3    H133865   0.203   1.055  12.693  1.1735  0.5872  0.7872
 4150TIP3    H233866   0.137   1.182  12.644 -1.5496 -1.1056 -0.0867
 4151TIP3   OH233867   1.106   0.282   1.476 -0.5450  0.7529 -0.0011
 4151TIP3    H133868   1.126   0.189   1.467  1.0584  0.8500  2.3510
 4151TIP3    H233869   1.014   0.285   1.503 -0.6331 -0.1273 -0.2098
 4152TIP3   OH233870   2.881   3.593  14.536 -0.1066 -0.1314  0.2668
 4152TIP3    H133871   2.888   3.634  14.622 -1.8048 -1.8426  1.2775
 4152TIP3    H233872   2.807   3.636  14.495  1.4739  1.5571 -0.8793
 4153TIP3   OH233873   5.047   5.708  14.890 -0.2614 -0.1705  0.3486
 4153TIP3    H133874   5.056   5.777  14.955  0.1588  0.6305 -0.5439
 4153TIP3    H233875   4.954   5.704  14.871 -0.1099  1.3133 -0.8110
 4154TIP3   OH233876   1.828   4.211   3.865  0.2009 -0.2038  0.0004
 4154TIP3    H133877   1.819   4.277   3.795 -2.8123 -0.7972 -0.2656
 4154TIP3    H233878   1.856   4.132   3.819 -2.9319 -0.9136 -0.7915
 4155TIP3   OH233879   2.867   6.428  10.992  0.2396 -0.4218  0.0014
 4155TIP3    H133880   2.819   6.376  10.927  0.8404  1.3372 -1.9225
 4155TIP3    H233881   2.804   6.493  11.022  0.1414 -0.8527  0.7256
 4156TIP3   OH233882   6.458   3.822   3.888  0.0693  0.3195 -0.7806
 4156TIP3    H133883   6.493   3.768   3.817  1.9868  0.8544 -0.2919
 4156TIP3    H233884   6.523   3.891   3.899  0.3813 -0.3887  2.2392
 4157TIP3   OH233885   1.924   0.928  12.814 -0.4318 -0.0590 -0.3709
 4157TIP3    H133886   1.954   0.887  12.733  0.6440 -0.4603  0.2189
 4157TIP3    H233887   1.893   0.855  12.868 -1.4475  0.2393 -0.5408
 4158TIP3   OH233888   5.660   3.527   2.975  0.8121 -0.0855  0.4629
 4158TIP3    H133889   5.729   3.488   3.027  0.4469 -0.8431  0.3828
 4158TIP3    H233890   5.693   3.614   2.953  0.8846  0.3406  2.1493
 4159TIP3   OH233891   2.687   4.831  16.235 -0.7171 -0.4334 -0.1573
 4159TIP3    H133892   2.661   4.827  16.327  0.9975 -0.6311  0.3375
 4159TIP3    H233893   2.783   4.830  16.237 -0.6540  0.0952 -1.9211
 4160TIP3   OH233894   2.997   0.298  11.954 -0.3072  0.0792 -0.3526
 4160TIP3    H133895   2.931   0.366  11.945  0.8064  1.4109  1.1912
 4160TIP3    H233896   3.056   0.312  11.880 -0.6038  0.1906 -0.5677
 4161TIP3   OH233897   2.355   5.364  16.947  0.4353 -0.0629  0.4152
 4161TIP3    H133898   2.379   5.294  16.887 -0.0285 -0.7854  1.0726
 4161TIP3    H233899   2.397   5.442  16.910  2.1258 -0.9362  0.4668
 4162TIP3   OH233900   4.169   1.929  16.479 -0.4939 -0.2109  0.1208
 4162TIP3    H133901   4.083   1.925  16.521 -0.7041 -0.7329 -0.3554
 4162TIP3    H233902   4.150   1.921  16.386 -0.2548  3.5401 -0.3463
 4163TIP3   OH233903   2.519   1.303  17.081 -0.0315  0.3893  0.3776
 4163TIP3    H133904   2.562   1.365  17.140  0.5392  0.3255  0.0255
 4163TIP3    H233905   2.538   1.217  17.117  2.2549  0.2027 -1.1444
 4164TIP3   OH233906   4.306   6.408  16.301 -0.0247 -0.5605  0.8249
 4164TIP3    H133907   4.354   6.488  16.323  0.8277 -0.5346 -0.9812
 4164TIP3    H233908   4.372   6.339  16.310  0.4793 -0.4939 -1.9171
 4165TIP3   OH233909   4.490   2.229  10.967  0.5397 -0.2539 -0.3202
 4165TIP3    H133910   4.567   2.179  10.994 -0.5447 -0.7089  2.0512
 4165TIP3    H233911   4.466   2.191  10.882  0.4525 -2.9741  0.8742
 4166TIP3   OH233912   0.053   5.428  13.451 -0.0409 -0.6772 -0.4453
 4166TIP3    H133913   0.127   5.478  13.416 -0.1502  0.2154  0.5747
 4166TIP3    H233914  -0.022   5.456  13.397 -0.5054  1.8452  1.4403
 4167TIP3   OH233915   5.680   2.816   1.088 -0.3335  0.0327 -0.2113
 4167TIP3    H133916   5.614   2.885   1.075 -0.5805 -0.4531 -1.6798
 4167TIP3    H233917   5.739   2.825   1.013  1.1186  0.2826  0.9578
 4168TIP3   OH233918   1.586   0.792  17.117  0.5125 -0.6186 -0.5815
 4168TIP3    H133919   1.653   0.814  17.052  1.4206 -1.7737 -0.0297
 4168TIP3    H233920   1.524   0.866  17.112  1.5641  0.2290 -1.4092
 4169TIP3   OH233921   5.608   2.311  15.373 -0.2393  0.1777 -0.3206
 4169TIP3    H133922   5.683   2.314  15.314 -0.5273 -0.5031 -0.7374
 4169TIP3    H233923   5.584   2.218  15.376 -0.2271  0.2054  0.8782
 4170TIP3   OH233924   5.014   3.598  14.936 -0.2065 -0.4388 -0.0451
 4170TIP3    H133925   4.943   3.544  14.971  1.2468 -3.5643 -1.7373
 4170TIP3    H233926   4.982   3.628  14.850  0.1469 -1.0990 -0.4113
 4171TIP3   OH233927   0.300   5.785   2.596 -0.3009  0.7469  0.6219
 4171TIP3    H133928   0.244   5.717   2.559  0.0475 -0.4677  2.2735
 4171TIP3    H233929   0.280   5.786   2.689  2.4073  0.2640  1.2681
 4172TIP3   OH233930   3.310   4.618   1.860  0.1710 -0.4842 -0.3531
 4172TIP3    H133931   3.394   4.657   1.838  0.4237  0.3791  1.9960
 4172TIP3    H233932   3.247   4.688   1.848  0.1869 -0.2846  0.6538
 4173TIP3   OH233933   5.499   4.937  14.184  0.2976 -0.0808 -0.4829
 4173TIP3    H133934   5.427   4.928  14.122  0.8354 -1.4443 -0.9227
 4173TIP3    H233935   5.458   4.929  14.270 -0.2679  0.5929 -0.6798
 4174TIP3   OH233936   4.731   1.369  15.444  0.1983  0.8877 -0.0809
 4174TIP3    H133937   4.683   1.383  15.526  0.8204  0.8050  0.3003
 4174TIP3    H233938   4.801   1.434  15.447  0.0609  1.0624 -0.6747
 4175TIP3   OH233939   4.916   0.719  12.532  0.4117 -0.3575 -0.0025
 4175TIP3    H133940   4.960   0.635  12.519  1.6756 -0.0824  2.2049
 4175TIP3    H233941   4.973   0.767  12.592 -0.8355  1.6730 -0.3896
 4176TIP3   OH233942   5.477   6.188   0.366 -0.1050  0.2748 -0.5009
 4176TIP3    H133943   5.506   6.177   0.275  0.0895 -0.9615 -0.2988
 4176TIP3    H233944   5.558   6.185   0.417 -0.3209 -0.2588 -0.1881
 4177TIP3   OH233945   4.683   5.338  14.127 -0.1494 -0.3480 -0.4347
 4177TIP3    H133946   4.629   5.265  14.096 -1.1580  0.2539 -0.1129
 4177TIP3    H233947   4.655   5.352  14.217 -2.2763  2.5113 -1.4445
 4178TIP3   OH233948   6.422   6.064   6.700 -0.6753  0.1324  0.1410
 4178TIP3    H133949   6.425   5.976   6.736 -1.8101 -0.9685 -2.3879
 4178TIP3    H233950   6.329   6.089   6.705 -1.0392 -0.4844 -3.0129
 4179TIP3   OH233951   2.414   3.672   0.707 -0.7102  0.0690  0.0058
 4179TIP3    H133952   2.475   3.610   0.667 -0.2196  0.2921  0.3875
 4179TIP3    H233953   2.329   3.629   0.705 -0.7819  0.2708 -1.6898
 4180TIP3   OH233954   0.814   4.357   1.939  0.3021  0.2464 -0.3448
 4180TIP3    H133955   0.774   4.417   2.003  0.5529  1.0572 -0.9318
 4180TIP3    H233956   0.741   4.303   1.908  0.3185 -0.6479  1.1717
 4181TIP3   OH233957   6.630   3.714   4.923  0.6746  0.2963 -0.1737
 4181TIP3    H133958   6.571   3.720   4.998  1.4446  0.0020  0.4549
 4181TIP3    H233959   6.589   3.769   4.856 -0.7164 -0.5134 -0.0118
 4182TIP3   OH233960   5.381   6.193   3.665  0.4361  0.3424  0.4060
 4182TIP3    H133961   5.405   6.219   3.576  2.0475 -0.3106  0.6397
 4182TIP3    H233962   5.285   6.196   3.666  0.3554 -0.9014 -1.7377
 4183TIP3   OH233963   5.354   1.629   3.478 -0.0265  0.4217  0.0566
 4183TIP3    H133964   5.434   1.582   3.500  0.7993  2.5188  1.7183
 4183TIP3    H233965   5.348   1.699   3.543 -2.6532  0.9611 -0.6783
 4184TIP3   OH233966   3.595   5.884   5.131 -0.0074 -0.4956 -0.3068
 4184TIP3    H133967   3.620   5.955   5.073  2.0641  0.2484  1.4198
 4184TIP3    H233968   3.672   5.827   5.134 -0.4842 -1.1025  0.7981
 4185TIP3   OH233969   1.547   2.023   5.710  0.0855  0.1597 -0.0415
 4185TIP3    H133970   1.503   1.999   5.792 -1.5406  1.9253 -0.3578
 4185TIP3    H233971   1.500   1.973   5.643 -1.0585  1.5933 -0.3145
 4186TIP3   OH233972   0.082   3.870   4.691 -0.1707 -0.0033  0.6118
 4186TIP3    H133973  -0.009   3.859   4.718 -0.0157  0.0020  1.1440
 4186TIP3    H233974   0.098   3.964   4.697  0.0233 -0.0612  1.0307
 4187TIP3   OH233975   1.359   3.472   2.319  0.2464 -0.2721  0.4028
 4187TIP3    H133976   1.324   3.464   2.407  0.4540  1.4491  0.6529
 4187TIP3    H233977   1.335   3.560   2.291  0.1807 -0.8007 -1.2636
 4188TIP3   OH233978   5.952   2.305   0.775  0.5213 -0.0693 -0.3553
 4188TIP3    H133979   5.980   2.220   0.809  1.7009  1.7707  3.6224
 4188TIP3    H233980   6.014   2.323   0.704  1.3480 -1.7637 -0.0992
 4189TIP3   OH233981   4.676   0.698  14.933  0.1049  0.4801 -0.0297
 4189TIP3    H133982   4.654   0.744  15.013 -0.2677  1.2664 -0.5751
 4189TIP3    H233983   4.770   0.681  14.939  0.3455  1.7613 -0.0489
 4190TIP3   OH233984   0.009   2.258  11.933  0.1807 -0.0532  0.8369
 4190TIP3    H133985   0.020   2.339  11.883  1.0715  0.7473  2.2966
 4190TIP3    H233986  -0.079   2.227  11.909 -0.2883  1.4928  0.4819
 4191TIP3   OH233987   5.533   2.196  12.429  0.3542  0.4707  0.2019
 4191TIP3    H133988   5.536   2.103  12.452 -0.8861 -0.4424 -3.0831
 4191TIP3    H233989   5.465   2.232  12.486  0.2863 -0.7941  0.9423
 4192TIP3   OH233990   3.831   2.269  11.444  0.6302  0.3609  0.0513
 4192TIP3    H133991   3.764   2.256  11.512 -1.5640  1.7800 -1.7817
 4192TIP3    H233992   3.893   2.330  11.484 -0.7235  1.3265  0.7533
 4193TIP3   OH233993   5.731   2.902  12.444  0.4131 -0.0037 -0.6835
 4193TIP3    H133994   5.793   2.860  12.383  0.5806 -0.3125 -0.3012
 4193TIP3    H233995   5.724   2.992  12.412  2.2456  0.4690  0.1690
 4194TIP3   OH233996   2.601   4.918   4.215  0.1483  0.4258 -0.4281
 4194TIP3    H133997   2.572   4.866   4.140  1.4420  2.0761 -2.1129
 4194TIP3    H233998   2.530   4.980   4.229  0.0333  0.3055 -0.4726
 4195TIP3   OH233999   2.353   1.712   1.501 -0.0420  0.3021 -0.8860
 4195TIP3    H134000   2.307   1.657   1.438 -0.6406  0.4187 -0.5555
 4195TIP3    H234001   2.304   1.700   1.583  1.0198 -0.2436 -0.3231
 4196TIP3   OH234002   6.659   3.223  16.044  0.0763 -0.5957 -0.2486
 4196TIP3    H134003   6.722   3.279  15.999  0.7390 -0.9720  0.1936
 4196TIP3    H234004   6.654   3.144  15.990 -0.4437 -0.3285 -0.5844
 4197TIP3   OH234005   5.289   0.152  11.190  0.1313  0.6301  0.7086
 4197TIP3    H134006   5.298   0.199  11.107 -2.5867  0.4610  0.2579
 4197TIP3    H234007   5.223   0.084  11.172  0.0027  0.1599  2.8083
 4198TIP3   OH234008   5.144   5.422  13.786 -0.2205  0.3437  0.6286
 4198TIP3    H134009   5.188   5.357  13.841  0.7972  0.5569  0.0820
 4198TIP3    H234010   5.061   5.381  13.762  0.2744 -0.6303  0.5521
 4199TIP3   OH234011   2.197   4.335  14.411  0.4220  0.4523  0.4037
 4199TIP3    H134012   2.131   4.265  14.404  0.0251  0.8167  0.5117
 4199TIP3    H234013   2.176   4.394  14.339 -1.7744  2.6163  2.7179
 4200TIP3   OH234014   0.187   4.431  12.536  0.1625 -0.4633 -0.6358
 4200TIP3    H134015   0.100   4.427  12.496  0.4933  1.8511 -1.6942
 4200TIP3    H234016   0.240   4.480  12.472  1.2762  1.4042  1.6566
 4201TIP3   OH234017   1.410   1.706   4.741 -0.2501  0.1286  0.1104
 4201TIP3    H134018   1.383   1.756   4.818 -1.0822 -0.7918  0.4167
 4201TIP3    H234019   1.477   1.761   4.700 -2.2980  2.2628 -0.4521
 4202TIP3   OH234020   1.391   6.557  15.049  0.1345 -0.3106 -0.2191
 4202TIP3    H134021   1.337   6.491  15.092  0.5794 -1.0968 -0.8597
 4202TIP3    H234022   1.384   6.634  15.106  0.2894 -1.1655  0.9791
 4203TIP3   OH234023   3.803   2.220   5.574  0.0270 -0.8725  0.2406
 4203TIP3    H134024   3.886   2.256   5.603 -1.0684 -0.1353  2.5828
 4203TIP3    H234025   3.737   2.275   5.616 -1.6486 -1.2787 -1.7783
 4204TIP3   OH234026   0.851   1.142  14.898 -0.5345 -0.3728  0.1697
 4204TIP3    H134027   0.840   1.167  14.990 -2.2467  0.7907 -0.3374
 4204TIP3    H234028   0.792   1.068  14.886 -1.8713  0.7818 -0.5036
 4205TIP3   OH234029   5.343   2.354  12.598 -0.6057  0.0741 -0.3954
 4205TIP3    H134030   5.269   2.313  12.553 -0.8957 -0.4232  0.5132
 4205TIP3    H234031   5.312   2.365  12.688 -0.1459  1.3204 -0.3807
 4206TIP3   OH234032   4.336   4.168   3.433  0.0362  0.4505  0.4874
 4206TIP3    H134033   4.369   4.225   3.364  2.1661  0.1680  1.2326
 4206TIP3    H234034   4.279   4.224   3.486  1.3080  1.6350  0.6327
 4207TIP3   OH234035   0.098   4.586   5.396  0.2246  0.0449 -0.1551
 4207TIP3    H134036   0.018   4.535   5.407 -0.6276  1.1682 -1.0443
 4207TIP3    H234037   0.128   4.603   5.486  0.0524 -1.2668  0.1643
 4208TIP3   OH234038   0.069   1.692  14.596 -0.0227 -0.1329 -0.1788
 4208TIP3    H134039   0.026   1.617  14.637  2.4185 -1.9146 -0.7348
 4208TIP3    H234040   0.124   1.654  14.527 -0.5767  2.3951 -2.1298
 4209TIP3   OH234041   2.361   4.515  14.950 -0.1225  0.5305 -0.1425
 4209TIP3    H134042   2.273   4.512  14.911 -0.0099  4.4015 -0.9149
 4209TIP3    H234043   2.346   4.535  15.042 -0.0510  0.5475 -0.1348
 4210TIP3   OH234044   0.471   6.062  10.963  0.1958 -0.1616 -0.1235
 4210TIP3    H134045   0.540   6.103  10.910 -1.0911  1.2442 -0.7748
 4210TIP3    H234046   0.437   5.992  10.908  0.7759 -0.5397 -0.0002
 4211TIP3   OH234047   0.175   0.062  16.379  0.7065  0.0813  0.2450
 4211TIP3    H134048   0.217   0.113  16.309  0.3497 -0.8109 -0.6385
 4211TIP3    H234049   0.245   0.042  16.440  0.7531  2.0531  0.8622
 4212TIP3   OH234050   2.432   5.513   3.760 -0.1322 -0.3587  0.5917
 4212TIP3    H134051   2.441   5.595   3.809 -0.8562 -0.2850  0.6049
 4212TIP3    H234052   2.508   5.510   3.703 -0.2013  0.4086  0.4660
 4213TIP3   OH234053   4.455   4.398  16.564  0.8254  0.0748 -0.1432
 4213TIP3    H134054   4.407   4.359  16.637  1.0899 -0.6973 -0.3678
 4213TIP3    H234055   4.423   4.487  16.558 -0.1854 -0.2754  0.0556
 4214TIP3   OH234056   0.625   4.767  14.004 -0.5443 -0.1197 -0.4584
 4214TIP3    H134057   0.664   4.683  14.027 -0.7783 -0.0956  0.0142
 4214TIP3    H234058   0.700   4.822  13.980 -0.2910 -0.0958  0.3830
 4215TIP3   OH234059   6.592   1.505  14.425 -0.3045  0.3662 -0.1003
 4215TIP3    H134060   6.575   1.411  14.422  2.7628 -0.2363  0.1410
 4215TIP3    H234061   6.507   1.543  14.448 -0.8953 -2.5840  3.0585
 4216TIP3   OH234062   3.454   2.742   3.694  0.1277 -0.4727  0.3706
 4216TIP3    H134063   3.434   2.759   3.602  0.0887 -0.6235  0.3517
 4216TIP3    H234064   3.409   2.812   3.741 -0.8496 -1.0834  0.3677
 4217TIP3   OH234065   1.217   2.077  16.261  0.0924  0.1544  0.2183
 4217TIP3    H134066   1.299   2.046  16.221  0.3834 -0.3708  1.2014
 4217TIP3    H234067   1.162   1.999  16.264 -0.5876  0.5814 -0.7513
 4218TIP3   OH234068   1.800   6.160   4.840  0.3817 -0.3266 -0.3397
 4218TIP3    H134069   1.875   6.143   4.782  0.0749  2.2548 -1.5420
 4218TIP3    H234070   1.836   6.154   4.928  2.0987  1.1239 -0.9085
 4219TIP3   OH234071   4.601   0.967  12.203  0.0135  0.0211 -0.0921
 4219TIP3    H134072   4.648   0.893  12.242 -0.8611 -0.9944 -0.9355
 4219TIP3    H234073   4.645   1.044  12.239  1.2452 -0.8974  0.4425
 4220TIP3   OH234074   0.217   1.215  11.160  0.4174  0.0208 -0.1253
 4220TIP3    H134075   0.265   1.133  11.165 -1.5820 -1.2100 -0.6533
 4220TIP3    H234076   0.148   1.199  11.096  0.5704  2.4234 -0.9342
 4221TIP3   OH234077   6.582   0.390  16.737 -0.0056 -0.6446  0.6209
 4221TIP3    H134078   6.615   0.306  16.770  1.0191 -0.7868 -0.7261
 4221TIP3    H234079   6.581   0.379  16.642 -0.2121  0.7502  0.4567
 4222TIP3   OH234080   3.059   3.543  15.841 -0.2279  0.7946 -0.4067
 4222TIP3    H134081   3.152   3.568  15.834  0.2824 -0.9446 -0.0312
 4222TIP3    H234082   3.060   3.461  15.890 -1.9375  0.4736 -0.8892
 4223TIP3   OH234083   1.640   4.322  12.119  0.3158  0.4533 -0.3223
 4223TIP3    H134084   1.677   4.360  12.039  0.8261 -0.3193 -0.4570
 4223TIP3    H234085   1.702   4.254  12.144 -1.5734 -1.6775 -1.1876
 4224TIP3   OH234086   0.505   1.575  13.285 -0.2851 -0.2182  0.0537
 4224TIP3    H134087   0.536   1.484  13.279  1.2754  0.3461 -1.0437
 4224TIP3    H234088   0.552   1.611  13.360 -0.8118 -0.2926  0.4151
 4225TIP3   OH234089   4.681   2.324   3.766 -0.1829  0.1614  0.3184
 4225TIP3    H134090   4.691   2.375   3.847 -0.4900 -0.2992  0.6513
 4225TIP3    H234091   4.770   2.294   3.746 -0.0984  0.3105  0.4625
 4226TIP3   OH234092   0.906   3.978  12.596  1.1080 -0.1885 -0.3672
 4226TIP3    H134093   0.998   3.956  12.585  1.0942  0.0577 -1.0029
 4226TIP3    H234094   0.884   3.947  12.684  1.9702  0.3540  0.0513
 4227TIP3   OH234095   1.925   5.231   1.112 -0.7095  0.1296 -0.0065
 4227TIP3    H134096   1.856   5.165   1.122  0.1058 -1.1360 -2.4122
 4227TIP3    H234097   2.004   5.190   1.147 -0.4407  0.2772 -0.4330
 4228TIP3   OH234098   0.335   5.499   3.905  0.3531  0.2597 -0.2373
 4228TIP3    H134099   0.246   5.466   3.919  0.0449  0.8242 -0.8318
 4228TIP3    H234100   0.391   5.440   3.956 -0.0250 -2.0351 -2.3913
 4229TIP3   OH234101   1.920   2.573   0.245  0.3361  0.6655  0.3973
 4229TIP3    H134102   1.948   2.496   0.195  1.4684  1.7956 -0.7505
 4229TIP3    H234103   1.967   2.646   0.205  0.2984  1.7800  2.3262
 4230TIP3   OH234104   4.770   3.524  13.964 -0.0776 -0.8014 -0.0023
 4230TIP3    H134105   4.756   3.489  13.876 -1.3012  0.3173 -0.2604
 4230TIP3    H234106   4.788   3.447  14.018 -1.7960 -1.7357 -0.7456
 4231TIP3   OH234107   1.765   5.166  11.415 -0.2556 -0.5249 -0.5522
 4231TIP3    H134108   1.759   5.201  11.504 -1.9676 -0.0284 -0.8436
 4231TIP3    H234109   1.703   5.093  11.414  0.7489 -1.3904 -0.9674
 4232TIP3   OH234110   0.399   2.475  15.444  0.4928 -0.5087  0.2934
 4232TIP3    H134111   0.356   2.542  15.390  0.6427 -0.4800  0.2087
 4232TIP3    H234112   0.403   2.398  15.388 -1.2647 -1.1261  1.0043
 4233TIP3   OH234113   5.233   1.997   2.606  0.1477 -0.6481  0.2200
 4233TIP3    H134114   5.255   2.078   2.561 -1.3011 -0.9683 -1.1360
 4233TIP3    H234115   5.201   2.025   2.692 -0.6751  0.2472 -0.3724
 4234TIP3   OH234116   1.414   4.628  15.253  0.3790 -0.0071 -0.1977
 4234TIP3    H134117   1.404   4.537  15.283 -1.3353  0.2179 -0.0558
 4234TIP3    H234118   1.406   4.680  15.333 -0.3423  0.3687 -0.5144
 4235TIP3   OH234119   4.207   2.308   4.263 -0.3274  0.0115 -0.1787
 4235TIP3    H134120   4.209   2.383   4.204 -0.3967  0.8005  0.8220
 4235TIP3    H234121   4.294   2.269   4.256  0.9393  2.3256  2.0470
 4236TIP3   OH234122   1.618   3.505   1.590 -0.1756  0.5838 -0.1936
 4236TIP3    H134123   1.640   3.535   1.678 -0.3294 -2.1962  0.8616
 4236TIP3    H234124   1.694   3.526   1.536  0.8396  0.2809  1.1171
 4237TIP3   OH234125   2.483   0.972  10.730 -0.3237 -0.2541  0.4096
 4237TIP3    H134126   2.440   1.040  10.678 -0.9938 -1.4369 -0.6032
 4237TIP3    H234127   2.550   0.936  10.671 -1.5489 -2.0767  0.0956
 4238TIP3   OH234128   3.764   4.487  11.975 -0.3823 -0.3018  0.4079
 4238TIP3    H134129   3.855   4.457  11.982  0.1265  0.7300 -1.4935
 4238TIP3    H234130   3.751   4.543  12.051  0.8501  0.2216  0.2472
 4239TIP3   OH234131   3.685   0.716   0.710 -0.6135 -0.2686 -0.0138
 4239TIP3    H134132   3.596   0.680   0.708 -1.4681  1.6699  1.3453
 4239TIP3    H234133   3.707   0.721   0.803  0.8102 -0.4409 -0.3235
 4240TIP3   OH234134   4.649   1.959  13.646  0.0172 -0.1091  0.1704
 4240TIP3    H134135   4.611   2.009  13.719  0.3394  0.7298 -0.2221
 4240TIP3    H234136   4.712   1.900  13.687  2.2987  2.3557  0.3496
 4241TIP3   OH234137   2.388   3.518  14.011  0.1481  0.3296  0.2977
 4241TIP3    H134138   2.406   3.593  13.955  0.8491 -1.1364 -1.4906
 4241TIP3    H234139   2.470   3.503  14.058  0.0522  0.5736  0.5488
 4242TIP3   OH234140   4.843   1.571   0.091  0.4321 -0.5063  0.3810
 4242TIP3    H134141   4.938   1.573   0.081  0.3711 -1.8416 -0.5663
 4242TIP3    H234142   4.813   1.652   0.050  1.1745  0.0754  0.9695
 4243TIP3   OH234143   5.224   3.789  13.042 -0.5664  0.0960 -0.0062
 4243TIP3    H134144   5.213   3.805  13.136 -0.5396 -1.6536  0.3126
 4243TIP3    H234145   5.156   3.841  13.001  0.5455  2.2768  0.8636
 4244TIP3   OH234146   3.248   5.117   2.159 -0.0187  0.3019  0.1548
 4244TIP3    H134147   3.312   5.165   2.212  0.5961  1.5857 -1.7045
 4244TIP3    H234148   3.299   5.046   2.120  0.3682  1.4391 -1.4824
 4245TIP3   OH234149   5.611   1.678   2.066 -0.7062 -0.1488 -0.4984
 4245TIP3    H134150   5.662   1.663   2.145 -1.1267  0.5017 -0.1018
 4245TIP3    H234151   5.632   1.603   2.009 -0.1880 -0.4661  0.1087
 4246TIP3   OH234152   3.696   2.899   4.581  0.1553 -0.3187  0.3045
 4246TIP3    H134153   3.708   2.989   4.551 -2.0579 -0.1576 -0.2035
 4246TIP3    H234154   3.645   2.858   4.511 -0.3495 -1.4672  1.3450
 4247TIP3   OH234155   0.297   2.174  15.551  0.4768  0.1451 -0.0622
 4247TIP3    H134156   0.252   2.219  15.479  0.6313 -0.9184 -0.8311
 4247TIP3    H234157   0.389   2.170  15.522  0.3373 -1.3302 -0.3515
 4248TIP3   OH234158   4.988   3.129  11.825  0.1664 -0.3456  0.1496
 4248TIP3    H134159   5.040   3.179  11.888  0.9059 -0.9458  0.0284
 4248TIP3    H234160   4.898   3.135  11.857  0.0145  2.3279 -0.7142
 4249TIP3   OH234161   6.525   0.780   2.850  0.1321  0.3994 -0.2391
 4249TIP3    H134162   6.477   0.859   2.876  1.5189  0.3703  2.6255
 4249TIP3    H234163   6.584   0.809   2.781  2.5810  2.5681  2.6531
 4250TIP3   OH234164   1.702   5.982  17.170  0.3447 -0.3461 -0.1611
 4250TIP3    H134165   1.743   6.049  17.115 -0.3543  0.6440  0.5090
 4250TIP3    H234166   1.775   5.943  17.219  0.6901  0.3416 -0.1228
 4251TIP3   OH234167   0.405   6.571  12.920 -0.1298 -0.2386 -0.2678
 4251TIP3    H134168   0.383   6.500  12.860 -2.5124 -0.8844  1.2863
 4251TIP3    H234169   0.374   6.541  13.006 -0.4723  2.3360  0.5619
 4252TIP3   OH234170   0.075   4.363   3.084  0.3377  0.0713  0.4758
 4252TIP3    H134171  -0.001   4.408   3.121 -1.7016 -2.8566  0.1040
 4252TIP3    H234172   0.102   4.302   3.152  1.7914  0.4460  0.2429
 4253TIP3   OH234173   1.081   0.809   0.690  0.0219  0.7189  0.1496
 4253TIP3    H134174   1.138   0.823   0.614 -1.1780 -1.0696 -1.1241
 4253TIP3    H234175   1.067   0.897   0.725 -0.4244  1.7686 -2.4808
 4254TIP3   OH234176   1.036   3.898  16.111 -0.3445 -0.1688 -0.5384
 4254TIP3    H134177   1.060   3.840  16.038 -0.5175  0.3609 -1.0268
 4254TIP3    H234178   0.955   3.940  16.081 -1.4230 -1.2917  0.7224
 4255TIP3   OH234179   4.969   0.439  15.374  0.6069  0.0580  0.6647
 4255TIP3    H134180   5.038   0.373  15.374 -0.0344 -0.6488 -1.0062
 4255TIP3    H234181   4.913   0.415  15.300  0.3700  2.4681  0.0217
 4256TIP3   OH234182   6.404   0.191  16.052 -0.5887  0.1844 -0.0516
 4256TIP3    H134183   6.315   0.213  16.079 -0.9289 -1.6280  0.4224
 4256TIP3    H234184   6.394   0.155  15.964 -0.4549 -0.7544  0.3033
 4257TIP3   OH234185   5.814   2.066   3.420 -0.2800  0.4911  0.3821
 4257TIP3    H134186   5.892   2.109   3.384 -2.1960  2.3873 -1.6892
 4257TIP3    H234187   5.810   1.982   3.375 -0.1441  0.9602 -0.5230
 4258TIP3   OH234188   1.577   0.747  11.416 -0.0709 -0.2099  0.3511
 4258TIP3    H134189   1.614   0.694  11.486  1.0487  0.4812  0.2919
 4258TIP3    H234190   1.492   0.707  11.398 -0.1196 -0.7386  1.7013
 4259TIP3   OH234191   1.372   4.439  14.879 -0.2532 -0.6149  0.0347
 4259TIP3    H134192   1.369   4.344  14.891 -0.6655 -0.6037  0.0071
 4259TIP3    H234193   1.399   4.451  14.788 -0.4523 -0.7054 -0.0355
 4260TIP3   OH234194   6.774   4.008  15.911 -0.4001 -0.1208 -0.3479
 4260TIP3    H134195   6.842   3.946  15.936  0.5938  1.2933  0.4802
 4260TIP3    H234196   6.693   3.970  15.946  0.5083  0.1599  2.1434
 4261TIP3   OH234197   4.317   1.886   5.526  0.0195 -0.0363  0.7171
 4261TIP3    H134198   4.265   1.910   5.603  0.3602  0.7975  0.6941
 4261TIP3    H234199   4.343   1.796   5.542  0.2471  0.1960  1.6754
 4262TIP3   OH234200   0.959   3.511  16.464 -0.3573  0.1820 -0.0100
 4262TIP3    H134201   0.936   3.505  16.556  0.0615  1.4880  0.1858
 4262TIP3    H234202   1.013   3.433  16.448 -1.5792 -0.7762  0.4915
 4263TIP3   OH234203   0.852   0.327  12.315  0.0400 -0.6094  0.1568
 4263TIP3    H134204   0.937   0.360  12.344  0.7412 -1.4793 -0.8948
 4263TIP3    H234205   0.854   0.234  12.337 -1.6158 -0.1670  2.3757
 4264TIP3   OH234206   4.798   0.365  13.719 -0.0061 -0.6688  0.3051
 4264TIP3    H134207   4.860   0.384  13.789  1.8898 -2.5859 -0.7834
 4264TIP3    H234208   4.785   0.270  13.723 -1.1794 -0.5723 -0.8783
 4265TIP3   OH234209   3.731   3.679  12.578  0.2590 -0.0005  0.0130
 4265TIP3    H134210   3.664   3.635  12.630 -0.2627 -0.1177 -0.7562
 4265TIP3    H234211   3.740   3.625  12.500 -0.3297  1.2075 -0.9114
 4266TIP3   OH234212   0.359   1.077   1.667 -0.2660 -0.4255  0.2042
 4266TIP3    H134213   0.336   1.170   1.663  0.4474 -0.2018  1.1828
 4266TIP3    H234214   0.394   1.064   1.755  0.4550 -1.4303 -0.2129
 4267TIP3   OH234215   0.981   4.804  15.241  0.2457 -0.1985 -0.5678
 4267TIP3    H134216   0.992   4.887  15.287 -1.1923 -0.1862 -0.2406
 4267TIP3    H234217   0.892   4.777  15.260  0.8363 -2.0560 -0.2935
 4268TIP3   OH234218   5.872   2.773  15.713  0.0788 -0.1023  0.4955
 4268TIP3    H134219   5.803   2.709  15.731 -1.0833  0.9742 -0.0130
 4268TIP3    H234220   5.946   2.721  15.683 -1.0902 -1.1511 -0.6183
 4269TIP3   OH234221   5.931   1.228   0.053 -0.7074  0.0396  0.2565
 4269TIP3    H134222   5.893   1.171   0.120  1.1071 -0.0531  1.2278
 4269TIP3    H234223   6.018   1.191   0.036 -1.3439 -0.2789 -2.5784
 4270TIP3   OH234224   1.698   3.022   4.557  0.0955  0.3009  0.3563
 4270TIP3    H134225   1.721   3.092   4.495 -1.3124 -0.3265 -0.8835
 4270TIP3    H234226   1.759   3.035   4.630  0.3370  2.3836 -0.1746
 4271TIP3   OH234227   4.666   0.027   5.423  0.1847  0.0997  0.1461
 4271TIP3    H134228   4.741  -0.030   5.408  0.3086  0.2753  0.0980
 4271TIP3    H234229   4.689   0.079   5.499  1.0535  1.7274 -1.1957
 4272TIP3   OH234230   1.310   3.163   1.315  0.7090 -0.2800 -0.3248
 4272TIP3    H134231   1.247   3.233   1.332 -0.3022 -1.0912 -0.6595
 4272TIP3    H234232   1.308   3.152   1.220  0.0505 -1.4813 -0.1929
 4273TIP3   OH234233   0.793   6.513  11.031 -0.4208 -0.4074 -0.7477
 4273TIP3    H134234   0.834   6.430  11.006  2.9976  0.6902  0.9353
 4273TIP3    H234235   0.843   6.580  10.983 -1.8815  0.8357 -0.5667
 4274TIP3   OH234236   5.630   1.608   4.896  0.3129  0.5962 -0.4379
 4274TIP3    H134237   5.691   1.633   4.827  2.9251  0.9495  1.8787
 4274TIP3    H234238   5.614   1.688   4.945 -0.8500  0.1865 -0.1223
 4275TIP3   OH234239   0.606   4.914  11.491 -0.4671 -0.1339  0.2829
 4275TIP3    H134240   0.665   4.838  11.490  0.1764  0.3627 -1.2112
 4275TIP3    H234241   0.611   4.947  11.581  0.6810 -0.7603  0.4569
 4276TIP3   OH234242   0.021   0.722  13.076 -0.2044  0.2508  0.0501
 4276TIP3    H134243   0.004   0.801  13.127  1.7929 -0.4399  1.8720
 4276TIP3    H234244   0.098   0.744  13.023  1.8674 -1.1585  2.3275
 4277TIP3   OH234245   0.260   3.195   3.198  0.3881 -0.6042  0.9421
 4277TIP3    H134246   0.262   3.236   3.111 -2.1671 -0.6740  0.8118
 4277TIP3    H234247   0.298   3.109   3.185  1.4443 -0.0297  0.2067
 4278TIP3   OH234248   4.706   1.496  13.788 -0.2067  0.2406 -0.0429
 4278TIP3    H134249   4.761   1.500  13.710 -1.0029 -2.0088 -0.7635
 4278TIP3    H234250   4.756   1.444  13.851 -1.4623 -1.8808 -0.7288
 4279TIP3   OH234251   3.094   4.834  11.135 -0.6654 -0.3045  0.0362
 4279TIP3    H134252   3.124   4.924  11.125 -1.6115 -0.1713 -1.6911
 4279TIP3    H234253   2.999   4.841  11.147 -0.7008 -1.0560  0.2538
 4280TIP3   OH234254   3.628   5.136   2.190  0.9074  0.0187 -0.5350
 4280TIP3    H134255   3.621   5.042   2.206 -0.1248 -0.0241 -1.2098
 4280TIP3    H234256   3.688   5.167   2.258 -1.6561 -0.4885  2.0761
 4281TIP3   OH234257   1.367   4.291   2.268  0.1495 -0.0822 -0.4060
 4281TIP3    H134258   1.450   4.246   2.255 -0.7328 -1.8473 -0.0398
 4281TIP3    H234259   1.343   4.272   2.358 -0.7463  0.2678 -0.5637
 4282TIP3   OH234260   4.717   5.547   5.826  0.2055 -0.3450 -0.1878
 4282TIP3    H134261   4.704   5.515   5.737  1.0441 -0.5414 -0.2371
 4282TIP3    H234262   4.632   5.585   5.850 -0.4426 -1.5227 -0.5631
 4283TIP3   OH234263   2.812   5.769   6.201  0.1194  0.2313 -0.0336
 4283TIP3    H134264   2.887   5.734   6.250 -1.5555 -1.1903  1.6518
 4283TIP3    H234265   2.736   5.740   6.252 -1.5420  2.2803 -1.2882
 4284TIP3   OH234266   6.495   2.238  16.406  0.4095  0.5513 -0.0844
 4284TIP3    H134267   6.563   2.210  16.468  0.2583 -0.1008 -0.2129
 4284TIP3    H234268   6.492   2.168  16.340  0.0164  0.8585 -0.3925
 4285TIP3   OH234269   4.724   0.280  11.778  0.0954  0.7562 -0.3469
 4285TIP3    H134270   4.782   0.350  11.808  0.0057  0.5877  0.2245
 4285TIP3    H234271   4.702   0.231  11.857  2.7371 -1.8813 -1.1216
 4286TIP3   OH234272   5.123   4.596  14.222  0.0294 -0.1930  0.8659
 4286TIP3    H134273   5.085   4.543  14.152  1.2662  0.6808 -0.4813
 4286TIP3    H234274   5.094   4.552  14.303 -1.9082 -0.8565 -0.1477
 4287TIP3   OH234275   4.893   0.897   5.399 -0.0626 -0.1621 -0.1307
 4287TIP3    H134276   4.860   0.812   5.429 -0.1856 -0.4623 -1.1205
 4287TIP3    H234277   4.923   0.881   5.309  1.2101  0.5021  0.1570
 4288TIP3   OH234278   0.710   5.415  15.564 -0.5528  0.3557 -1.1566
 4288TIP3    H134279   0.797   5.453  15.558 -0.1912 -0.1765  0.3747
 4288TIP3    H234280   0.718   5.330  15.521  0.1618 -0.4377  0.4893
 4289TIP3   OH234281   2.434   6.368  17.157 -0.1766 -0.1133  0.2994
 4289TIP3    H134282   2.473   6.454  17.140 -0.0728  0.1007  1.5744
 4289TIP3    H234283   2.359   6.364  17.098  2.4344 -1.0398 -3.1310
 4290TIP3   OH234284   0.144   3.180  14.659 -0.7587 -0.4021 -0.0637
 4290TIP3    H134285   0.144   3.085  14.647 -1.6753 -0.5187  0.8105
 4290TIP3    H234286   0.177   3.194  14.747  0.5259  0.1655 -0.6196
 4291TIP3   OH234287   5.389   0.816  15.034  0.5224 -0.6097  0.7171
 4291TIP3    H134288   5.458   0.833  15.098  0.9126 -0.2244  0.2017
 4291TIP3    H234289   5.368   0.903  14.998  0.5583 -0.8672  0.0671
 4292TIP3   OH234290   2.168   1.525  14.440 -0.0046 -0.6969  0.0866
 4292TIP3    H134291   2.241   1.516  14.378  1.0269  1.2667  0.9610
 4292TIP3    H234292   2.140   1.616  14.431 -0.5504 -0.6854  1.7319
 4293TIP3   OH234293   1.178   0.471  16.522 -0.3144  0.8409  0.1313
 4293TIP3    H134294   1.262   0.506  16.553  0.1091  1.5977 -1.8312
 4293TIP3    H234295   1.186   0.470  16.427 -1.6060 -1.4346  0.0219
 4294TIP3   OH234296   4.434   2.635  16.120  0.1202  0.0078 -0.2886
 4294TIP3    H134297   4.354   2.593  16.152 -1.0090  0.8820 -1.8788
 4294TIP3    H234298   4.479   2.664  16.199 -2.4551  1.8883  0.5480
 4295TIP3   OH234299   0.980   0.524   1.759 -0.3464 -0.0200  0.0819
 4295TIP3    H134300   0.897   0.567   1.738  0.7762  2.3465  0.2789
 4295TIP3    H234301   1.023   0.512   1.675  0.3131  1.3677  0.1990
 4296TIP3   OH234302   0.728   4.819  13.013  0.1354  0.3813  0.8392
 4296TIP3    H134303   0.677   4.844  12.937 -0.1741  1.1927  1.3027
 4296TIP3    H234304   0.696   4.731  13.036 -0.4347  0.5284  0.6105
 4297TIP3   OH234305   4.243   0.905  15.496  0.2797  0.5411 -0.3141
 4297TIP3    H134306   4.295   0.860  15.430  0.0326  1.0020 -0.8273
 4297TIP3    H234307   4.160   0.925  15.452  0.8391  2.5701 -0.4964
 4298TIP3   OH234308   4.801   6.702  13.642  0.4711 -0.2459 -0.3347
 4298TIP3    H134309   4.748   6.759  13.586  0.9235 -0.3333 -0.8619
 4298TIP3    H234310   4.738   6.644  13.684 -0.0314  0.8894  0.5070
 4299TIP3   OH234311   0.275   4.115   5.033 -0.9713 -0.6232 -0.1041
 4299TIP3    H134312   0.302   4.204   5.011 -0.2306 -0.8312 -0.0763
 4299TIP3    H234313   0.185   4.123   5.063 -0.7923  0.1620  0.2216
 4300TIP3   OH234314   5.431   4.941   1.926 -0.4517  0.1848 -0.4857
 4300TIP3    H134315   5.420   4.864   1.871 -2.1277 -0.3556  0.5624
 4300TIP3    H234316   5.369   5.005   1.889 -0.3176  0.4233 -0.2965
 4301TIP3   OH234317   2.967   0.380  15.035  0.5099 -0.1475  0.8303
 4301TIP3    H134318   2.891   0.327  15.012  1.1326 -1.4210  1.6070
 4301TIP3    H234319   3.025   0.373  14.959  1.3954 -2.1452  1.6402
 4302TIP3   OH234320   3.803   5.363  11.641  0.9934  0.1118 -0.0538
 4302TIP3    H134321   3.755   5.368  11.724 -1.5630  1.0241 -1.5254
 4302TIP3    H234322   3.877   5.422  11.653 -0.2307  1.4792  1.0320
 4303TIP3   OH234323   6.225   1.715  14.941  0.3113 -0.0344  0.0710
 4303TIP3    H134324   6.172   1.759  14.874  0.9472  0.6313  0.0029
 4303TIP3    H234325   6.252   1.785  15.001  0.2798 -0.5268  0.6694
 4304TIP3   OH234326   1.474   4.151  12.292  0.1998 -0.3870 -0.2184
 4304TIP3    H134327   1.488   4.225  12.233  1.8862  0.4383  1.1525
 4304TIP3    H234328   1.476   4.074  12.235  0.4312  0.4904 -1.4107
 4305TIP3   OH234329   4.979   3.914   4.858 -0.0207  0.1267 -0.1064
 4305TIP3    H134330   5.038   3.975   4.902 -0.1997  0.2185  0.0070
 4305TIP3    H234331   4.896   3.924   4.904 -0.0966 -0.0780 -0.1984
 4306TIP3   OH234332   5.013   1.801   4.700 -0.7972 -0.4815 -0.2821
 4306TIP3    H134333   4.993   1.862   4.771 -1.0214 -0.8810 -0.0043
 4306TIP3    H234334   5.074   1.738   4.738  0.8020  0.5772 -1.0525
 4307TIP3   OH234335   2.082   5.188   6.081  0.1382 -0.1679  0.0413
 4307TIP3    H134336   2.078   5.230   5.995 -0.8099 -0.2365  0.0462
 4307TIP3    H234337   2.164   5.137   6.079  0.9821  1.1734 -0.1897
 4308TIP3   OH234338   5.821   4.226  13.038 -0.3347 -0.5153 -0.2409
 4308TIP3    H134339   5.879   4.299  13.021  1.0723 -1.1939  1.5562
 4308TIP3    H234340   5.842   4.162  12.969  0.2751 -0.3119 -0.2421
 4309TIP3   OH234341   3.899   4.806  11.940  0.1505  0.1684 -0.4747
 4309TIP3    H134342   3.972   4.865  11.959  1.9695 -2.5970  1.4593
 4309TIP3    H234343   3.853   4.796  12.023  0.2927 -1.6849 -0.6001
 4310TIP3   OH234344   0.570   3.110  11.544  0.3086  0.2289 -0.1272
 4310TIP3    H134345   0.629   3.095  11.618 -0.6247  2.6812  1.1865
 4310TIP3    H234346   0.491   3.061  11.566 -0.1510  1.3423  0.7843
 4311TIP3   OH234347   3.641   4.639  16.124  0.3196  0.7978 -0.5731
 4311TIP3    H134348   3.701   4.713  16.111  0.1837  0.6796 -1.9211
 4311TIP3    H234349   3.673   4.597  16.204  0.2458  2.4576  0.3609
 4312TIP3   OH234350   5.875   1.310   5.636  0.3832  0.7498 -0.4766
 4312TIP3    H134351   5.958   1.357   5.645  0.8466 -0.1194 -0.1662
 4312TIP3    H234352   5.860   1.271   5.722 -0.1056  0.5014 -0.6717
 4313TIP3   OH234353   3.183   3.316   4.656  0.1003 -0.4618  0.4179
 4313TIP3    H134354   3.275   3.340   4.646 -0.1115  1.2140  2.2624
 4313TIP3    H234355   3.183   3.245   4.721 -0.0823  1.1295  2.1917
 4314TIP3   OH234356   6.771   2.209  16.515 -0.4016 -0.2209  0.2085
 4314TIP3    H134357   6.802   2.296  16.490 -0.0347 -0.8203 -1.5502
 4314TIP3    H234358   6.808   2.194  16.602  1.1813  0.5949 -0.3000
 4315TIP3   OH234359   3.015   4.564  15.143 -0.3511  0.4660  0.0104
 4315TIP3    H134360   2.934   4.513  15.142 -1.0364  1.5307  0.4080
 4315TIP3    H234361   2.994   4.643  15.092  0.6524  0.4135 -0.4886
 4316TIP3   OH234362   3.541   3.748  17.134  0.1860  0.3331  0.2144
 4316TIP3    H134363   3.507   3.789  17.213 -1.9273  3.4981 -2.2418
 4316TIP3    H234364   3.476   3.682  17.111 -0.7820  1.5367 -0.5595
 4317TIP3   OH234365   5.784   3.768  15.432 -0.7298  0.3017 -0.3580
 4317TIP3    H134366   5.763   3.798  15.521  1.1782  1.9700 -0.4421
 4317TIP3    H234367   5.820   3.681  15.444  1.0105  1.1389  0.6945
 4318TIP3   OH234368   5.523   3.010   4.393  0.2398 -0.1073  0.3160
 4318TIP3    H134369   5.454   3.013   4.327 -0.2376 -0.6902  0.7907
 4318TIP3    H234370   5.557   2.921   4.389  0.2865 -0.1142  0.7695
 4319TIP3   OH234371   4.195   6.335   5.063  0.3902 -0.2722 -0.9883
 4319TIP3    H134372   4.290   6.346   5.064  0.6936 -2.6273 -0.3424
 4319TIP3    H234373   4.169   6.363   4.975  1.7631 -0.1741 -1.3785
 4320TIP3   OH234374   1.594   5.475  13.465 -0.4890  0.1195 -0.2011
 4320TIP3    H134375   1.613   5.393  13.510  2.6636  1.3359  0.7518
 4320TIP3    H234376   1.581   5.449  13.373 -1.4635 -1.6387  0.4053
 4321TIP3   OH234377   1.602   4.501  16.762  0.2693 -0.0166  0.4922
 4321TIP3    H134378   1.568   4.432  16.819  0.8348  0.0275  0.8901
 4321TIP3    H234379   1.525   4.539  16.721 -0.1579  0.0614  1.3607
 4322TIP3   OH234380   2.076   3.820  10.528 -0.2964  0.4439  0.2055
 4322TIP3    H134381   2.004   3.824  10.465  0.1842 -0.2595 -0.3941
 4322TIP3    H234382   2.132   3.749  10.497 -0.2507 -0.1761  1.6419
 4323TIP3   OH234383   1.354   6.143   3.712 -0.0305 -0.0545 -0.6053
 4323TIP3    H134384   1.267   6.182   3.717 -0.7192 -1.4935 -1.2439
 4323TIP3    H234385   1.408   6.199   3.768 -1.5487  0.3579  0.4865
 4324TIP3   OH234386   6.409   2.153   0.531 -0.0369  0.1660  0.1162
 4324TIP3    H134387   6.325   2.144   0.486  0.2752 -1.2332 -0.1923
 4324TIP3    H234388   6.474   2.154   0.461  0.4160 -1.5374  0.5047
 4325TIP3   OH234389   3.419   3.350   0.320 -1.1968  0.7230  0.3437
 4325TIP3    H134390   3.427   3.256   0.309 -0.6560  0.6151  1.5789
 4325TIP3    H234391   3.448   3.387   0.236  0.5114 -0.1282  0.5482
 4326TIP3   OH234392   2.735   6.025   4.199 -0.0161 -0.2179 -0.5767
 4326TIP3    H134393   2.688   5.942   4.186 -1.1594  0.3523 -0.1162
 4326TIP3    H234394   2.759   6.054   4.111 -0.4618 -0.5471 -0.8070
 4327TIP3   OH234395   0.294   4.720   3.815 -0.6665  0.2656 -0.5149
 4327TIP3    H134396   0.320   4.684   3.731  0.4424 -1.5242  0.5554
 4327TIP3    H234397   0.358   4.789   3.832  1.1369 -1.5580  0.3341
 4328TIP3   OH234398   4.218   3.589  13.468 -0.2330 -0.3424 -0.3944
 4328TIP3    H134399   4.200   3.519  13.405 -0.0171 -0.3177 -0.4841
 4328TIP3    H234400   4.163   3.569  13.543 -1.0219  0.0064 -0.8685
 4329TIP3   OH234401   6.024   6.504   5.208  0.2063  0.3063 -0.1922
 4329TIP3    H134402   5.932   6.524   5.224  0.4478  0.6866  0.7905
 4329TIP3    H234403   6.032   6.410   5.226 -0.3177 -0.0769 -1.8875
 4330TIP3   OH234404   1.242   2.220  13.311 -0.0945 -0.3467  0.3010
 4330TIP3    H134405   1.268   2.190  13.398  0.0726  1.3895  0.8687
 4330TIP3    H234406   1.325   2.231  13.264 -0.1739 -1.0877 -0.0186
 4331TIP3   OH234407   4.402   4.431  15.086 -0.3667 -0.5458 -0.1434
 4331TIP3    H134408   4.435   4.483  15.159 -0.1317 -0.3339 -0.4012
 4331TIP3    H234409   4.479   4.389  15.049 -0.5508 -1.0444  0.0381
 4332TIP3   OH234410   2.534   3.261  16.493 -0.0766 -0.1778  0.2541
 4332TIP3    H134411   2.457   3.244  16.547 -0.4432  1.3922  0.2292
 4332TIP3    H234412   2.549   3.179  16.447  0.6656 -1.8276  3.2687
 4333TIP3   OH234413   1.073   3.555  13.266  0.1463  0.4199  0.3044
 4333TIP3    H134414   1.137   3.600  13.212 -0.1345  0.9071  0.3764
 4333TIP3    H234415   0.989   3.590  13.239 -0.0491  0.1764  0.5862
 4334TIP3   OH234416   5.620   0.169   6.074  0.6139 -0.2016 -0.7595
 4334TIP3    H134417   5.567   0.249   6.066 -0.2545 -0.7405 -0.5279
 4334TIP3    H234418   5.576   0.118   6.142  0.8958 -1.0741 -1.2176
 4335TIP3   OH234419   1.762   5.058  16.060  0.3567 -0.0715  0.3882
 4335TIP3    H134420   1.833   5.099  16.110  2.2821 -0.5702 -1.8540
 4335TIP3    H234421   1.804   4.985  16.015 -1.0499  1.0149 -2.8323
 4336TIP3   OH234422   2.487   1.531   4.483 -1.0794 -0.5116 -0.4785
 4336TIP3    H134423   2.478   1.479   4.563  0.5374 -0.8908 -0.5291
 4336TIP3    H234424   2.454   1.618   4.507  1.1562 -0.0888  1.1684
 4337TIP3   OH234425   2.305   4.309   4.543  0.7958  0.5835 -0.3939
 4337TIP3    H134426   2.263   4.260   4.472 -2.2787  1.1306  0.9588
 4337TIP3    H234427   2.272   4.398   4.533  0.3892  0.6901  1.6387
 4338TIP3   OH234428   0.455   3.280   4.909  0.6571  0.3876 -0.0114
 4338TIP3    H134429   0.409   3.232   4.978 -0.0759  1.1694  0.0582
 4338TIP3    H234430   0.439   3.373   4.930 -1.3023  0.6408 -2.3376
 4339TIP3   OH234431   6.175   5.720   5.568  0.4209  0.5377  0.5430
 4339TIP3    H134432   6.249   5.745   5.624  0.5161  0.5289  0.4207
 4339TIP3    H234433   6.179   5.780   5.494  2.0783 -1.3534 -0.9491
 4340TIP3   OH234434   2.620   0.404  12.803  0.2507  0.0405 -0.1261
 4340TIP3    H134435   2.550   0.416  12.739 -1.2069  0.8587  1.5815
 4340TIP3    H234436   2.628   0.309  12.813 -0.2382 -0.0658 -0.7119
 4341TIP3   OH234437   3.226   1.093  16.915  0.2451  0.0483  0.4012
 4341TIP3    H134438   3.202   1.060  17.002  2.6847 -0.5315  0.9133
 4341TIP3    H234439   3.150   1.144  16.886 -1.6340 -1.8779  1.7601
 4342TIP3   OH234440   5.887   5.935  16.896  0.2435  0.7391 -0.3042
 4342TIP3    H134441   5.954   5.881  16.853  1.4540  2.3007 -0.4404
 4342TIP3    H234442   5.824   5.955  16.827 -0.7851 -1.3337 -0.0114
 4343TIP3   OH234443   3.461   1.237   0.443 -0.3174 -0.2404 -0.3647
 4343TIP3    H134444   3.507   1.270   0.520  1.4075  0.9184 -1.8453
 4343TIP3    H234445   3.521   1.173   0.404 -1.8871 -2.0904  0.1641
 4344TIP3   OH234446   3.735   2.168   4.002  0.3023 -0.1733  0.2987
 4344TIP3    H134447   3.792   2.243   4.014  1.2073 -0.5405 -1.4200
 4344TIP3    H234448   3.775   2.120   3.929 -2.4614 -0.1852 -1.2627
 4345TIP3   OH234449   3.363   5.150  11.625  0.5313 -0.2323  0.2249
 4345TIP3    H134450   3.351   5.234  11.581  0.2873  0.7362  2.0913
 4345TIP3    H234451   3.284   5.100  11.603  0.1344  0.4622  0.0659
 4346TIP3   OH234452   0.475   3.178  14.816  0.3106  0.5609  0.5781
 4346TIP3    H134453   0.480   3.258  14.763 -1.7673 -0.4132 -1.1947
 4346TIP3    H234454   0.384   3.175  14.846  0.5963 -0.6890  1.3584
 4347TIP3   OH234455   0.244   6.738   0.196  0.6689 -0.0886  0.1917
 4347TIP3    H134456   0.241   6.798   0.270  0.7401  0.6853 -0.4320
 4347TIP3    H234457   0.181   6.669   0.219 -0.5722  1.0244  0.2126
 4348TIP3   OH234458   2.569   4.414  16.624  0.0755  0.0675  0.6352
 4348TIP3    H134459   2.621   4.462  16.689 -0.9436 -0.1640  1.6399
 4348TIP3    H234460   2.563   4.474  16.549  1.8536  0.0569  0.4726
 4349TIP3   OH234461   3.417   3.739  13.575  0.3388  0.0309 -0.2169
 4349TIP3    H134462   3.353   3.794  13.621  0.7277  0.4494 -0.1692
 4349TIP3    H234463   3.467   3.696  13.645  1.4827  1.3098 -0.2264
 4350TIP3   OH234464   2.819   1.146  12.758  0.5219 -0.6741 -0.3421
 4350TIP3    H134465   2.866   1.118  12.679  1.7597 -0.6609  0.3662
 4350TIP3    H234466   2.832   1.074  12.820 -1.1029 -1.0296 -0.4065
 4351TIP3   OH234467   5.640   4.956   1.647  0.4333  0.1046  0.6383
 4351TIP3    H134468   5.652   4.979   1.739  0.9370 -0.0743  0.6197
 4351TIP3    H234469   5.710   4.894   1.628  1.4414  1.5214 -0.3624
 4352TIP3   OH234470   4.975   3.604  11.557  0.2148 -0.6309  0.1667
 4352TIP3    H134471   5.033   3.662  11.508 -1.9935 -0.1566 -1.9854
 4352TIP3    H234472   4.977   3.637  11.646  1.7334  0.5658 -0.2951
 4353TIP3   OH234473   0.822   3.414   0.136  0.3242 -0.1456  0.0243
 4353TIP3    H134474   0.744   3.361   0.146 -1.1367  1.9301  0.0714
 4353TIP3    H234475   0.884   3.379   0.199 -2.2179  1.1230  3.3486
 4354TIP3   OH234476   6.347   2.464  13.022 -0.0652 -0.1638 -0.6543
 4354TIP3    H134477   6.378   2.525  12.955  0.4559 -1.6276 -1.7541
 4354TIP3    H234478   6.408   2.390  13.017 -1.8914 -1.6948 -0.7125
 4355TIP3   OH234479   3.265   2.485   4.518  0.0002 -0.4664 -0.3859
 4355TIP3    H134480   3.188   2.445   4.478 -1.2324  0.1345  1.3513
 4355TIP3    H234481   3.269   2.446   4.606 -0.3868  2.1117  0.8067
 4356TIP3   OH234482   4.241   5.570  14.660 -0.2817 -0.1940  0.0912
 4356TIP3    H134483   4.267   5.651  14.615  1.0616 -1.5562 -1.6436
 4356TIP3    H234484   4.178   5.530  14.601  0.4308 -1.2942  0.0680
 4357TIP3   OH234485   1.215   0.020  12.172 -0.3726 -0.1627 -0.6027
 4357TIP3    H134486   1.215   0.112  12.198  0.5445 -0.5951  1.0279
 4357TIP3    H234487   1.153   0.015  12.099  0.1758  1.8876 -1.2396
 4358TIP3   OH234488   3.517   3.208   4.814 -0.3575  1.0482  0.0940
 4358TIP3    H134489   3.570   3.288   4.821 -0.7799  1.2948  0.4780
 4358TIP3    H234490   3.578   3.141   4.783  0.8412  0.6902  3.0450
 4359TIP3   OH234491   3.916   3.399   2.032  0.3447 -0.2809 -0.4682
 4359TIP3    H134492   3.850   3.367   1.971 -0.0882  1.3775 -0.9008
 4359TIP3    H234493   3.869   3.406   2.116 -0.3747  1.9703 -1.0213
 4360TIP3   OH234494   6.399   1.417   6.396  0.5719  0.5238 -0.0897
 4360TIP3    H134495   6.337   1.448   6.461  1.3714  0.4037  0.7506
 4360TIP3    H234496   6.380   1.467   6.318 -0.5311  0.5337  0.1794
 4361TIP3   OH234497   5.014   2.354  13.439  0.2011 -0.2197 -0.0833
 4361TIP3    H134498   4.928   2.351  13.481  0.5041 -1.5125  0.4745
 4361TIP3    H234499   4.997   2.334  13.347  0.0588 -1.7645  0.2761
 4362TIP3   OH234500   1.836   0.659  10.940  0.3243  0.0076  0.2891
 4362TIP3    H134501   1.925   0.692  10.926  0.9551 -1.3621  1.0090
 4362TIP3    H234502   1.836   0.630  11.031 -0.3563 -1.5117 -0.1816
 4363TIP3   OH234503   1.042   3.265  16.375  0.0422  0.1584 -0.0533
 4363TIP3    H134504   1.036   3.272  16.280  2.0712 -1.4348 -0.3553
 4363TIP3    H234505   0.967   3.211  16.400 -0.8460  1.0926 -0.6587
 4364TIP3   OH234506   2.511   1.148  16.815 -0.1504 -0.5415 -0.0557
 4364TIP3    H134507   2.460   1.070  16.832  0.9905 -1.5031 -0.9311
 4364TIP3    H234508   2.481   1.211  16.880 -1.7788 -1.3727  0.0249
 4365TIP3   OH234509   4.724   0.471   2.825  0.2483  0.5546 -0.1529
 4365TIP3    H134510   4.703   0.392   2.876 -2.6500  1.1233 -0.4010
 4365TIP3    H234511   4.686   0.543   2.875  2.3598  1.7741 -0.2399
 4366TIP3   OH234512   4.048   1.758   3.665 -0.1029 -0.2563 -0.5335
 4366TIP3    H134513   3.965   1.803   3.649 -0.6689 -0.6071  1.2895
 4366TIP3    H234514   4.025   1.665   3.664  0.3948 -0.3781 -0.6380
 4367TIP3   OH234515   3.613   5.673   2.454 -0.2083  0.1730  0.1027
 4367TIP3    H134516   3.554   5.599   2.441  2.1129 -1.4492 -1.4551
 4367TIP3    H234517   3.594   5.731   2.380  0.2812 -0.4360 -0.5022
 4368TIP3   OH234518   5.244   1.498   1.527 -0.2546 -0.0797 -0.9853
 4368TIP3    H134519   5.192   1.435   1.477  0.2073 -1.1538 -0.1511
 4368TIP3    H234520   5.322   1.449   1.553 -0.0612  0.7218 -0.0005
 4369TIP3   OH234521   5.519   5.893   3.044 -0.1726 -0.4384 -0.0669
 4369TIP3    H134522   5.576   5.960   3.081 -0.9258 -0.7195  1.6701
 4369TIP3    H234523   5.445   5.942   3.008 -0.0143 -0.2324 -0.1141
 4370TIP3   OH234524   2.435   2.167   0.198 -0.0208 -0.6768  0.0763
 4370TIP3    H134525   2.479   2.252   0.199  2.0825 -1.6911 -0.9597
 4370TIP3    H234526   2.382   2.166   0.277 -0.2075  1.6616  0.0096
 4371TIP3   OH234527   0.503   3.543   1.881  0.5540  0.1685  0.0281
 4371TIP3    H134528   0.469   3.608   1.943 -0.0973 -0.5154  0.3911
 4371TIP3    H234529   0.503   3.589   1.796 -3.1442 -0.3951 -0.3716
 4372TIP3   OH234530   6.210   4.820  13.976 -0.3035 -0.1301 -0.3539
 4372TIP3    H134531   6.154   4.858  13.909 -1.2417 -0.4826  0.2174
 4372TIP3    H234532   6.159   4.826  14.057 -0.5112 -2.6054 -0.2468
 4373TIP3   OH234533   0.603   1.518  12.354  0.1541  0.6386  0.0572
 4373TIP3    H134534   0.560   1.438  12.385  1.5501  0.0209  0.4228
 4373TIP3    H234535   0.556   1.540  12.273 -0.4522 -0.3768  0.1251
 4374TIP3   OH234536   4.831   4.927   4.939 -0.4507  0.3655  0.0230
 4374TIP3    H134537   4.817   4.957   4.849 -0.3479  2.1955  0.6114
 4374TIP3    H234538   4.786   4.992   4.993 -1.6187 -1.4083  1.2571
 4375TIP3   OH234539   1.470   1.280   1.315 -0.2798  0.6256 -0.4355
 4375TIP3    H134540   1.440   1.223   1.245 -0.0756 -0.6827  0.5283
 4375TIP3    H234541   1.549   1.322   1.280  1.1490 -1.7622 -0.1852
 4376TIP3   OH234542   0.227   3.477  11.526  0.1763  0.2952 -0.2525
 4376TIP3    H134543   0.209   3.489  11.619  0.9041  0.4720 -0.1313
 4376TIP3    H234544   0.318   3.447  11.523 -0.4089 -1.4610 -0.7956
 4377TIP3   OH234545   3.286   2.525   3.028  0.4414 -0.4476  0.0742
 4377TIP3    H134546   3.213   2.536   3.089 -0.3634 -1.5300 -0.6874
 4377TIP3    H234547   3.288   2.607   2.979  0.0384 -0.2289  0.4148
 4378TIP3   OH234548   4.621   2.929  11.480  0.6340 -0.0536 -0.0249
 4378TIP3    H134549   4.635   2.843  11.441 -0.2367 -0.9990  1.6635
 4378TIP3    H234550   4.702   2.946  11.528  0.9933  0.2806 -0.7504
 4379TIP3   OH234551   0.480   4.291   1.237  0.0724  0.5972  0.1047
 4379TIP3    H134552   0.466   4.260   1.326 -0.6889 -0.5602 -0.4168
 4379TIP3    H234553   0.570   4.322   1.237  0.9981 -1.9787  0.5392
 4380TIP3   OH234554   2.927   5.448   1.800  0.1800 -0.4939  0.8240
 4380TIP3    H134555   2.948   5.463   1.892  0.1980 -0.5803  0.8344
 4380TIP3    H234556   2.940   5.533   1.758 -0.4869 -0.2868  1.0249
 4381TIP3   OH234557   1.930   1.884   3.150  0.3994 -0.0474 -0.7203
 4381TIP3    H134558   1.890   1.856   3.068 -0.1163  0.1947 -0.5525
 4381TIP3    H234559   2.001   1.942   3.124 -0.4858  0.9434 -0.9553
 4382TIP3   OH234560   4.974   4.147  11.124 -0.3394  0.2314 -0.1145
 4382TIP3    H134561   4.893   4.153  11.174 -0.9924  0.8871 -1.2315
 4382TIP3    H234562   4.946   4.152  11.033  1.1303  2.6026 -0.4754
 4383TIP3   OH234563   6.506   2.388  15.645 -0.5103 -0.2517 -0.3134
 4383TIP3    H134564   6.595   2.353  15.650  0.9361  3.4702  0.9923
 4383TIP3    H234565   6.494   2.437  15.726 -3.1508  0.7287 -1.2385
 4384TIP3   OH234566   1.484   1.483   3.958  0.3268 -0.0675  0.1858
 4384TIP3    H134567   1.465   1.444   4.043  0.2275 -1.0172 -0.2757
 4384TIP3    H234568   1.463   1.576   3.970 -1.4985 -0.5147  0.6557
 4385TIP3   OH234569   4.775   3.486   0.313 -0.1946  0.4815  0.1733
 4385TIP3    H134570   4.814   3.561   0.359 -0.2327  1.3651 -1.1975
 4385TIP3    H234571   4.832   3.412   0.335  1.2140  1.3928 -0.3448
 4386TIP3   OH234572   3.203   3.935  15.973 -0.0336  0.0847 -0.3999
 4386TIP3    H134573   3.246   4.001  15.919 -0.9615  0.1800 -1.0279
 4386TIP3    H234574   3.257   3.856  15.963  0.4212  0.4163 -0.5685
 4387TIP3   OH234575   3.433   3.618  12.568  0.1814 -0.0416  0.2005
 4387TIP3    H134576   3.429   3.616  12.663 -1.2690 -0.0700  0.1448
 4387TIP3    H234577   3.476   3.536  12.544 -0.3576 -0.5026  0.7919
 4388TIP3   OH234578   0.893   0.403   2.002  0.3056  0.0041 -0.0105
 4388TIP3    H134579   0.933   0.409   1.915  0.0773 -3.5166 -0.4150
 4388TIP3    H234580   0.965   0.422   2.063  0.2408  3.4941 -0.9191
 4389TIP3   OH234581   0.005   5.324   0.986 -0.9621 -0.0611  0.2008
 4389TIP3    H134582   0.068   5.270   0.938  0.9225  0.6245  1.8220
 4389TIP3    H234583  -0.076   5.273   0.986  0.4486 -2.3772  0.7032
 4390TIP3   OH234584   3.866   5.827   2.235 -0.5322  0.2176  0.2419
 4390TIP3    H134585   3.779   5.787   2.246 -1.0198  0.9116 -1.0015
 4390TIP3    H234586   3.898   5.791   2.152  1.1752 -1.4675  1.5807
 4391TIP3   OH234587   0.056   0.481   0.494 -0.2290 -0.2267 -0.2529
 4391TIP3    H134588   0.034   0.416   0.561 -0.8672 -0.2147 -0.4445
 4391TIP3    H234589   0.046   0.434   0.411 -0.8455  0.1490 -0.3992
 4392TIP3   OH234590   4.538   5.711  14.186  0.0544  0.0661 -0.3562
 4392TIP3    H134591   4.597   5.730  14.259 -0.7597 -1.2707  0.6674
 4392TIP3    H234592   4.561   5.775  14.119  2.7503 -0.5133 -0.0168
 4393TIP3   OH234593   3.888   3.383   5.056 -0.3658 -0.4621 -0.8545
 4393TIP3    H134594   3.869   3.383   5.149  1.4129  0.9032 -0.4655
 4393TIP3    H234595   3.819   3.437   5.017  0.5031  1.3637  0.0607
 4394TIP3   OH234596   1.650   5.634  13.700 -0.1956  0.0395 -0.0723
 4394TIP3    H134597   1.643   5.609  13.608 -1.5053 -0.3131  0.1126
 4394TIP3    H234598   1.657   5.552  13.747  1.3059  0.2475  0.0969
 4395TIP3   OH234599   5.088   3.811  15.495  0.1452 -0.3536 -0.2222
 4395TIP3    H134600   5.090   3.725  15.537 -1.6543  0.2337  1.1252
 4395TIP3    H234601   5.086   3.873  15.568  2.0407  0.8732 -1.1701
 4396TIP3   OH234602   0.003   6.661  12.066 -0.3894 -0.6196 -0.0389
 4396TIP3    H134603   0.091   6.665  12.029 -0.4007  0.3902  0.0364
 4396TIP3    H234604  -0.012   6.748  12.102 -2.4343  0.0562 -2.4046
 4397TIP3   OH234605   1.348   5.482   2.446  0.0663  0.2251 -0.4116
 4397TIP3    H134606   1.297   5.535   2.507 -0.8727 -2.0500  0.8266
 4397TIP3    H234607   1.286   5.462   2.375 -0.4329 -1.4617  0.4651
 4398TIP3   OH234608   4.182   1.294  11.053 -0.0325  0.7807  0.0105
 4398TIP3    H134609   4.253   1.334  11.104 -0.4476  0.1070  1.1320
 4398TIP3    H234610   4.225   1.260  10.975  1.4215 -2.1281  1.9729
 4399TIP3   OH234611   5.491   1.691   6.630  0.5293  0.1491  0.2514
 4399TIP3    H134612   5.561   1.642   6.673  1.6596  0.8057 -0.8059
 4399TIP3    H234613   5.411   1.661   6.673  1.5252  0.0102  2.0795
 4400TIP3   OH234614   2.409   2.604   4.656  0.1982 -0.0067  0.1285
 4400TIP3    H134615   2.499   2.573   4.663 -1.1465 -3.9387  1.3564
 4400TIP3    H234616   2.400   2.666   4.729  1.8460  0.3361  0.0600
 4401TIP3   OH234617   0.994   0.700  13.254 -0.9385  0.4166  0.5546
 4401TIP3    H134618   0.995   0.766  13.184 -1.7945  0.3158  0.4374
 4401TIP3    H234619   1.033   0.622  13.214  1.0572  1.1518  1.0151
 4402TIP3   OH234620   5.741   4.912   2.324  0.7942 -0.0348 -0.0746
 4402TIP3    H134621   5.766   4.986   2.380 -5.0159  2.5640 -0.4429
 4402TIP3    H234622   5.722   4.841   2.385 -0.5528  1.1738  0.9742
 4403TIP3   OH234623   3.327   6.188  12.327 -0.3958  0.2023 -0.3932
 4403TIP3    H134624   3.400   6.154  12.378 -0.4253  0.6587 -0.0429
 4403TIP3    H234625   3.366   6.253  12.269 -0.3021 -0.6049 -1.2304
 4404TIP3   OH234626   6.462   0.359  14.820 -0.1077 -0.2032 -0.2480
 4404TIP3    H134627   6.367   0.373  14.828 -0.1618 -0.4171 -0.5054
 4404TIP3    H234628   6.474   0.331  14.730  0.2750  0.3988 -0.3805
 4405TIP3   OH234629   6.255   5.820   1.381  0.3308  0.3279  0.0809
 4405TIP3    H134630   6.267   5.726   1.393  0.3115  0.2837 -0.2403
 4405TIP3    H234631   6.305   5.860   1.452 -0.3217  0.0524  0.7092
 4406TIP3   OH234632   3.583   2.878   0.433 -0.4450  0.6096  0.3909
 4406TIP3    H134633   3.655   2.915   0.484  1.5824 -0.5155 -1.5840
 4406TIP3    H234634   3.550   2.952   0.382 -0.0156  0.8969  0.5264
 4407TIP3   OH234635   4.451   5.094  15.368  0.0702 -0.6302 -0.0343
 4407TIP3    H134636   4.440   5.093  15.463  1.9772  0.1021  0.2347
 4407TIP3    H234637   4.520   5.029  15.351  0.1864 -0.3067 -0.8320
 4408TIP3   OH234638   6.210   1.442   0.620  0.3805 -0.0051 -0.0261
 4408TIP3    H134639   6.140   1.408   0.565 -0.5772 -0.2746  1.3421
 4408TIP3    H234640   6.204   1.537   0.610 -1.6884  0.0896  1.8899
 4409TIP3   OH234641   3.635   1.476   6.116 -0.6238 -0.1424 -0.0606
 4409TIP3    H134642   3.580   1.440   6.186 -1.9931 -1.1124 -1.5862
 4409TIP3    H234643   3.715   1.423   6.118 -0.9756 -0.6649  0.2920
 4410TIP3   OH234644   1.952   5.879  15.613 -0.1488 -0.1599 -0.0482
 4410TIP3    H134645   2.004   5.958  15.628  0.6291 -0.6809  0.0360
 4410TIP3    H234646   1.969   5.857  15.521 -1.2214  0.3764 -0.3887
 4411TIP3   OH234647   3.045   3.751  13.343  0.1442 -0.1481  0.0282
 4411TIP3    H134648   2.957   3.735  13.308 -0.2093  0.7293  0.4982
 4411TIP3    H234649   3.073   3.832  13.302  0.1919  0.2816  0.8994
 4412TIP3   OH234650   0.193   3.916   3.842  0.2530  0.4106 -0.5179
 4412TIP3    H134651   0.156   3.935   3.756 -0.6556  1.8995  0.1716
 4412TIP3    H234652   0.228   3.828   3.835 -1.1821 -0.0576 -1.9674
 4413TIP3   OH234653   1.270   1.109  11.576 -0.3541  0.0711 -0.3649
 4413TIP3    H134654   1.200   1.103  11.641  0.3531 -1.9870  0.2737
 4413TIP3    H234655   1.331   1.173  11.612 -0.6302 -0.0680  0.3572
 4414TIP3   OH234656   5.984   4.858  14.162 -0.1572 -0.1507 -0.3336
 4414TIP3    H134657   6.016   4.768  14.159 -0.2320 -0.1587 -0.9501
 4414TIP3    H234658   5.896   4.851  14.198  0.4333 -0.1551  1.1411
 4415TIP3   OH234659   0.180   5.696  14.895  0.5776  0.5528  0.0456
 4415TIP3    H134660   0.270   5.724  14.913  0.0819  1.8023  0.6281
 4415TIP3    H234661   0.154   5.648  14.974  1.3171 -1.3393 -0.8260
 4416TIP3   OH234662   3.504   6.710  13.454  0.4971 -0.1525 -0.4959
 4416TIP3    H134663   3.525   6.633  13.400 -0.6611  0.0559 -1.2534
 4416TIP3    H234664   3.508   6.784  13.393  0.3245  0.2346 -0.0405
 4417TIP3   OH234665   2.572   0.111  12.481 -0.5819  0.0622 -0.3956
 4417TIP3    H134666   2.489   0.071  12.509 -0.7533  0.4306 -0.3705
 4417TIP3    H234667   2.619   0.127  12.563  0.7576 -2.7829 -0.5498
 4418TIP3   OH234668   3.666   2.197   0.181  0.1574 -0.0068  0.4737
 4418TIP3    H134669   3.699   2.139   0.113 -0.8397 -0.0933  0.0518
 4418TIP3    H234670   3.665   2.284   0.141  0.2134  0.0516  0.5993
 4419TIP3   OH234671   4.571   1.579  17.149  0.4003  0.0352 -0.8350
 4419TIP3    H134672   4.561   1.580  17.054  1.9295  0.0403 -0.9959
 4419TIP3    H234673   4.613   1.662  17.170  0.1343  0.0020 -0.1583
 4420TIP3   OH234674   6.046   3.048   2.059  0.1291  0.5028 -0.1415
 4420TIP3    H134675   5.977   3.115   2.055  0.7368  1.1642  0.2674
 4420TIP3    H234676   6.039   3.012   2.147 -1.0530 -0.9081 -0.7972
 4421TIP3   OH234677   2.608   4.511   4.769 -0.1163  0.0455  0.3112
 4421TIP3    H134678   2.563   4.524   4.686 -0.0889 -0.7253  0.1713
 4421TIP3    H234679   2.630   4.418   4.770 -0.5004 -0.0417  1.3671
 4422TIP3   OH234680   1.285   6.494  11.914 -0.4782  0.6492  0.3143
 4422TIP3    H134681   1.357   6.557  11.910 -0.7859  1.0795  1.4848
 4422TIP3    H234682   1.232   6.512  11.837  0.0208  1.1129  0.0799
 4423TIP3   OH234683   3.211   5.617   6.131  0.3868 -0.4294  0.3668
 4423TIP3    H134684   3.260   5.544   6.167 -2.1404 -2.1248  0.5314
 4423TIP3    H234685   3.196   5.592   6.040  2.2380  1.3975 -0.4688
 4424TIP3   OH234686   0.900   2.808  13.743 -0.3796  0.4126 -0.1172
 4424TIP3    H134687   0.844   2.849  13.809  0.0322  0.3744  0.2595
 4424TIP3    H234688   0.906   2.873  13.673 -0.1370  0.7913  0.2563
 4425TIP3   OH234689   4.675   0.169  14.036  0.2288  0.0819 -0.2661
 4425TIP3    H134690   4.731   0.103  14.076  0.7226  0.7825  0.2113
 4425TIP3    H234691   4.593   0.164  14.084  0.9261  1.1369  1.0728
 4426TIP3   OH234692   1.120   4.039   6.022  0.1368 -0.9460  0.4324
 4426TIP3    H134693   1.130   3.946   6.044  0.1471 -1.1627 -0.4558
 4426TIP3    H234694   1.036   4.064   6.061 -1.7185 -2.3118 -2.5020
 4427TIP3   OH234695   4.793   5.535   3.447  0.2602 -0.3692 -0.0579
 4427TIP3    H134696   4.781   5.442   3.468 -0.7857 -0.2243  0.0521
 4427TIP3    H234697   4.714   5.557   3.398 -0.1777  0.8224  1.1580
 4428TIP3   OH234698   6.549   4.498  15.572  0.0327  0.1488 -0.0881
 4428TIP3    H134699   6.637   4.461  15.579 -0.4970 -0.7346  2.0124
 4428TIP3    H234700   6.558   4.586  15.608 -0.4112 -0.7229  2.1993
 4429TIP3   OH234701   1.520   5.444  14.430 -0.2383  0.9390 -0.3135
 4429TIP3    H134702   1.549   5.358  14.461 -0.1688 -0.0299 -3.0086
 4429TIP3    H234703   1.592   5.476  14.376  0.2396  3.2474  1.5730
 4430TIP3   OH234704   2.168   1.975   4.622 -0.4237 -0.3394 -0.3497
 4430TIP3    H134705   2.183   2.063   4.586  0.2496 -0.3255 -0.0387
 4430TIP3    H234706   2.200   1.981   4.713 -1.0407 -0.7022 -0.1090
 4431TIP3   OH234707   5.609   1.268  15.229  0.5744 -0.3879  0.0493
 4431TIP3    H134708   5.646   1.347  15.268  0.2483 -1.0082  1.6644
 4431TIP3    H234709   5.636   1.197  15.287 -0.2185 -1.2939 -0.6648
 4432TIP3   OH234710   4.063   4.819   0.434 -0.2042 -0.0174 -0.1142
 4432TIP3    H134711   4.147   4.853   0.464 -0.1769 -0.0263 -0.1830
 4432TIP3    H234712   4.067   4.725   0.452 -0.7787  0.2079  1.2815
 4433TIP3   OH234713   2.017   4.402   1.286 -0.4239 -0.8231  0.7258
 4433TIP3    H134714   1.958   4.414   1.361  0.3039 -0.4173  1.2479
 4433TIP3    H234715   2.105   4.404   1.325  0.1843  3.3500 -0.5423
 4434TIP3   OH234716   6.090   2.511   0.615 -0.0144  0.1278 -0.1843
 4434TIP3    H134717   6.181   2.488   0.599  0.0538  0.1419  0.2001
 4434TIP3    H234718   6.093   2.585   0.675 -0.3562 -1.6986  2.1429
 4435TIP3   OH234719   1.315   5.250   1.392 -0.6046  0.5280  0.1161
 4435TIP3    H134720   1.394   5.203   1.419 -0.9738 -1.3005 -1.8695
 4435TIP3    H234721   1.344   5.341   1.383  1.0937  0.0076  0.1186
 4436TIP3   OH234722   0.845   1.737  13.045 -0.4878 -0.0400  0.0607
 4436TIP3    H134723   0.932   1.722  13.081  0.4492  0.9648 -1.6621
 4436TIP3    H234724   0.815   1.651  13.015  0.1018 -0.3108  0.2528
 4437TIP3   OH234725   5.369   1.914   1.493 -0.6957 -0.1474 -0.1408
 4437TIP3    H134726   5.373   2.001   1.454  0.2923 -0.2070 -0.1846
 4437TIP3    H234727   5.321   1.926   1.575  0.8133  0.7369  0.6293
 4438TIP3   OH234728   4.516   3.007   4.053  0.0986  0.2291 -0.2408
 4438TIP3    H134729   4.461   2.999   3.975  0.5726  0.8494 -0.6449
 4438TIP3    H234730   4.463   2.971   4.124 -1.0055  1.2508 -0.5309
 4439TIP3   OH234731   4.835   5.414  12.585 -0.6932  0.3346  0.5272
 4439TIP3    H134732   4.931   5.409  12.585 -0.7264 -0.3656 -0.6241
 4439TIP3    H234733   4.815   5.481  12.651  0.6302  1.2091  0.0702
 4440TIP3   OH234734   6.288   4.002   1.115  0.3823 -0.5946  0.1421
 4440TIP3    H134735   6.329   4.088   1.126 -1.5207  0.5493 -1.4786
 4440TIP3    H234736   6.347   3.954   1.057  1.3620 -0.3563  0.9141
 4441TIP3   OH234737   0.845   0.845  12.949  0.1925  0.1026 -0.1918
 4441TIP3    H134738   0.821   0.805  13.033  0.5235  0.7002  0.1861
 4441TIP3    H234739   0.818   0.780  12.884  2.6726 -1.7210  0.5285
 4442TIP3   OH234740   2.082   5.735  15.316  0.6428 -0.3866  0.2267
 4442TIP3    H134741   2.064   5.733  15.222  2.3956  2.0995 -0.2346
 4442TIP3    H234742   2.093   5.644  15.340  1.2781 -1.0111 -2.2338
 4443TIP3   OH234743   3.419   5.199   3.642 -0.1735 -0.4210 -0.5213
 4443TIP3    H134744   3.482   5.201   3.714  0.0617 -0.2384 -0.7296
 4443TIP3    H234745   3.406   5.291   3.619 -1.2186 -0.4004  0.1240
 4444TIP3   OH234746   0.915   3.309   2.965  0.3653  1.2805 -0.2532
 4444TIP3    H134747   0.971   3.264   3.029  0.1713 -0.0377 -0.9875
 4444TIP3    H234748   0.842   3.343   3.017  0.1935  0.1869  0.2389
 4445TIP3   OH234749   5.409   2.478  12.937 -0.2046  0.3275 -0.3910
 4445TIP3    H134750   5.383   2.557  12.889 -2.1731  0.9971  1.6776
 4445TIP3    H234751   5.496   2.498  12.969  0.2392  0.7416 -1.8061
 4446TIP3   OH234752   4.384   5.438   5.968 -0.5253  0.0840  0.1630
 4446TIP3    H134753   4.427   5.438   6.053  0.4857 -0.1563 -0.3433
 4446TIP3    H234754   4.290   5.436   5.989 -0.2769 -0.7360  1.2659
 4447TIP3   OH234755   3.974   0.629   3.130  0.0424 -0.0512 -0.6080
 4447TIP3    H134756   3.929   0.618   3.046  1.6367  0.9498 -1.6363
 4447TIP3    H234757   4.033   0.553   3.135 -0.9382 -0.7624  0.1948
 4448TIP3   OH234758   6.282   2.572  12.209 -0.5475  0.3522 -0.0472
 4448TIP3    H134759   6.275   2.572  12.305  0.2126  0.9887  0.0117
 4448TIP3    H234760   6.212   2.513  12.180  0.4772 -1.4169  0.9925
 4449TIP3   OH234761   3.321   3.279  11.717  0.0606 -0.3917 -0.0402
 4449TIP3    H134762   3.277   3.255  11.635 -0.9271 -0.7533  0.5881
 4449TIP3    H234763   3.250   3.306  11.775  0.8251  0.6397  0.4446
 4450TIP3   OH234764   3.689   2.445   0.000 -0.2576  0.1130 -0.3658
 4450TIP3    H134765   3.607   2.488  -0.021 -0.6765 -0.0731  0.8446
 4450TIP3    H234766   3.757   2.506  -0.030 -0.8217  0.2285 -1.4364
 4451TIP3   OH234767   3.080   1.651   0.570  0.5190  0.0391  0.0177
 4451TIP3    H134768   3.006   1.710   0.579 -1.0416 -2.0886  1.4860
 4451TIP3    H234769   3.073   1.616   0.481  0.7674  1.1016 -0.4322
 4452TIP3   OH234770   6.597   4.595  12.953 -0.1165  0.1664 -0.4203
 4452TIP3    H134771   6.512   4.552  12.959 -0.2879  0.5391 -0.1999
 4452TIP3    H234772   6.600   4.654  13.027 -0.7265  2.0626 -1.8677
 4453TIP3   OH234773   3.771   6.287  12.824  0.5287  0.3175 -0.1360
 4453TIP3    H134774   3.781   6.205  12.775 -0.1944  0.3643 -0.3663
 4453TIP3    H234775   3.856   6.301  12.864  1.3899  0.7350 -2.0667
 4454TIP3   OH234776   4.343   4.317   3.115 -0.0273 -0.3765 -0.3233
 4454TIP3    H134777   4.331   4.293   3.023 -1.5563 -0.0202 -0.2207
 4454TIP3    H234778   4.278   4.385   3.131  0.9582  0.3292  0.7361
 4455TIP3   OH234779   6.580   5.544  11.592  0.3121 -0.2829  0.1189
 4455TIP3    H134780   6.582   5.638  11.610 -1.0478 -0.6849  2.5456
 4455TIP3    H234781   6.672   5.517  11.592  0.6667  0.9323  0.0396
 4456TIP3   OH234782   5.622   4.476  12.542  0.2805 -0.2423  0.7790
 4456TIP3    H134783   5.622   4.524  12.459 -0.6852 -0.3807  0.6978
 4456TIP3    H234784   5.687   4.407  12.529  0.8501  0.3365  0.4907
 4457TIP3   OH234785   0.517   2.733   3.149  0.3090  0.0312 -0.4023
 4457TIP3    H134786   0.531   2.718   3.242 -1.2304 -1.2108 -0.3650
 4457TIP3    H234787   0.602   2.713   3.109  0.7547 -0.2054  0.6364
 4458TIP3   OH234788   4.384   3.713   3.919  0.0804 -0.4872 -0.0282
 4458TIP3    H134789   4.327   3.655   3.969  0.5677 -0.9329  0.0177
 4458TIP3    H234790   4.385   3.677   3.831 -1.2009  0.6092 -0.4952
 4459TIP3   OH234791   1.995   0.410   4.526 -0.0934  0.4311  0.3472
 4459TIP3    H134792   2.089   0.390   4.529 -0.0389  0.4515 -1.0013
 4459TIP3    H234793   1.953   0.325   4.517 -0.2558  0.3509  1.8380
 4460TIP3   OH234794   6.635   2.485  13.045 -0.1487  0.2667  0.4005
 4460TIP3    H134795   6.730   2.477  13.054 -0.3729 -1.4628  1.4642
 4460TIP3    H234796   6.606   2.515  13.131 -0.6585 -0.0422  0.3345
 4461TIP3   OH234797   4.936   5.635  11.561 -0.1126  0.4515  0.1492
 4461TIP3    H134798   4.858   5.591  11.595 -0.6032  0.8410 -0.4670
 4461TIP3    H234799   4.977   5.571  11.503 -0.2885  0.4569  0.0202
 4462TIP3   OH234800   3.251   1.019  11.278  0.1606 -0.3632  0.3895
 4462TIP3    H134801   3.286   0.961  11.345 -0.7397 -0.9377  0.3701
 4462TIP3    H234802   3.184   1.071  11.323 -0.0245 -0.3333  0.0842
 4463TIP3   OH234803   1.087   5.360  13.253  0.1030 -0.2392 -0.2071
 4463TIP3    H134804   1.165   5.358  13.197  1.6764 -0.1199  1.9163
 4463TIP3    H234805   1.096   5.442  13.302 -1.2730 -0.3139  0.1773
 4464TIP3   OH234806   0.435   4.923  16.777 -0.3340 -0.4615 -0.3774
 4464TIP3    H134807   0.428   4.898  16.685 -0.7133  0.3201 -0.5624
 4464TIP3    H234808   0.359   4.979  16.792  1.0291  1.3731 -0.2167
 4465TIP3   OH234809   5.547   6.780   4.120 -0.0470 -0.6551  0.0491
 4465TIP3    H134810   5.585   6.857   4.163 -2.1358  0.8855 -0.7697
 4465TIP3    H234811   5.608   6.760   4.049  1.1857 -0.5653  1.0654
 4466TIP3   OH234812   2.887   4.626  13.265  0.4729 -0.1586  0.2975
 4466TIP3    H134813   2.919   4.654  13.351 -1.0015 -0.1056  0.8400
 4466TIP3    H234814   2.945   4.669  13.203  1.4182 -0.0179  1.2558
 4467TIP3   OH234815   3.079   5.046  11.627 -0.2683  0.0172 -0.0859
 4467TIP3    H134816   3.119   4.960  11.640  0.5212  0.3921  0.0083
 4467TIP3    H234817   3.124   5.081  11.550 -2.4273 -0.7363 -1.7541
 4468TIP3   OH234818   4.997   1.028  13.685 -0.4674 -0.1808  0.2117
 4468TIP3    H134819   4.937   0.976  13.738  0.5805 -1.6054  0.0370
 4468TIP3    H234820   5.019   1.103  13.740 -0.8675 -0.6704  1.0546
 4469TIP3   OH234821   1.111   2.133  11.125  0.0022  0.4798  0.5584
 4469TIP3    H134822   1.085   2.171  11.209  0.3718  0.9383  0.4715
 4469TIP3    H234823   1.206   2.120  11.134 -0.2515 -1.2461  0.9052
 4470TIP3   OH234824   4.360   1.917   1.917 -0.0264  0.0225  0.5641
 4470TIP3    H134825   4.268   1.895   1.907 -0.5120  2.0006  0.5215
 4470TIP3    H234826   4.364   2.012   1.909  1.9496  0.0224  1.0757
 4471TIP3   OH234827   2.145   3.204   1.462  0.1959  0.9608 -0.8043
 4471TIP3    H134828   2.080   3.181   1.395  0.0576 -0.7399 -0.1186
 4471TIP3    H234829   2.227   3.171   1.427 -0.0244 -0.7811  0.2542
 4472TIP3   OH234830   4.779   1.805   1.133 -0.6922 -0.0178 -0.4967
 4472TIP3    H134831   4.796   1.715   1.108 -0.1842 -0.0944  0.1039
 4472TIP3    H234832   4.685   1.818   1.119 -0.4992 -0.1848 -2.0050
 4473TIP3   OH234833   2.230   6.572  12.802  0.3457 -0.7233 -0.1309
 4473TIP3    H134834   2.312   6.524  12.805  0.8004 -0.0245 -0.9529
 4473TIP3    H234835   2.168   6.512  12.762  0.8466 -0.7160 -0.9215
 4474TIP3   OH234836   3.366   2.023  11.556 -0.0822  0.6142  0.7072
 4474TIP3    H134837   3.432   2.043  11.623 -1.0490 -0.4522  2.0173
 4474TIP3    H234838   3.403   1.950  11.508  1.0928  2.0748 -0.6352
 4475TIP3   OH234839   5.213   3.140   1.402  0.3952  0.3003  0.0781
 4475TIP3    H134840   5.178   3.053   1.383 -2.3636  0.9295  1.9795
 4475TIP3    H234841   5.136   3.196   1.405  2.0451  2.6101  0.0030
 4476TIP3   OH234842   0.936   5.191  16.098 -0.0137 -0.3794 -0.1517
 4476TIP3    H134843   0.989   5.167  16.022 -0.4191 -2.1407  0.0960
 4476TIP3    H234844   0.981   5.265  16.137  0.2348  0.5067 -2.0705
 4477TIP3   OH234845   4.415   0.835   0.276 -0.0783 -0.6382  0.1037
 4477TIP3    H134846   4.362   0.879   0.343 -0.2374 -0.4893 -0.1181
 4477TIP3    H234847   4.352   0.789   0.222  0.0701 -0.9287  0.1780
 4478TIP3   OH234848   1.804   6.274   3.596  0.2125 -0.1524  0.2599
 4478TIP3    H134849   1.721   6.227   3.597 -0.2224  0.6076  0.1642
 4478TIP3    H234850   1.797   6.337   3.667  1.1666 -0.8482  0.9983
 4479TIP3   OH234851   0.447   0.581   1.622  0.1762  0.0413 -0.1132
 4479TIP3    H134852   0.484   0.495   1.601  0.3965 -0.1147  0.8974
 4479TIP3    H234853   0.431   0.622   1.536 -0.0973 -1.0720 -0.5995
 4480TIP3   OH234854   3.219   2.763  11.313 -0.3136 -0.4104  0.3889
 4480TIP3    H134855   3.307   2.741  11.343  0.0166 -0.3042 -0.5046
 4480TIP3    H234856   3.217   2.859  11.309 -0.2534 -0.4348 -0.2419
 4481TIP3   OH234857   2.213   1.648  17.185 -0.0207 -0.0066  0.2528
 4481TIP3    H134858   2.222   1.668  17.092 -0.9361 -1.0025 -0.0590
 4481TIP3    H234859   2.198   1.733  17.227 -4.3141 -0.0342 -1.0811
 4482TIP3   OH234860   1.086   4.729  13.516  0.5251 -0.6037  0.3040
 4482TIP3    H134861   1.041   4.654  13.477  1.9305 -1.6646  0.6855
 4482TIP3    H234862   1.054   4.730  13.607  0.8174 -1.0017  0.4142
 4483TIP3   OH234863   5.285   6.475  14.550  0.2512  0.1951  0.0037
 4483TIP3    H134864   5.333   6.487  14.632  1.9532 -0.8597 -0.8167
 4483TIP3    H234865   5.211   6.419  14.574  1.4108 -1.1153  0.6097
 4484TIP3   OH234866   3.323   4.419  13.285 -0.2658 -0.0741  0.1029
 4484TIP3    H134867   3.234   4.384  13.286 -0.2320 -0.1966 -1.0302
 4484TIP3    H234868   3.379   4.342  13.283 -0.1409  0.0097  0.3504
 4485TIP3   OH234869   2.144   6.150  12.772  0.5161 -0.1252 -0.6190
 4485TIP3    H134870   2.110   6.239  12.768  1.1080  0.1427  0.0993
 4485TIP3    H234871   2.074   6.098  12.812  1.2711  0.6040  1.7494
 4486TIP3   OH234872   5.335   4.675   1.859  0.2022 -0.4379 -0.2009
 4486TIP3    H134873   5.266   4.687   1.794  0.2398  0.1825 -0.1254
 4486TIP3    H234874   5.403   4.625   1.813  0.5634  0.6604 -0.8710
 4487TIP3   OH234875   1.787   4.792  13.382 -0.3191  0.4008 -0.4219
 4487TIP3    H134876   1.855   4.724  13.381  0.3978  1.1169 -0.3500
 4487TIP3    H234877   1.780   4.820  13.291  0.4972  1.3365 -0.1979
 4488TIP3   OH234878   3.090   0.265  14.510  0.3137  0.8190 -0.2313
 4488TIP3    H134879   3.145   0.206  14.458 -1.0860 -1.9988  1.3444
 4488TIP3    H234880   3.011   0.276  14.457  0.0029  0.1263  0.0790
 4489TIP3   OH234881   6.700   2.385  15.219  0.2093  0.1382 -0.5313
 4489TIP3    H134882   6.620   2.415  15.261 -0.5957 -1.3901 -0.9480
 4489TIP3    H234883   6.670   2.339  15.140  1.5416  0.3548 -1.1779
 4490TIP3   OH234884   6.576   1.865   4.197 -0.2209 -0.0869  0.0713
 4490TIP3    H134885   6.595   1.932   4.262 -0.5997 -1.1886  1.3377
 4490TIP3    H234886   6.650   1.868   4.137  0.2494  0.7895  0.6770
 4491TIP3   OH234887   5.767   1.927   0.831  0.2740  0.3795  0.3844
 4491TIP3    H134888   5.826   1.853   0.847  0.1088 -0.1032 -1.1087
 4491TIP3    H234889   5.716   1.935   0.912  0.8513 -0.6318  0.8646
 4492TIP3   OH234890   1.183   0.159  11.492  0.3789 -0.5009  0.0288
 4492TIP3    H134891   1.116   0.090  11.491  0.1816 -0.3032 -2.0353
 4492TIP3    H234892   1.191   0.186  11.400  0.4639  2.2010  0.7846
 4493TIP3   OH234893   2.129   5.073   0.880  0.5385  0.0293  0.0824
 4493TIP3    H134894   2.046   5.029   0.898  0.5236 -0.3302 -0.8656
 4493TIP3    H234895   2.147   5.055   0.788  0.5777  1.9377 -0.2942
 4494TIP3   OH234896   2.744   5.448  13.044  0.4701 -0.2928 -0.0093
 4494TIP3    H134897   2.691   5.401  13.108  2.0200 -1.6048  0.3416
 4494TIP3    H234898   2.829   5.458  13.086  0.2894  2.5854 -0.2115
 4495TIP3   OH234899   5.341   3.002  15.397  0.4259 -0.4904 -0.4955
 4495TIP3    H134900   5.267   3.004  15.337 -0.4584 -1.7462  0.5278
 4495TIP3    H234901   5.395   2.929  15.366  1.3156  0.4751 -1.2936
 4496TIP3   OH234902   0.370   2.747   1.525  0.3365 -0.5852  0.6743
 4496TIP3    H134903   0.395   2.821   1.580  2.9921 -0.6052 -0.4272
 4496TIP3    H234904   0.302   2.701   1.575 -1.6753  2.8059  1.1835
 4497TIP3   OH234905   1.596   4.010   5.776  0.0070  0.1436 -0.2485
 4497TIP3    H134906   1.508   4.024   5.812  0.2849  0.4179  0.3279
 4497TIP3    H234907   1.654   4.014   5.852  0.3717 -1.5365 -0.4345
 4498TIP3   OH234908   0.350   5.104  15.226 -0.3891 -0.7152  0.3475
 4498TIP3    H134909   0.263   5.103  15.186 -1.0434 -2.5687  1.7421
 4498TIP3    H234910   0.358   5.019  15.270  1.3664  0.1622  1.8365
 4499TIP3   OH234911   5.409   3.675  13.447 -0.1467 -0.1288  0.2391
 4499TIP3    H134912   5.413   3.735  13.373 -0.0010  0.7088  0.9224
 4499TIP3    H234913   5.467   3.603  13.422 -0.2165  0.0696 -0.5197
 4500TIP3   OH234914   5.165   0.318  11.982 -0.2560  0.8661  0.3110
 4500TIP3    H134915   5.147   0.285  11.894 -0.2458  0.3408  0.5050
 4500TIP3    H234916   5.158   0.241  12.039 -1.3604  1.4086  0.9191
 4501TIP3   OH234917   6.179   5.979   0.922 -0.0622  0.3612  0.4226
 4501TIP3    H134918   6.120   6.044   0.883 -0.1678  1.2913  2.0458
 4501TIP3    H234919   6.138   5.957   1.006  0.4063 -1.1981  0.2634
 4502TIP3   OH234920   4.724   5.212   4.758  0.3950  0.3434  0.3308
 4502TIP3    H134921   4.815   5.238   4.771  0.6175 -0.0553 -0.3925
 4502TIP3    H234922   4.685   5.214   4.845  1.6351 -1.4969  0.9458
 4503TIP3   OH234923   6.039   4.003   1.006  0.4547  0.1410  0.1580
 4503TIP3    H134924   6.085   4.042   0.931 -0.0528  1.8675  0.7202
 4503TIP3    H234925   6.108   3.985   1.070  1.0982 -2.7828 -1.3011
 4504TIP3   OH234926   5.450   4.712   1.111 -0.4481  0.5737  0.0605
 4504TIP3    H134927   5.430   4.749   1.025  1.1695 -0.9731 -1.0058
 4504TIP3    H234928   5.475   4.621   1.094 -1.0387 -0.0400  2.2704
 4505TIP3   OH234929   2.261   1.804   2.367 -0.1094  0.0091 -0.0212
 4505TIP3    H134930   2.209   1.790   2.288  1.7091  3.5597 -1.9701
 4505TIP3    H234931   2.340   1.753   2.354 -0.1164  0.0398 -0.1889
 4506TIP3   OH234932   6.404   0.510   1.188 -0.0882  0.1735 -0.0382
 4506TIP3    H134933   6.489   0.512   1.144  0.6565 -0.9424  1.2935
 4506TIP3    H234934   6.375   0.602   1.189  0.3101  0.3454 -1.9559
 4507TIP3   OH234935   1.026   2.676  15.655 -0.1763 -0.0099  0.1099
 4507TIP3    H134936   0.981   2.747  15.701  0.0079  1.0272 -1.2816
 4507TIP3    H234937   0.955   2.621  15.622 -0.3631  0.3782 -0.1398
 4508TIP3   OH234938   6.213   0.140   3.033  0.1760 -0.3377  0.0586
 4508TIP3    H134939   6.281   0.181   2.979  1.3523 -0.5790  1.3404
 4508TIP3    H234940   6.135   0.138   2.976  0.4630  2.4390 -0.4851
 4509TIP3   OH234941   0.976   5.151  12.936 -0.0204  0.4375  0.0805
 4509TIP3    H134942   0.942   5.169  13.023 -0.1450  0.5769  0.0015
 4509TIP3    H234943   0.985   5.055  12.933  1.3460  0.5297  0.7578
 4510TIP3   OH234944   5.044   5.030  11.603  0.6681 -0.7913 -0.2061
 4510TIP3    H134945   5.120   5.018  11.661  0.7391  2.0365  0.3618
 4510TIP3    H234946   5.066   5.107  11.550 -2.0942  0.5630  0.5004
 4511TIP3   OH234947   1.155   3.612   1.721  0.4961 -0.2498  0.2597
 4511TIP3    H134948   1.239   3.606   1.676  0.2753  0.2856 -0.2174
 4511TIP3    H234949   1.161   3.546   1.791  0.7643 -1.2046 -0.6552
 4512TIP3   OH234950   2.431   6.307  15.739  0.6112  0.3652 -0.6614
 4512TIP3    H134951   2.409   6.241  15.806 -0.7497  0.9129 -0.5398
 4512TIP3    H234952   2.526   6.312  15.740  0.6436 -0.3057  0.5965
 4513TIP3   OH234953   4.250   5.804   0.397  0.2375  0.2897 -0.8272
 4513TIP3    H134954   4.308   5.730   0.413 -0.2931 -0.0354 -0.3745
 4513TIP3    H234955   4.231   5.799   0.303 -1.4332 -1.3874 -0.4339
 4514TIP3   OH234956   2.532   5.133  15.872  0.1450  0.0848  0.2185
 4514TIP3    H134957   2.492   5.215  15.902 -2.0579 -0.6508 -0.6601
 4514TIP3    H234958   2.491   5.115  15.788  1.3444 -1.4077 -0.0698
 4515TIP3   OH234959   6.335   4.250   5.019  0.7144  0.0214  0.1651
 4515TIP3    H134960   6.260   4.192   5.004  1.1710 -0.9470  1.6207
 4515TIP3    H234961   6.318   4.290   5.104  1.8075 -0.1418  0.4673
 4516TIP3   OH234962   0.565   6.157   2.954 -0.2392 -0.9791  0.5830
 4516TIP3    H134963   0.603   6.116   2.876  1.1944 -0.3017  0.9235
 4516TIP3    H234964   0.492   6.099   2.977  0.9054 -2.5967  0.2552
 4517TIP3   OH234965   0.468   0.384  16.190 -0.4937  0.6695  0.3220
 4517TIP3    H134966   0.445   0.450  16.125 -4.2708  0.7105  1.5770
 4517TIP3    H234967   0.404   0.314  16.178  1.9795 -1.7486  0.5899
 4518TIP3   OH234968   3.973   5.091  16.475  0.3707  0.4404 -0.1837
 4518TIP3    H134969   3.968   5.097  16.379  0.9514  0.1332 -0.2341
 4518TIP3    H234970   3.986   5.181  16.504 -1.5270  0.7525 -0.2865
 4519TIP3   OH234971   6.381   1.540   5.916  0.1655 -0.3475 -0.0129
 4519TIP3    H134972   6.340   1.579   5.993 -2.1487 -0.4506 -1.1238
 4519TIP3    H234973   6.332   1.577   5.842  0.3550 -2.5219 -1.2745
 4520TIP3   OH234974   3.045   2.445  15.867  0.1846 -0.2044  0.2528
 4520TIP3    H134975   3.008   2.361  15.894  2.4181 -1.6524 -1.0134
 4520TIP3    H234976   3.086   2.427  15.782 -1.0388  2.6625 -1.0101
 4521TIP3   OH234977   3.726   2.578   5.370 -0.4468  0.1414 -0.4537
 4521TIP3    H134978   3.673   2.657   5.376 -0.1121  0.4808 -1.7382
 4521TIP3    H234979   3.789   2.585   5.441  0.3101  1.5835 -1.2639
 4522TIP3   OH234980   2.949   2.516   5.789  0.2585 -0.4902  0.0877
 4522TIP3    H134981   3.003   2.499   5.867  1.9348 -0.4780 -1.0554
 4522TIP3    H234982   2.908   2.601   5.807  1.2925 -0.0890  0.5919
 4523TIP3   OH234983   4.569   3.285   2.755 -0.8466 -0.1228  0.1176
 4523TIP3    H134984   4.502   3.284   2.687  0.0553 -0.4390 -0.7729
 4523TIP3    H234985   4.565   3.373   2.792 -1.2934  0.0708 -0.3859
 4524TIP3   OH234986   3.047   2.899  12.867 -0.0055 -0.0789 -0.2158
 4524TIP3    H134987   2.974   2.850  12.904  0.4541 -0.0492  0.7532
 4524TIP3    H234988   3.025   2.991  12.883  0.5351 -0.0946  0.6450
 4525TIP3   OH234989   3.362   3.990   1.434 -0.2728  0.1159 -0.3580
 4525TIP3    H134990   3.409   3.908   1.421  0.0281  0.7287 -3.5037
 4525TIP3    H234991   3.421   4.044   1.487 -0.5050 -1.6471  1.7960
 4526TIP3   OH234992   5.259   2.629   4.937  0.0973  0.2201  0.0323
 4526TIP3    H134993   5.351   2.628   4.965  0.1986 -0.0829 -0.3038
 4526TIP3    H234994   5.212   2.584   5.007  0.5730 -2.0321 -1.0491
 4527TIP3   OH234995   5.483   6.085  11.806  0.0203  0.4969  0.6841
 4527TIP3    H134996   5.390   6.089  11.831  0.0322 -0.8064  0.9733
 4527TIP3    H234997   5.483   6.045  11.719  0.3973 -0.9030  1.3113
 4528TIP3   OH234998   2.356   1.865   3.514 -0.3440 -0.0157 -0.7675
 4528TIP3    H134999   2.363   1.864   3.610 -0.6258  2.2819 -0.7130
 4528TIP3    H235000   2.283   1.923   3.496 -0.6850 -0.9270 -2.3809
 4529TIP3   OH235001   6.240   2.281  13.257 -0.1216 -0.0846 -0.3526
 4529TIP3    H135002   6.245   2.186  13.267 -0.6696  0.0903  1.7525
 4529TIP3    H235003   6.280   2.298  13.171  2.1276 -1.9722  0.2732
 4530TIP3   OH235004   2.792   0.131  10.777  0.0512 -0.3049  0.1751
 4530TIP3    H135005   2.831   0.218  10.788 -0.3354 -0.1463  0.2938
 4530TIP3    H235006   2.699   0.145  10.791  0.0629 -0.8586  0.8211
 4531TIP3   OH235007   6.674   0.158   0.086 -0.1271 -0.2276  0.1807
 4531TIP3    H135008   6.663   0.105   0.165 -0.1724 -0.9121 -0.2859
 4531TIP3    H235009   6.766   0.146   0.062 -0.2357 -0.3966 -0.1439
 4532TIP3   OH235010   4.265   3.381  15.730  0.2235 -0.4544  0.2496
 4532TIP3    H135011   4.239   3.345  15.645 -0.5479 -2.2177  1.1996
 4532TIP3    H235012   4.183   3.398  15.775  0.6346 -1.2055  1.3115
 4533TIP3   OH235013   6.744   4.635  13.418 -0.1993  0.0408 -0.5150
 4533TIP3    H135014   6.669   4.576  13.410  1.9837 -2.9498  0.0823
 4533TIP3    H235015   6.756   4.645  13.513  0.0198  0.6898 -0.6098
 4534TIP3   OH235016   5.999   6.186  13.287  0.5810 -0.3482  0.2872
 4534TIP3    H135017   6.003   6.115  13.351 -1.9435 -1.6640 -0.9222
 4534TIP3    H235018   5.915   6.229  13.305  0.5651  0.2445 -1.1313
 4535TIP3   OH235019   1.977   0.864   2.614 -0.1840 -0.0507  0.0702
 4535TIP3    H135020   1.906   0.927   2.595  0.5119  0.7151 -0.0151
 4535TIP3    H235021   1.944   0.812   2.687  0.7724  2.9817  2.7901
 4536TIP3   OH235022   5.803   6.767   0.970 -0.5458  0.7377  0.1686
 4536TIP3    H135023   5.776   6.687   1.016  0.1065 -0.9174 -2.2227
 4536TIP3    H235024   5.729   6.786   0.912  0.5613  0.0687 -1.4985
 4537TIP3   OH235025   2.672   5.917   5.461 -0.0471 -0.1932  0.2045
 4537TIP3    H135026   2.673   5.994   5.517  0.0450 -0.1092  0.0882
 4537TIP3    H235027   2.733   5.856   5.502 -0.1668 -0.2293  0.3307
 4538TIP3   OH235028   2.485   3.510   2.436  0.0935  0.4277 -0.6682
 4538TIP3    H135029   2.487   3.500   2.531 -2.0037  1.4471 -0.5020
 4538TIP3    H235030   2.549   3.446   2.405  1.1217  0.3768  1.4357
 4539TIP3   OH235031   0.537   3.850  12.838 -0.3866 -0.1071  0.0961
 4539TIP3    H135032   0.448   3.879  12.861 -0.2583 -0.5304  1.1945
 4539TIP3    H235033   0.529   3.817  12.749 -0.9975  1.2871 -0.3775
 4540TIP3   OH235034   2.081   4.471  14.202 -0.4602  0.1397 -0.5302
 4540TIP3    H135035   2.057   4.550  14.153  1.6619 -0.2636 -2.2924
 4540TIP3    H235036   2.006   4.412  14.190 -0.9010  0.8698 -1.4861
 4541TIP3   OH235037   3.011   1.390  12.087 -0.3472 -1.1607  0.2976
 4541TIP3    H135038   2.926   1.363  12.121 -0.9597  0.8584  0.4243
 4541TIP3    H235039   3.071   1.377  12.161 -1.2369  0.9272  1.4215
 4542TIP3   OH235040   3.726   1.392   5.320  0.1429  0.0355 -0.3269
 4542TIP3    H135041   3.771   1.472   5.345  0.4843  0.3274 -1.8594
 4542TIP3    H235042   3.636   1.419   5.303  0.1259 -0.0079 -0.3077
 4543TIP3   OH235043   2.979   6.612  12.392  0.5141 -0.1712  0.2498
 4543TIP3    H135044   3.026   6.629  12.474  0.4636  2.1339 -0.1524
 4543TIP3    H235045   3.016   6.530  12.359  2.2509  0.1494  1.3639
 4544TIP3   OH235046   5.309   6.522  13.401  0.2488  0.1401 -0.1531
 4544TIP3    H135047   5.267   6.603  13.430  0.4003  0.8506 -1.8552
 4544TIP3    H235048   5.390   6.550  13.359 -0.9736 -0.6174 -3.2071
 4545TIP3   OH235049   2.578   3.901   2.091 -0.3296 -0.0089  0.0986
 4545TIP3    H135050   2.548   3.845   2.020 -0.1062  0.7483 -0.5979
 4545TIP3    H235051   2.596   3.985   2.050  0.0417  0.3659  1.0056
 4546TIP3   OH235052   3.144   2.715   1.752  0.3098  0.9076  0.0911
 4546TIP3    H135053   3.063   2.722   1.701  0.1284  2.1514  0.5394
 4546TIP3    H235054   3.115   2.696   1.841  0.5719  0.0360 -0.0040
 4547TIP3   OH235055   1.888   4.420  11.504  0.3299 -0.5483 -0.0992
 4547TIP3    H135056   1.890   4.506  11.462  1.4939 -0.7102 -0.3988
 4547TIP3    H235057   1.970   4.379  11.478 -0.0097 -1.5716  0.4233
 4548TIP3   OH235058   0.758   0.264   4.469 -0.3426  0.4017 -0.0231
 4548TIP3    H135059   0.677   0.309   4.445  0.1635  1.0726 -0.4618
 4548TIP3    H235060   0.756   0.262   4.565 -0.8416  0.4842 -0.0303
 4549TIP3   OH235061   3.333   0.709   2.196 -0.1121  0.3333 -0.4295
 4549TIP3    H135062   3.386   0.663   2.130  2.3784  2.3189  0.0844
 4549TIP3    H235063   3.277   0.767   2.145 -0.2765 -0.2566 -0.9247
 4550TIP3   OH235064   2.465   0.924  11.184  0.3781  0.3118 -0.8306
 4550TIP3    H135065   2.487   0.845  11.234  0.5674  0.6203 -0.4202
 4550TIP3    H235066   2.371   0.916  11.167  0.0185  0.8745  0.7767
 4551TIP3   OH235067   1.101   5.405   0.093 -0.1122  0.4065 -0.0791
 4551TIP3    H135068   1.121   5.317   0.126  3.0363  0.9363 -0.3863
 4551TIP3    H235069   1.123   5.401   0.000  0.7654  1.6908  0.0596
 4552TIP3   OH235070   0.909   4.765   1.596  0.4506 -0.0712 -0.3449
 4552TIP3    H135071   0.992   4.810   1.583  0.5108  0.1857  0.9086
 4552TIP3    H235072   0.843   4.834   1.587  0.4282 -0.1011 -0.4088
 4553TIP3   OH235073   5.866   5.233   3.971 -0.2923 -0.1609 -0.6346
 4553TIP3    H135074   5.836   5.144   3.987 -1.5638  0.1042 -1.4599
 4553TIP3    H235075   5.934   5.224   3.904  0.4518 -0.6206  0.1729
 4554TIP3   OH235076   6.773   5.584   5.810  0.2057 -0.8686 -0.3242
 4554TIP3    H135077   6.706   5.561   5.875  0.0462 -1.2040 -0.6100
 4554TIP3    H235078   6.855   5.583   5.859  0.1061 -1.2833 -0.1621
 4555TIP3   OH235079   3.167   0.215   4.455  0.2575  0.5450 -0.3060
 4555TIP3    H135080   3.078   0.204   4.489  0.2368  1.1410 -0.1556
 4555TIP3    H235081   3.220   0.235   4.533  0.6220 -0.3170 -0.3217
 4556TIP3   OH235082   5.501   0.315   4.731  0.3576  0.1374  0.2269
 4556TIP3    H135083   5.493   0.236   4.679  0.3822 -0.6232  1.3733
 4556TIP3    H235084   5.412   0.349   4.739  0.2608 -0.1483  0.3324
 4557TIP3   OH235085   6.201   0.214   3.498  0.4430 -0.0344  0.1358
 4557TIP3    H135086   6.169   0.248   3.414  1.5675 -2.7889 -1.4970
 4557TIP3    H235087   6.138   0.145   3.521  0.3858  0.4091  1.3332
 4558TIP3   OH235088   2.142   0.271  11.794 -0.1555 -1.0690 -0.3374
 4558TIP3    H135089   2.198   0.259  11.870  0.1826 -1.1374 -0.5975
 4558TIP3    H235090   2.060   0.227  11.817 -1.2317  1.5925  1.2868
 4559TIP3   OH235091   0.808   6.388  13.223  0.2125 -0.0295 -0.0803
 4559TIP3    H135092   0.770   6.437  13.296 -0.7582 -1.7496  0.6187
 4559TIP3    H235093   0.854   6.315  13.265  1.0500 -0.1145 -1.1218
 4560TIP3   OH235094   1.879   3.241  12.957  0.4557  0.0468  0.2893
 4560TIP3    H135095   1.884   3.336  12.949 -2.0785  0.2693  0.7866
 4560TIP3    H235096   1.797   3.218  12.912  1.4103 -1.9844 -0.4548
 4561TIP3   OH235097   0.483   3.045  16.951  0.0575  0.5542 -0.3075
 4561TIP3    H135098   0.505   3.126  16.905 -0.6112 -0.3116 -2.2123
 4561TIP3    H235099   0.390   3.031  16.933 -0.1173 -0.0471  0.9682
 4562TIP3   OH235100   5.930   4.572   0.757  0.4966  0.4572  0.2366
 4562TIP3    H135101   5.849   4.612   0.790 -0.8756 -0.9898 -1.2759
 4562TIP3    H235102   5.997   4.597   0.821 -1.5038  0.1397  2.5303
 4563TIP3   OH235103   2.451   1.154   2.252  0.1328 -0.0265  0.0754
 4563TIP3    H135104   2.492   1.167   2.167 -0.4542 -2.0245 -0.5268
 4563TIP3    H235105   2.519   1.113   2.306 -0.5243 -1.8371 -0.4401
 4564TIP3   OH235106   0.462   5.619  10.586  0.6238 -0.3507  0.4952
 4564TIP3    H135107   0.547   5.644  10.550  0.5933 -2.7054 -1.3346
 4564TIP3    H235108   0.399   5.637  10.517  0.1380 -1.9923  0.4830
 4565TIP3   OH235109   0.553   1.667   2.011 -0.2479  0.1675 -0.2742
 4565TIP3    H135110   0.622   1.710   2.062 -0.5570  2.0532 -1.4070
 4565TIP3    H235111   0.572   1.573   2.020 -0.0833  0.4275  3.0078
 4566TIP3   OH235112   3.228   3.197  12.136  0.3445  0.8531 -0.0202
 4566TIP3    H135113   3.177   3.278  12.135  1.1679  1.3767 -1.3521
 4566TIP3    H235114   3.184   3.139  12.074 -0.7497 -0.0604  1.5781
 4567TIP3   OH235115   3.685   5.854  17.165  0.2156  0.1480 -0.3575
 4567TIP3    H135116   3.681   5.938  17.212  0.4066  0.2984 -0.6080
 4567TIP3    H235117   3.617   5.862  17.098 -0.2952 -0.2036  0.1079
 4568TIP3   OH235118   3.000   3.585  13.682  0.4421  0.1222 -0.4432
 4568TIP3    H135119   3.093   3.576  13.702  0.6894 -0.3310 -1.6990
 4568TIP3    H235120   2.990   3.539  13.598 -1.1612 -0.9379  0.3065
 4569TIP3   OH235121   3.547   1.251  11.081 -0.3869 -0.1122  0.6929
 4569TIP3    H135122   3.468   1.276  11.033 -0.4750 -0.0305  0.8778
 4569TIP3    H235123   3.615   1.311  11.048  0.4369 -2.3854 -1.9385
 4570TIP3   OH235124   4.474   1.537   3.257 -0.3169 -0.5116  0.2150
 4570TIP3    H135125   4.382   1.548   3.232 -0.4206  0.6746  1.0542
 4570TIP3    H235126   4.521   1.601   3.205  0.0178 -1.0114 -0.1006
 4571TIP3   OH235127   3.638   5.377  14.969 -0.1601 -0.0128 -0.2541
 4571TIP3    H135128   3.722   5.405  14.932  0.1372 -2.0953 -1.2493
 4571TIP3    H235129   3.659   5.297  15.018 -1.1064  0.9804  1.7971
 4572TIP3   OH235130   5.639   5.100  14.961 -0.3403 -0.4866 -0.2398
 4572TIP3    H135131   5.544   5.102  14.950 -0.4525  0.1014  0.7238
 4572TIP3    H235132   5.673   5.157  14.893 -0.8304  1.0480  0.7778
 4573TIP3   OH235133   3.121   1.850   0.284 -0.2079 -0.3279 -0.2456
 4573TIP3    H135134   3.073   1.768   0.293  1.5985 -1.1835  2.2441
 4573TIP3    H235135   3.184   1.833   0.214 -0.9730 -0.4764 -0.9050
 4574TIP3   OH235136   1.140   5.445   0.693 -0.7181 -0.5441  0.3497
 4574TIP3    H135137   1.114   5.521   0.641  0.7711  0.7490  1.4400
 4574TIP3    H235138   1.069   5.433   0.756 -1.0524 -0.1741  0.0472
 4575TIP3   OH235139   5.243   2.319  15.557 -0.1640  0.0880  0.5834
 4575TIP3    H135140   5.238   2.224  15.567  0.5193 -0.0700 -0.5535
 4575TIP3    H235141   5.286   2.332  15.473 -1.3250  1.4048  0.1731
 4576TIP3   OH235142   5.714   0.824   3.601  0.4797  0.0141  0.2198
 4576TIP3    H135143   5.692   0.867   3.518  0.3659  2.3074  1.3879
 4576TIP3    H235144   5.639   0.768   3.620 -0.6989  1.5129  0.0769
 4577TIP3   OH235145   2.764   4.290   4.713 -0.1853  0.3601  0.3765
 4577TIP3    H135146   2.825   4.345   4.761 -0.3728  0.2241  0.7814
 4577TIP3    H235147   2.819   4.234   4.658 -0.0200  1.2807 -0.3998
 4578TIP3   OH235148   6.247   3.185  14.029  0.3350 -0.2409 -0.0249
 4578TIP3    H135149   6.210   3.186  13.940  0.7481 -2.7407 -0.2415
 4578TIP3    H235150   6.190   3.127  14.079  1.2758 -0.4542  0.8286
 4579TIP3   OH235151   4.006   1.669   5.576  0.0354  0.3545  0.0691
 4579TIP3    H135152   4.060   1.692   5.652 -1.2114  0.9883  0.7838
 4579TIP3    H235153   4.042   1.722   5.504 -1.8797  3.5570  1.3746
 4580TIP3   OH235154   5.381   6.434  16.547  0.8371 -0.7938  0.1670
 4580TIP3    H135155   5.322   6.360  16.533 -0.5595  0.2980  0.1695
 4580TIP3    H235156   5.447   6.401  16.609 -1.3489 -1.2116  2.3653
 4581TIP3   OH235157   1.121   4.776  16.744 -0.0063  0.5315  0.1735
 4581TIP3    H135158   1.091   4.855  16.788  0.9397  0.0757  1.6633
 4581TIP3    H235159   1.064   4.769  16.667 -1.6571  1.3691  1.2690
 4582TIP3   OH235160   2.348   2.848  13.251 -0.2604 -0.1452  0.1851
 4582TIP3    H135161   2.355   2.854  13.346 -0.6930 -0.2840  0.2293
 4582TIP3    H235162   2.437   2.830  13.221 -0.2112 -0.6271  0.6097
 4583TIP3   OH235163   1.361   6.574  12.541  0.2992  0.4085 -0.7049
 4583TIP3    H135164   1.286   6.524  12.510 -0.1147  0.2727  0.5176
 4583TIP3    H235165   1.397   6.615  12.462 -1.4092  0.9561 -1.2144
 4584TIP3   OH235166   0.119   6.005  16.856 -0.0995 -0.0548 -0.1679
 4584TIP3    H135167   0.068   5.929  16.826 -0.7895  0.6957 -0.9316
 4584TIP3    H235168   0.210   5.981  16.840 -0.1340 -1.7363  1.9218
 4585TIP3   OH235169   2.283   1.112   1.937 -0.4697 -0.3924  0.5523
 4585TIP3    H135170   2.284   1.089   1.844  1.3083 -0.3572  0.5424
 4585TIP3    H235171   2.197   1.150   1.952 -0.0200  1.5746 -1.5931
 4586TIP3   OH235172   6.605   5.024   1.430  0.2864  0.1929 -0.0823
 4586TIP3    H135173   6.660   5.088   1.475 -0.6064 -2.8265  5.8418
 4586TIP3    H235174   6.516   5.045   1.458 -1.0227  1.2276 -4.6299
 4587TIP3   OH235175   5.768   3.779   3.764 -0.3654 -0.0580 -0.3862
 4587TIP3    H135176   5.758   3.863   3.718  1.6584  0.4524  0.0569
 4587TIP3    H235177   5.679   3.755   3.789 -1.1400  1.2408 -1.7791
 4588TIP3   OH235178   4.855   1.358   2.995  0.0829 -0.1916 -0.5706
 4588TIP3    H135179   4.837   1.406   3.075 -0.6564 -1.6320  0.1401
 4588TIP3    H235180   4.845   1.423   2.925  2.3868  1.4689  0.6032
 4589TIP3   OH235181   5.427   5.939   6.097 -0.9162  0.1591  0.1675
 4589TIP3    H135182   5.446   5.993   6.173 -1.2758  0.1716  0.2482
 4589TIP3    H235183   5.355   5.882   6.125 -0.2679 -0.6434  0.2197
 4590TIP3   OH235184   1.574   1.967  13.925  0.6417  0.0421 -0.0946
 4590TIP3    H135185   1.505   1.937  13.984  0.6458 -0.7099 -0.4741
 4590TIP3    H235186   1.650   1.977  13.981  0.2337  0.8592  0.3223
 4591TIP3   OH235187   0.250   0.004   4.988  0.2550 -0.5613 -0.2029
 4591TIP3    H135188   0.302  -0.058   5.039  1.2115  0.7825  0.4792
 4591TIP3    H235189   0.307   0.030   4.916 -0.5411 -1.2800 -1.1173
 4592TIP3   OH235190   4.140   4.254   0.101 -0.2602 -0.0184  0.3450
 4592TIP3    H135191   4.099   4.321   0.046 -0.5636  0.9136  1.6868
 4592TIP3    H235192   4.147   4.177   0.044 -3.7217 -0.1485  0.0104
 4593TIP3   OH235193   3.108   3.263  14.278  0.2273  0.7718  0.1365
 4593TIP3    H135194   3.043   3.333  14.268 -0.8170 -0.0817  0.9113
 4593TIP3    H235195   3.067   3.199  14.336  0.5188 -1.2968 -1.8629
 4594TIP3   OH235196   2.583   1.131  12.946  0.0762 -0.2645  0.1887
 4594TIP3    H135197   2.603   1.039  12.967 -0.1515 -0.8824 -2.2000
 4594TIP3    H235198   2.632   1.148  12.866 -0.2550  1.5880  0.3700
 4595TIP3   OH235199   6.203   2.108  11.732  0.0622  0.0189 -0.9977
 4595TIP3    H135200   6.249   2.142  11.656  0.3606 -0.5162 -1.0574
 4595TIP3    H235201   6.142   2.043  11.697  0.4389 -0.4725 -0.7503
 4596TIP3   OH235202   6.364   3.383   0.379  0.0074  0.2581  0.2176
 4596TIP3    H135203   6.443   3.398   0.327 -0.5682  0.5611 -0.5669
 4596TIP3    H235204   6.391   3.404   0.469  0.7043  0.7477 -0.1011
 4597TIP3   OH235205   4.102   3.836  13.375 -0.1448  0.5403 -0.4933
 4597TIP3    H135206   4.009   3.839  13.350 -0.5146 -1.1767  0.5964
 4597TIP3    H235207   4.114   3.748  13.411  1.6333  1.1660  0.4874
 4598TIP3   OH235208   2.901   1.124   1.579  0.0282 -0.1210 -0.4281
 4598TIP3    H135209   2.983   1.167   1.604  0.6828 -1.5898  0.0193
 4598TIP3    H235210   2.832   1.180   1.614  0.8743  0.3482  0.4818
 4599TIP3   OH235211   1.640   1.973   4.312  0.0128  0.4996 -0.5480
 4599TIP3    H135212   1.677   2.023   4.239 -0.6411  0.9147 -0.5968
 4599TIP3    H235213   1.562   1.931   4.276  1.0120 -1.2587 -0.7399
 4600TIP3   OH235214   2.375   2.284   2.226  0.3499  0.3026 -0.1180
 4600TIP3    H135215   2.354   2.289   2.319  0.5771  1.0726 -0.1036
 4600TIP3    H235216   2.468   2.262   2.222  0.0376 -1.0132 -0.1707
 4601TIP3   OH235217   1.335   0.947  12.280  0.0753 -0.1047  0.0926
 4601TIP3    H135218   1.271   1.018  12.288 -1.5312 -1.3771 -1.1656
 4601TIP3    H235219   1.283   0.867  12.281  1.6397 -1.1647 -0.9149
 4602TIP3   OH235220   0.212   6.119  14.971  0.4599 -0.2227 -0.5353
 4602TIP3    H135221   0.293   6.091  15.012  0.3520  1.7000  1.0583
 4602TIP3    H235222   0.226   6.104  14.878  2.1445 -1.1238 -0.1541
 4603TIP3   OH235223   6.449   6.277  12.987  0.5616  0.1992  0.5857
 4603TIP3    H135224   6.376   6.268  13.048  0.8242 -0.9109  0.7461
 4603TIP3    H235225   6.492   6.358  13.013 -0.8715  1.1002  0.2072
 4604TIP3   OH235226   5.208   2.505   2.737  0.6302  0.1547  0.5961
 4604TIP3    H135227   5.283   2.445   2.739  0.9895  0.5047 -1.4462
 4604TIP3    H235228   5.214   2.548   2.652 -0.4251  2.0909  1.4834
 4605TIP3   OH235229   0.718   0.779  13.211  0.5705  0.2662 -0.4013
 4605TIP3    H135230   0.742   0.689  13.234 -2.3890 -0.1700  1.1801
 4605TIP3    H235231   0.756   0.833  13.280 -0.9331 -0.1799  0.7938
 4606TIP3   OH235232   3.570   2.802  15.187  0.9595 -0.4299  0.3442
 4606TIP3    H135233   3.535   2.873  15.241 -0.3931 -0.5675 -0.3347
 4606TIP3    H235234   3.538   2.722  15.230  0.9858 -0.5791  0.0877
 4607TIP3   OH235235   2.678   0.693  16.336 -0.3796  0.4816  0.1580
 4607TIP3    H135236   2.601   0.684  16.392 -1.4844  0.8509 -1.2715
 4607TIP3    H235237   2.728   0.612  16.351 -1.3549 -0.0394  0.6514
 4608TIP3   OH235238   0.824   4.707  11.575 -0.3304 -0.1049  0.1674
 4608TIP3    H135239   0.907   4.684  11.616 -0.8146 -1.0275  0.6533
 4608TIP3    H235240   0.763   4.640  11.606 -1.1365  0.2740 -0.5809
 4609TIP3   OH235241   5.701   5.041  15.247 -0.0003  0.0241  0.3009
 4609TIP3    H135242   5.659   5.059  15.162 -0.2294  0.7697  0.5663
 4609TIP3    H235243   5.655   4.965  15.282  0.2577 -0.4401 -0.3532
 4610TIP3   OH235244   1.917   6.335   2.684  0.5708  0.3414 -0.0036
 4610TIP3    H135245   1.931   6.281   2.606 -2.4193  0.2437 -0.5467
 4610TIP3    H235246   1.920   6.425   2.651 -1.7045  0.2752 -0.4565
 4611TIP3   OH235247   4.264   5.730  10.465 -0.1132 -1.0392 -0.0405
 4611TIP3    H135248   4.241   5.654  10.518  0.9076 -1.1629  0.2451
 4611TIP3    H235249   4.358   5.742  10.481 -0.7100  1.6788  1.7169
 4612TIP3   OH235250   0.732   2.749   4.005  0.2773  0.5104 -1.0143
 4612TIP3    H135251   0.678   2.826   3.992  0.0103  0.1500 -2.1656
 4612TIP3    H235252   0.765   2.757   4.094  0.0844  1.8404 -1.0499
 4613TIP3   OH235253   2.093   0.352  13.564 -0.3731 -0.5048  0.1173
 4613TIP3    H135254   2.014   0.386  13.523 -0.9380 -2.0381 -0.1201
 4613TIP3    H235255   2.065   0.320  13.650  0.4767  1.1565  1.0338
 4614TIP3   OH235256   4.270   1.933  12.352 -0.5783 -0.5617 -0.2785
 4614TIP3    H135257   4.241   1.918  12.442  1.0891 -1.7165  0.1011
 4614TIP3    H235258   4.361   1.960  12.360 -0.1309 -1.5661 -1.6577
 4615TIP3   OH235259   3.503   1.078  13.564 -0.3573  0.2752  1.0744
 4615TIP3    H135260   3.453   1.049  13.640 -1.2166 -2.0941 -0.3417
 4615TIP3    H235261   3.589   1.039  13.575 -0.3618  0.2470  1.0090
 4616TIP3   OH235262   1.901   3.572  12.961  0.4240 -0.0992 -0.4818
 4616TIP3    H135263   1.955   3.510  13.011  1.2580 -0.3726 -1.7183
 4616TIP3    H235264   1.925   3.658  12.996 -0.3513 -0.4232  0.8722
 4617TIP3   OH235265   3.977   1.350  16.055 -0.2002  0.2452  0.6119
 4617TIP3    H135266   4.072   1.347  16.046 -0.2591 -1.4843  0.4116
 4617TIP3    H235267   3.958   1.293  16.130 -1.1589 -0.2452  0.0055
 4618TIP3   OH235268   4.587   6.680  16.196  0.0247  0.0426 -0.1244
 4618TIP3    H135269   4.590   6.774  16.181  0.3453  0.0424 -0.0483
 4618TIP3    H235270   4.630   6.642  16.119  3.7208  0.1311  1.7966
 4619TIP3   OH235271   5.126   5.859   5.686  0.2320 -0.5743  0.5119
 4619TIP3    H135272   5.040   5.820   5.703 -0.2912  0.6173  0.5968
 4619TIP3    H235273   5.109   5.934   5.631  1.4401 -1.5122 -1.1991
 4620TIP3   OH235274   4.067   6.653   2.482  0.3925 -0.1274  0.0769
 4620TIP3    H135275   3.980   6.685   2.508 -0.0047 -0.2295 -1.0745
 4620TIP3    H235276   4.082   6.693   2.397  1.6547  0.1886  0.4377
 4621TIP3   OH235277   2.467   1.908  17.156  0.7471 -0.1717 -0.1150
 4621TIP3    H135278   2.375   1.892  17.176  0.9972 -0.1715  1.1354
 4621TIP3    H235279   2.476   2.003  17.157  1.2069 -0.2154  2.0233
 4622TIP3   OH235280   3.138   4.636   4.436 -0.3702 -0.0597 -0.1380
 4622TIP3    H135281   3.137   4.687   4.356 -0.6200  0.1716  0.0139
 4622TIP3    H235282   3.152   4.700   4.506  0.2091 -0.3036 -0.0293
 4623TIP3   OH235283   4.723   6.048  12.353  0.2584  0.4251 -0.1756
 4623TIP3    H135284   4.643   5.998  12.372  1.6482 -1.9269 -0.2809
 4623TIP3    H235285   4.744   6.025  12.262  0.8087  1.3590 -0.2862
 4624TIP3   OH235286   1.820   4.329   2.594 -0.4208  0.2794  0.4365
 4624TIP3    H135287   1.848   4.344   2.503 -0.9813  0.6732  0.3287
 4624TIP3    H235288   1.888   4.370   2.647  0.1833 -0.4086  0.2067
 4625TIP3   OH235289   0.280   5.886   4.873  0.3134 -0.0893  0.3069
 4625TIP3    H135290   0.368   5.882   4.835 -0.4939 -1.5186 -1.4808
 4625TIP3    H235291   0.283   5.823   4.945  0.0516 -2.0052 -1.3177
 4626TIP3   OH235292   5.567   5.226  12.278 -0.1521 -0.0996  0.8103
 4626TIP3    H135293   5.627   5.299  12.264  0.1659 -0.1164  2.0641
 4626TIP3    H235294   5.500   5.237  12.211 -0.2390  1.4920  1.1475
 4627TIP3   OH235295   1.708   1.338  13.178  0.2778 -0.1081  0.5053
 4627TIP3    H135296   1.792   1.312  13.216 -0.0154  0.0170  1.2525
 4627TIP3    H235297   1.712   1.434  13.176  0.1264 -0.1002  0.5987
 4628TIP3   OH235298   6.745   6.201  14.994 -0.3839  0.2988  0.1389
 4628TIP3    H135299   6.738   6.275  14.933  0.0397  0.2413  0.0163
 4628TIP3    H235300   6.837   6.175  14.990 -0.4419  0.0267  0.4923
 4629TIP3   OH235301   2.920   6.459  11.386 -0.0323  0.1612  0.2969
 4629TIP3    H135302   2.962   6.476  11.471 -2.7143 -3.8829  2.6375
 4629TIP3    H235303   2.980   6.398  11.343  0.3202  0.5939  0.1670
 4630TIP3   OH235304   4.713   2.056  14.971  0.4221 -0.6133  0.7884
 4630TIP3    H135305   4.630   2.063  14.925  0.1671 -0.3711  1.2859
 4630TIP3    H235306   4.701   1.984  15.032  0.5969 -0.6162  0.8190
 4631TIP3   OH235307   4.507   0.125   0.848  0.4254 -0.3220 -0.1379
 4631TIP3    H135308   4.479   0.034   0.846  0.6196 -0.3735 -1.6670
 4631TIP3    H235309   4.438   0.171   0.895 -0.7480 -0.9344 -1.2327
 4632TIP3   OH235310   5.173   4.791   1.671  0.0257 -0.2165  0.2233
 4632TIP3    H135311   5.217   4.844   1.604  0.0831 -1.9210 -1.1105
 4632TIP3    H235312   5.103   4.746   1.624  0.5186 -1.9935  1.1525
 4633TIP3   OH235313   4.218   6.204   4.186 -0.4025  0.2070 -0.5478
 4633TIP3    H135314   4.133   6.167   4.209 -0.6376  1.9915  1.6202
 4633TIP3    H235315   4.278   6.129   4.187 -1.2051 -0.4304  1.8890
 4634TIP3   OH235316   6.361   1.444   1.301  0.0087  0.6772 -0.1777
 4634TIP3    H135317   6.432   1.386   1.273 -0.6444  1.1658 -2.9838
 4634TIP3    H235318   6.381   1.528   1.260 -2.6372  0.5863 -1.7539
 4635TIP3   OH235319   0.485   3.081  15.187  0.0123  0.0791 -0.4975
 4635TIP3    H135320   0.577   3.104  15.176  0.6886 -0.2583  3.6855
 4635TIP3    H235321   0.441   3.165  15.203  0.0477 -0.0241  0.1508
 4636TIP3   OH235322   2.634   2.189   1.889  0.0659 -0.2869  0.4264
 4636TIP3    H135323   2.545   2.182   1.923 -0.8231  1.5879 -1.4116
 4636TIP3    H235324   2.690   2.179   1.966 -1.7237 -1.7535  1.5523
 4637TIP3   OH235325   5.131   6.003   3.825 -0.2151  0.2864  0.6689
 4637TIP3    H135326   5.200   5.956   3.872 -1.0511 -0.5159  1.1025
 4637TIP3    H235327   5.061   6.014   3.889  0.5626  3.5709  1.0702
 4638TIP3   OH235328   1.246   5.959   5.134 -0.0460 -0.1343 -0.2537
 4638TIP3    H135329   1.305   6.030   5.110 -0.1874 -0.2921 -1.0825
 4638TIP3    H235330   1.213   5.984   5.221 -0.2843  0.9363 -0.6345
 4639TIP3   OH235331   5.672   3.617   4.833 -0.1193 -0.6173  0.2685
 4639TIP3    H135332   5.589   3.658   4.857 -0.3166 -1.0796  0.3835
 4639TIP3    H235333   5.737   3.687   4.841  0.0899 -1.1288  3.7736
 4640TIP3   OH235334   1.154   0.220   2.590  0.2028  0.4514 -0.1525
 4640TIP3    H135335   1.164   0.312   2.564 -0.3255  0.3573 -0.7110
 4640TIP3    H235336   1.127   0.176   2.510  1.7038 -0.4266 -0.1906
 4641TIP3   OH235337   3.310   4.038  14.641 -0.1954 -0.5032 -0.1438
 4641TIP3    H135338   3.392   4.062  14.596 -0.8857 -0.6973 -1.5212
 4641TIP3    H235339   3.260   4.119  14.645 -0.1707 -0.5045  0.2064
 4642TIP3   OH235340   3.008   2.991   3.848  0.2893  0.2628 -0.2206
 4642TIP3    H135341   2.993   3.072   3.897 -1.3479 -0.1664  0.0075
 4642TIP3    H235342   3.016   2.923   3.916 -0.8234 -0.1529 -0.5012
 4643TIP3   OH235343   1.109   5.368  12.821 -0.2927  0.3428  0.2680
 4643TIP3    H135344   1.194   5.324  12.816  0.1764  1.2284  0.2480
 4643TIP3    H235345   1.046   5.298  12.836  0.4435 -0.3261  0.2629
 4644TIP3   OH235346   4.516   3.773  13.304 -0.4844 -0.0793 -0.5891
 4644TIP3    H135347   4.457   3.727  13.244 -0.1673 -0.3476 -0.7006
 4644TIP3    H235348   4.473   3.766  13.389 -1.2259  0.8124 -0.8776
 4645TIP3   OH235349   2.804   6.521   0.576 -0.3501  0.1361 -0.0830
 4645TIP3    H135350   2.739   6.466   0.619  0.7839  0.5151  2.1973
 4645TIP3    H235351   2.801   6.604   0.623  1.8408  0.1116  0.1632
 4646TIP3   OH235352   3.627   4.363   4.668  0.2308 -0.2007 -0.0547
 4646TIP3    H135353   3.672   4.433   4.715 -0.7154 -0.9386  2.0429
 4646TIP3    H235354   3.542   4.400   4.646  0.2019 -0.2699 -0.0589
 4647TIP3   OH235355   3.374   5.710   5.149  0.0063  0.0195 -0.1523
 4647TIP3    H135356   3.334   5.761   5.079 -0.6336  0.6887  0.6823
 4647TIP3    H235357   3.462   5.746   5.159 -0.6367  1.3568  0.8168
 4648TIP3   OH235358   1.044   4.185  13.280  0.1717  0.4577  0.4616
 4648TIP3    H135359   1.087   4.230  13.353 -0.0186  1.1856  0.1270
 4648TIP3    H235360   0.951   4.188  13.302  0.1670  0.1431  0.4857
 4649TIP3   OH235361   0.003   4.789  14.031  0.2124 -0.3097  0.1941
 4649TIP3    H135362  -0.027   4.838  14.108  1.4422 -2.0348  1.8454
 4649TIP3    H235363   0.067   4.846  13.990  0.4767  0.1291  1.1921
 4650TIP3   OH235364   4.865   2.115  17.045 -0.3570 -0.3732  0.0742
 4650TIP3    H135365   4.795   2.104  17.110  1.0006  0.7269  1.7829
 4650TIP3    H235366   4.889   2.207  17.052 -0.4532 -0.1335 -2.3355
 4651TIP3   OH235367   0.111   4.199   2.523  0.2240 -0.1753  0.0294
 4651TIP3    H135368   0.112   4.254   2.602  0.7739  1.4828 -1.0897
 4651TIP3    H235369   0.061   4.122   2.548 -1.9899  1.5637  1.1801
 4652TIP3   OH235370   5.027   1.451  16.165  0.3709  0.2701  0.2374
 4652TIP3    H135371   5.065   1.512  16.228 -1.6052  0.4777  1.2957
 4652TIP3    H235372   5.053   1.364  16.198  0.1150  0.4169  0.8458
 4653TIP3   OH235373   2.831   4.353  11.308 -0.0710  0.0099  0.0227
 4653TIP3    H135374   2.759   4.299  11.341  0.2912 -0.8009 -0.5097
 4653TIP3    H235375   2.788   4.429  11.269 -0.5466  0.5004  1.4649
 4654TIP3   OH235376   2.699   0.407  16.867  0.3624  0.1856  0.0813
 4654TIP3    H135377   2.691   0.457  16.948  3.0276 -0.4312  0.7605
 4654TIP3    H235378   2.716   0.473  16.799  2.9296  0.3250  0.8227
 4655TIP3   OH235379   3.676   6.226   3.857 -0.1811  0.2481 -0.4503
 4655TIP3    H135380   3.708   6.275   3.781 -0.2636 -0.6215 -1.0560
 4655TIP3    H235381   3.586   6.204   3.835 -0.3305  0.3398  0.0752
 4656TIP3   OH235382   5.008   2.802  15.706 -0.1066 -0.6737  0.0734
 4656TIP3    H135383   4.974   2.737  15.767  0.5458  0.7352  2.0146
 4656TIP3    H235384   5.054   2.751  15.639  1.5932 -2.1785  2.3170
 4657TIP3   OH235385   5.287   4.074   2.916 -0.5857  0.3655  0.0164
 4657TIP3    H135386   5.238   4.045   2.993 -1.9953  0.8145 -0.6839
 4657TIP3    H235387   5.379   4.066   2.941 -0.8720 -4.5479 -0.1295
 4658TIP3   OH235388   6.100   6.076  15.022 -0.0775 -0.3080 -0.0374
 4658TIP3    H135389   6.139   6.157  14.989 -0.8295 -0.0253 -0.2432
 4658TIP3    H235390   6.142   6.007  14.969 -2.7026  0.2761 -3.0629
 4659TIP3   OH235391   0.663   2.295  13.787  0.3184  0.5584 -0.7298
 4659TIP3    H135392   0.696   2.327  13.871  1.8694  0.6711 -1.3533
 4659TIP3    H235393   0.627   2.208  13.806  1.5998  0.1465 -0.1163
 4660TIP3   OH235394   2.069   1.134  16.564  0.1376 -0.3217  0.2400
 4660TIP3    H135395   2.078   1.123  16.659  0.2530 -0.0543  0.2643
 4660TIP3    H235396   2.114   1.217  16.546 -0.7140  0.1126  0.0849
 4661TIP3   OH235397   5.737   2.671   3.664 -0.1617 -0.0655 -0.4258
 4661TIP3    H135398   5.789   2.716   3.731 -0.1043 -0.0703 -0.4663
 4661TIP3    H235399   5.776   2.584   3.658  0.7643  0.4066 -1.4910
 4662TIP3   OH235400   5.111   1.300   4.537 -0.8252  0.2626 -0.6979
 4662TIP3    H135401   5.190   1.348   4.562 -1.0405  0.9881 -1.3822
 4662TIP3    H235402   5.043   1.333   4.594 -0.6621 -0.2773 -0.1882
 4663TIP3   OH235403   4.037   5.904   1.158 -0.2031 -0.7855  0.4438
 4663TIP3    H135404   4.099   5.971   1.186  0.8244 -1.3448 -0.4931
 4663TIP3    H235405   3.986   5.945   1.088  1.1416 -1.3151 -0.8704
 4664TIP3   OH235406   4.886   3.283   3.326  0.1179 -0.0237  0.1683
 4664TIP3    H135407   4.841   3.258   3.407  2.2383 -0.6483  1.2000
 4664TIP3    H235408   4.851   3.223   3.260 -0.3646 -0.6877  1.0102
 4665TIP3   OH235409   3.850   0.832  17.106  0.1950 -0.2334 -0.1720
 4665TIP3    H135410   3.930   0.871  17.140 -0.3322  1.0364 -0.3608
 4665TIP3    H235411   3.828   0.884  17.029  0.2155 -1.7506 -1.2345
 4666TIP3   OH235412   3.598   0.383   0.381  0.0183  0.3782 -0.2087
 4666TIP3    H135413   3.557   0.469   0.366  0.6295  0.4439 -1.5494
 4666TIP3    H235414   3.607   0.346   0.293  1.3422 -0.3270  0.2260
 4667TIP3   OH235415   4.278   4.107  16.634  0.1012  0.3349  0.3097
 4667TIP3    H135416   4.338   4.093  16.560 -1.7795 -0.1803 -1.1518
 4667TIP3    H235417   4.195   4.130  16.594 -1.4645 -1.7919  2.1786
 4668TIP3   OH235418   1.397   3.383  15.878 -0.5694 -0.1839 -0.2461
 4668TIP3    H135419   1.409   3.331  15.957 -0.8603 -0.9450 -0.6950
 4668TIP3    H235420   1.485   3.411  15.853 -0.3037 -1.2363 -0.5130
 4669TIP3   OH235421   6.053   5.750  12.693 -0.0558  0.4234 -0.1035
 4669TIP3    H135422   6.144   5.754  12.664  0.6003 -1.4788  1.5923
 4669TIP3    H235423   6.058   5.753  12.789 -1.9008  2.0510 -0.0151
 4670TIP3   OH235424   4.903   1.129  16.073 -0.1662  0.0772  0.1788
 4670TIP3    H135425   4.852   1.209  16.060 -0.3169 -0.1453 -0.6097
 4670TIP3    H235426   4.981   1.157  16.120 -0.1195  0.7148 -0.2869
 4671TIP3   OH235427   0.248   4.532   4.554  0.5811 -0.5397  0.2898
 4671TIP3    H135428   0.162   4.491   4.547  0.6225 -0.3778 -1.3315
 4671TIP3    H235429   0.286   4.523   4.467  1.9891 -0.1127  0.8418
 4672TIP3   OH235430   5.613   6.386  10.428 -0.7356  0.5730 -0.7402
 4672TIP3    H135431   5.564   6.323  10.375 -0.8887  0.0038  0.0667
 4672TIP3    H235432   5.688   6.337  10.461 -1.9624  0.1759  1.6116
 4673TIP3   OH235433   3.014   0.703   5.574  0.8020 -0.6256  0.2298
 4673TIP3    H135434   3.005   0.612   5.547  0.0302 -0.7395  0.8355
 4673TIP3    H235435   3.100   0.730   5.542  0.0809 -0.8605 -1.9627
 4674TIP3   OH235436   1.902   6.039   4.377 -0.4771  0.1369  0.0622
 4674TIP3    H135437   1.933   5.953   4.404 -1.0500 -0.7424 -1.9893
 4674TIP3    H235438   1.982   6.086   4.349 -0.3319 -0.1839 -0.0584
 4675TIP3   OH235439   6.005   3.358  14.573  0.6361  0.0178 -0.2869
 4675TIP3    H135440   6.052   3.429  14.528  0.0555 -0.7441 -2.1669
 4675TIP3    H235441   6.050   3.278  14.546 -0.9176 -0.6139 -1.0798
 4676TIP3   OH235442   5.917   4.409  12.718 -0.6728 -0.1433 -0.3885
 4676TIP3    H135443   5.873   4.494  12.715 -0.5803 -0.0961 -0.4140
 4676TIP3    H235444   5.968   4.412  12.799  0.6038  0.4611 -1.2087
 4677TIP3   OH235445   3.083   5.423  17.238  0.0422 -0.3853 -0.2752
 4677TIP3    H135446   3.033   5.477  17.300 -0.9249 -0.0063 -1.3769
 4677TIP3    H235447   3.061   5.458  17.152  0.1389 -1.9345 -0.9478
 4678TIP3   OH235448   1.662   3.797   0.984  0.3256 -0.0281  0.2538
 4678TIP3    H135449   1.677   3.883   0.944  0.8924  0.0289  0.5933
 4678TIP3    H235450   1.750   3.766   1.007  0.0205 -0.1352  1.3032
 4679TIP3   OH235451   6.643   2.083  13.423 -0.3789 -0.0022  0.0055
 4679TIP3    H135452   6.577   2.081  13.492 -0.8138 -0.2771 -0.4155
 4679TIP3    H235453   6.720   2.040  13.462 -1.0555 -1.3678 -0.1156
 4680TIP3   OH235454   5.925   4.406   1.592  0.3443 -0.5516  0.0579
 4680TIP3    H135455   6.000   4.442   1.641 -0.1878  0.2273  0.2933
 4680TIP3    H235456   5.869   4.368   1.660 -0.2304  0.2305  0.0119
 4681TIP3   OH235457   4.531   4.954   3.880 -0.0501 -0.4649 -0.1083
 4681TIP3    H135458   4.586   4.953   3.958 -0.9467  0.5288  0.5503
 4681TIP3    H235459   4.523   4.862   3.854  0.3616 -0.7792  0.8754
 4682TIP3   OH235460   3.840   1.560  12.794  0.4005  0.3666  0.0162
 4682TIP3    H135461   3.806   1.648  12.813  0.3384  0.4501 -0.4687
 4682TIP3    H235462   3.888   1.570  12.712  0.0876 -0.1272 -0.2331
 4683TIP3   OH235463   2.671   4.145   1.989  0.5227 -1.2252 -0.3024
 4683TIP3    H135464   2.650   4.212   2.054  1.1803 -2.7223  1.5017
 4683TIP3    H235465   2.763   4.161   1.967  0.0930 -0.2432 -1.4935
 4684TIP3   OH235466   1.756   5.267  12.654 -0.2674  0.0904 -0.0937
 4684TIP3    H135467   1.776   5.224  12.737  1.2877 -0.1782 -0.5875
 4684TIP3    H235468   1.803   5.215  12.588 -0.6957  0.8663 -1.0236
 4685TIP3   OH235469   6.074   0.340  13.952  0.1464 -0.5173  0.2627
 4685TIP3    H135470   6.054   0.278  14.022 -0.0387  0.0003  0.6747
 4685TIP3    H235471   6.168   0.330  13.936  0.2468 -0.4330  0.7871
 4686TIP3   OH235472   4.567   2.499   0.491  0.3721 -0.0976 -0.0149
 4686TIP3    H135473   4.482   2.478   0.451  0.9351 -0.3637 -1.0722
 4686TIP3    H235474   4.615   2.416   0.490  0.8082  0.1525  0.2052
 4687TIP3   OH235475   3.236   6.023   2.291  0.2576  0.2480 -0.2400
 4687TIP3    H135476   3.274   5.969   2.360 -0.4489  1.2239  0.9464
 4687TIP3    H235477   3.161   6.066   2.333 -1.9173 -1.2789 -2.3795
 4688TIP3   OH235478   5.677   0.425   2.512 -0.3191 -0.2991 -0.2091
 4688TIP3    H135479   5.662   0.505   2.462  0.0118  0.2598  0.5898
 4688TIP3    H235480   5.638   0.356   2.458  2.6468 -0.1211 -2.6989
 4689TIP3   OH235481   3.314   1.513  14.690  0.1786  0.1925 -0.4634
 4689TIP3    H135482   3.282   1.432  14.650  1.9449 -0.2894 -0.9708
 4689TIP3    H235483   3.392   1.486  14.738  1.1556  1.6996 -1.1602
 4690TIP3   OH235484   3.995   0.771   1.732  0.0335 -0.0779  0.0694
 4690TIP3    H135485   4.077   0.801   1.692  0.2918 -1.0284 -0.1134
 4690TIP3    H235486   3.938   0.848   1.729  0.0214 -0.1470 -2.2095
 4691TIP3   OH235487   2.027   0.234   6.037 -0.4922 -0.0775 -0.2967
 4691TIP3    H135488   2.049   0.318   6.076  1.6509 -0.0806 -1.4113
 4691TIP3    H235489   2.100   0.176   6.061 -0.8315 -1.0012 -1.4337
 4692TIP3   OH235490   6.729   6.758   6.216  0.2688 -0.0204 -0.2518
 4692TIP3    H135491   6.815   6.767   6.256  0.5091  0.6745 -0.9201
 4692TIP3    H235492   6.747   6.733   6.125 -0.2628 -1.1923 -0.0418
 4693TIP3   OH235493   4.540   0.757  14.243  0.3770 -0.2638 -0.2723
 4693TIP3    H135494   4.481   0.784  14.174 -0.3286 -0.1788  0.3562
 4693TIP3    H235495   4.626   0.791  14.216  0.3288 -1.2014 -1.6409
 4694TIP3   OH235496   0.346   2.294   4.594 -0.4358 -0.3210 -0.5016
 4694TIP3    H135497   0.251   2.288   4.593 -0.5151  0.8689 -0.7399
 4694TIP3    H235498   0.364   2.385   4.616  0.6517 -0.3801 -1.1215
 4695TIP3   OH235499   3.465   3.824  14.059 -0.1087 -0.1866 -0.7424
 4695TIP3    H135500   3.376   3.858  14.048  0.5051  1.6368 -0.3660
 4695TIP3    H235501   3.474   3.811  14.153  1.3932  3.7235 -0.2515
 4696TIP3   OH235502   6.729   5.469  16.990 -0.7511  0.3936  0.3752
 4696TIP3    H135503   6.672   5.459  17.066 -0.6013 -0.0945  0.4234
 4696TIP3    H235504   6.783   5.389  16.989 -0.4354  0.6074  0.0249
 4697TIP3   OH235505   3.482   0.259  14.274  0.0306 -0.5124 -0.6716
 4697TIP3    H135506   3.527   0.206  14.209  0.3168 -1.6279  0.4201
 4697TIP3    H235507   3.547   0.324  14.301 -0.0471 -0.1269 -1.3805
 4698TIP3   OH235508   4.732   4.953   1.320  0.1126 -0.0356 -0.4165
 4698TIP3    H135509   4.686   5.037   1.313 -2.9079 -1.5985 -0.0608
 4698TIP3    H235510   4.819   4.971   1.285 -0.5768  3.1607 -0.6716
 4699TIP3   OH235511   3.726   0.379  14.201 -0.1167 -0.0498  0.1061
 4699TIP3    H135512   3.738   0.444  14.132 -0.0339 -0.0655  0.1061
 4699TIP3    H235513   3.798   0.317  14.189 -0.0595 -0.0118  0.2504
 4700TIP3   OH235514   0.281   6.133   0.833  0.1489 -0.0284  0.4778
 4700TIP3    H135515   0.312   6.177   0.753  2.0026 -0.2990  1.0344
 4700TIP3    H235516   0.215   6.192   0.868 -0.6007  0.1515 -1.1958
 4701TIP3   OH235517   6.651   3.718  16.695 -0.0352  0.3081  0.2446
 4701TIP3    H135518   6.653   3.692  16.603 -3.1127 -0.2502  0.2745
 4701TIP3    H235519   6.628   3.811  16.693  0.0071  0.3239  0.4669
 4702TIP3   OH235520   2.591   5.448  11.931 -0.5161  0.2014 -0.6867
 4702TIP3    H135521   2.583   5.376  11.993  0.9314  0.5043 -0.1476
 4702TIP3    H235522   2.535   5.517  11.968 -0.8422 -0.1572 -0.5075
 4703TIP3   OH235523   1.069   3.223  15.352  0.3421  0.5242  0.3795
 4703TIP3    H135524   1.155   3.261  15.369 -0.2904  0.9871  2.6880
 4703TIP3    H235525   1.070   3.140  15.401  0.0989 -0.3123 -1.0124
 4704TIP3   OH235526   1.680   5.086   5.691  0.2256  0.0029 -0.1139
 4704TIP3    H135527   1.769   5.119   5.680 -0.4239  1.8744  0.0986
 4704TIP3    H235528   1.625   5.148   5.643 -1.1158 -0.2683  1.0385
 4705TIP3   OH235529   4.188   0.602  16.179 -0.2184  0.1655 -0.7879
 4705TIP3    H135530   4.200   0.571  16.090 -1.5589  2.0031 -1.6438
 4705TIP3    H235531   4.180   0.523  16.232  0.1712 -0.9303 -2.3634
 4706TIP3   OH235532   2.195   4.126  13.462  0.5589 -0.7882  0.0812
 4706TIP3    H135533   2.166   4.128  13.554 -0.5206 -0.8093 -0.2507
 4706TIP3    H235534   2.114   4.122  13.412  0.8473  4.7986 -1.1038
 4707TIP3   OH235535   6.251   6.655   5.228 -0.1952 -0.5275 -0.2019
 4707TIP3    H135536   6.296   6.612   5.300  0.9427 -0.4106 -0.8291
 4707TIP3    H235537   6.186   6.590   5.198  2.1763 -2.2458 -1.7975
 4708TIP3   OH235538   3.017   2.320  10.784  0.8081 -0.2923  0.4119
 4708TIP3    H135539   3.000   2.226  10.787  0.8906 -0.3027  0.6010
 4708TIP3    H235540   3.095   2.331  10.839  0.2479  0.0056  1.1643
 4709TIP3   OH235541   1.177   5.094  16.790 -0.0998 -0.4764 -0.5303
 4709TIP3    H135542   1.094   5.047  16.793 -0.4607  0.2156  0.5445
 4709TIP3    H235543   1.202   5.092  16.697 -1.9814  0.4422 -1.1036
 4710TIP3   OH235544   0.198   5.749  11.671 -0.0948  1.1382 -0.4677
 4710TIP3    H135545   0.276   5.779  11.625 -0.1800  0.9673 -0.7255
 4710TIP3    H235546   0.153   5.830  11.697 -0.6083  1.2419 -1.6510
 4711TIP3   OH235547   5.102   0.924  11.855  0.7884  0.0543  0.1288
 4711TIP3    H135548   5.160   0.953  11.926  2.0886  0.3284 -1.0230
 4711TIP3    H235549   5.161   0.906  11.782 -0.6632  1.1784 -1.3536
 4712TIP3   OH235550   3.348   0.212   2.573  0.0907  0.3279 -0.5842
 4712TIP3    H135551   3.341   0.226   2.478  1.6322  3.0216 -0.3624
 4712TIP3    H235552   3.437   0.239   2.594  0.0159 -0.9945  1.5368
 4713TIP3   OH235553   1.675   3.273   1.416  0.3021  0.1947 -0.6054
 4713TIP3    H135554   1.720   3.247   1.497 -0.5142 -0.1668 -0.2609
 4713TIP3    H235555   1.619   3.346   1.443 -1.1970 -0.9933 -0.4944
 4714TIP3   OH235556   5.240   6.534  13.101 -0.1792  0.6965  0.5518
 4714TIP3    H135557   5.288   6.460  13.063 -0.4203  1.1481 -0.6715
 4714TIP3    H235558   5.211   6.503  13.186  0.2428 -0.4099  0.3009
 4715TIP3   OH235559   0.760   1.455   3.111 -0.0338 -0.1022  0.1459
 4715TIP3    H135560   0.752   1.532   3.055 -0.0851  1.3768  2.1497
 4715TIP3    H235561   0.763   1.490   3.200 -4.1404 -2.5994  1.4083
 4716TIP3   OH235562   5.864   6.199  16.183  0.1473  0.0042  0.2191
 4716TIP3    H135563   5.821   6.168  16.103  0.4977  1.4646 -0.5486
 4716TIP3    H235564   5.915   6.124  16.214 -1.6631 -1.2489  0.2549
 4717TIP3   OH235565   3.703   2.551   2.796  0.1472  0.6329 -0.0909
 4717TIP3    H135566   3.778   2.610   2.802  0.0697  0.9106 -1.6315
 4717TIP3    H235567   3.710   2.495   2.873  0.1633  2.7126  1.4398
 4718TIP3   OH235568   2.728   5.099   2.824 -0.7832 -0.3506 -0.0125
 4718TIP3    H135569   2.699   5.190   2.830  0.5090  0.0262  0.6248
 4718TIP3    H235570   2.695   5.057   2.903 -0.7608 -0.2558  0.0474
 4719TIP3   OH235571   5.183   0.912   5.516 -0.4986 -0.3547  0.1734
 4719TIP3    H135572   5.164   0.989   5.569 -1.9028 -0.7458  0.2420
 4719TIP3    H235573   5.111   0.907   5.454 -0.2340 -1.4283 -0.0564
 4720TIP3   OH235574   4.868   4.723   1.156  0.1772  0.1419 -0.2293
 4720TIP3    H135575   4.867   4.680   1.071  1.2033 -0.0247 -0.1537
 4720TIP3    H235576   4.880   4.816   1.136 -1.4589  0.3394 -0.3598
 4721TIP3   OH235577   1.123   0.900  12.964 -0.2739  0.1612 -0.5313
 4721TIP3    H135578   1.177   0.822  12.950 -0.7139  0.4869 -4.5259
 4721TIP3    H235579   1.034   0.865  12.977 -0.0316 -0.1028  0.4751
 4722TIP3   OH235580   5.513   5.270  14.724  0.4454 -0.6449  0.4976
 4722TIP3    H135581   5.481   5.325  14.652 -0.5689 -1.2944  0.4272
 4722TIP3    H235582   5.524   5.330  14.797  1.5920  0.0465 -0.2225
 4723TIP3   OH235583   6.033   5.531  14.712 -0.3219 -0.4950 -0.2424
 4723TIP3    H135584   6.081   5.465  14.762  0.3121 -0.3647 -0.6681
 4723TIP3    H235585   6.091   5.552  14.639  0.4346  2.0509  1.0265
 4724TIP3   OH235586   1.048   4.561  13.741  0.3219  0.4490 -0.4479
 4724TIP3    H135587   1.048   4.498  13.813 -0.7017  1.0748  0.1256
 4724TIP3    H235588   0.966   4.544  13.694 -0.1312  1.5437 -0.0900
 4725TIP3   OH235589   1.894   1.652   3.313  0.3193 -0.5041  0.2988
 4725TIP3    H135590   1.969   1.651   3.254  1.3514  0.0650  1.5676
 4725TIP3    H235591   1.860   1.742   3.308 -0.2845 -0.7574 -0.2662
 4726TIP3   OH235592   5.678   1.169  16.730  0.3282 -0.2598 -0.5073
 4726TIP3    H135593   5.624   1.232  16.683 -3.0329 -0.4029  2.9065
 4726TIP3    H235594   5.745   1.222  16.773  0.5544  0.3658 -1.5965
 4727TIP3   OH235595   1.665   4.899  11.508 -0.7635 -0.5104 -0.5268
 4727TIP3    H135596   1.573   4.923  11.516 -0.7800 -0.3919 -1.0491
 4727TIP3    H235597   1.691   4.871  11.596 -0.9869  0.5637 -0.1223
 4728TIP3   OH235598   4.351   5.925  12.915  0.1167  0.2176 -0.0573
 4728TIP3    H135599   4.266   5.883  12.928 -0.1660  0.7385 -0.1958
 4728TIP3    H235600   4.400   5.865  12.860  0.0154 -0.3127  0.4274
 4729TIP3   OH235601   0.919   4.179   4.653  0.9782 -0.3659 -0.0246
 4729TIP3    H135602   0.913   4.092   4.614 -0.3315 -0.0264 -0.6242
 4729TIP3    H235603   0.848   4.180   4.718 -0.9354  1.2254 -2.0391
 4730TIP3   OH235604   1.011   2.860   2.803  0.8185 -0.5123 -0.3226
 4730TIP3    H135605   1.053   2.881   2.719  0.4075 -1.2597 -0.7126
 4730TIP3    H235606   0.997   2.766   2.800 -1.1718 -0.2441 -0.3290
 4731TIP3   OH235607   2.236   4.179   3.122 -0.2636  0.2480 -0.0981
 4731TIP3    H135608   2.269   4.175   3.212 -1.4439  3.5004  0.5247
 4731TIP3    H235609   2.147   4.214   3.129  0.1043  1.8884 -2.5964
 4732TIP3   OH235610   4.250   3.717   0.656 -1.0742  0.8524 -0.0257
 4732TIP3    H135611   4.255   3.623   0.673 -3.2282  0.4621 -1.4972
 4732TIP3    H235612   4.243   3.757   0.743 -0.1475 -0.3266  0.6016
 4733TIP3   OH235613   6.414   1.830  12.061  0.6024 -0.5636  0.5781
 4733TIP3    H135614   6.509   1.844  12.061  0.4425  0.7130 -0.8242
 4733TIP3    H235615   6.390   1.833  11.968 -0.7879 -1.0468  0.9130
 4734TIP3   OH235616   2.724   5.942   3.059 -0.0068 -0.5313 -0.4310
 4734TIP3    H135617   2.631   5.960   3.045 -0.0568 -0.0593  0.4610
 4734TIP3    H235618   2.764   5.951   2.973 -0.3080  2.1536 -0.3282
 4735TIP3   OH235619   3.231   0.569  12.560  0.1130 -0.7273 -0.2414
 4735TIP3    H135620   3.182   0.643  12.525  1.4392  0.8522  1.1216
 4735TIP3    H235621   3.323   0.593  12.548  0.5696 -2.9994 -1.4681
 4736TIP3   OH235622   1.813   4.921  13.128  0.0114  0.2282 -0.5634
 4736TIP3    H135623   1.884   4.916  13.064 -1.7601  1.2997 -2.6529
 4736TIP3    H235624   1.843   4.987  13.191  0.5587  1.2489 -1.8630
 4737TIP3   OH235625   3.350   4.482  14.506 -0.2233  0.6415  0.0350
 4737TIP3    H135626   3.293   4.458  14.578 -0.9207 -0.6515 -0.9268
 4737TIP3    H235627   3.315   4.565  14.474 -0.9580  0.3567  0.0954
 4738TIP3   OH235628   2.191   3.808   5.052  0.3356  0.3235 -0.0612
 4738TIP3    H135629   2.278   3.816   5.090  0.0000 -0.3713  0.8939
 4738TIP3    H235630   2.138   3.870   5.103  0.0132 -0.1681  0.2043
 4739TIP3   OH235631   2.822   4.300  16.741 -0.1949  0.1623 -0.0086
 4739TIP3    H135632   2.782   4.382  16.770 -1.5696 -0.7813  0.8287
 4739TIP3    H235633   2.890   4.282  16.807  0.1520  0.6530 -0.2292
 4740TIP3   OH235634   1.906   1.030  14.972  0.3123  0.3059 -0.0410
 4740TIP3    H135635   1.988   1.077  14.979  0.2773  0.3387  0.1521
 4740TIP3    H235636   1.870   1.030  15.060  1.1636 -1.6265  0.3469
 4741TIP3   OH235637   4.856   5.453  12.319  0.1208 -0.1326  0.1896
 4741TIP3    H135638   4.826   5.528  12.269  1.4814  0.4205  0.1778
 4741TIP3    H235639   4.879   5.488  12.405  0.1590 -0.6423  0.3901
 4742TIP3   OH235640   1.281   0.505  12.712 -0.4188 -0.2239 -0.1692
 4742TIP3    H135641   1.226   0.431  12.686 -2.3222  0.8249  0.7437
 4742TIP3    H235642   1.242   0.581  12.668 -0.1570  0.6455  1.0671
 4743TIP3   OH235643   0.005   3.515  12.107 -0.0248 -0.5741  0.1452
 4743TIP3    H135644   0.036   3.574  12.176  1.8368 -0.6895 -0.5513
 4743TIP3    H235645   0.078   3.455  12.093 -1.1760 -1.8303 -0.5055
 4744TIP3   OH235646   1.240   1.189  12.366 -0.5115  0.3796  0.3875
 4744TIP3    H135647   1.162   1.225  12.323 -1.4363  0.6624  2.2572
 4744TIP3    H235648   1.255   1.246  12.441  1.6269  0.4248 -0.0386
 4745TIP3   OH235649   4.593   0.934   4.370  0.2667  0.1378 -0.0834
 4745TIP3    H135650   4.638   1.005   4.324  0.0254  0.2936 -0.0751
 4745TIP3    H235651   4.664   0.874   4.395  0.9774  2.2588  3.3382
 4746TIP3   OH235652   4.890   2.416  14.409  0.0533 -0.1974 -0.1648
 4746TIP3    H135653   4.944   2.464  14.472 -0.9531 -1.5385  1.7625
 4746TIP3    H235654   4.943   2.340  14.385 -0.2522 -0.5741  0.3560
 4747TIP3   OH235655   3.804   3.848   0.173 -0.4351 -0.4189  0.3523
 4747TIP3    H135656   3.809   3.776   0.237  0.7947 -1.1016 -0.5020
 4747TIP3    H235657   3.832   3.808   0.091 -1.7254  0.5365 -0.5602
 4748TIP3   OH235658   3.976   3.385  11.424  0.3968  0.6183 -0.2690
 4748TIP3    H135659   3.992   3.471  11.463 -0.8817  1.4623 -1.5409
 4748TIP3    H235660   3.903   3.400  11.363 -1.0090 -1.7528  0.7876
 4749TIP3   OH235661   1.891   1.244   2.247  0.5700  0.0313 -0.3326
 4749TIP3    H135662   1.942   1.323   2.226  0.7964 -0.0701 -0.1630
 4749TIP3    H235663   1.957   1.176   2.259  0.4615  0.2018  1.2335
 4750TIP3   OH235664   0.702   2.275   3.906 -0.1698  0.8819 -0.2254
 4750TIP3    H135665   0.745   2.295   3.989  0.1355 -2.2332  0.4337
 4750TIP3    H235666   0.620   2.231   3.931 -0.2949  0.3479 -1.5411
 4751TIP3   OH235667   0.848   4.194  11.395 -0.4039 -0.4765  0.6310
 4751TIP3    H135668   0.818   4.133  11.463  0.9325 -0.7659  0.9646
 4751TIP3    H235669   0.908   4.253  11.440  1.1023 -1.1521 -0.4515
 4752TIP3   OH235670   3.056   2.429   2.806  0.5804 -0.3394 -0.5761
 4752TIP3    H135671   3.118   2.395   2.742  1.9493 -0.7842  0.9655
 4752TIP3    H235672   3.038   2.356   2.865 -0.1892  0.2317 -0.0808
 4753TIP3   OH235673   0.053   1.970  16.391  0.4967 -0.3547 -0.0585
 4753TIP3    H135674   0.042   2.057  16.430 -1.7045 -0.9357  0.6833
 4753TIP3    H235675   0.064   1.911  16.466  1.1835 -0.8314 -0.5259
 4754TIP3   OH235676   2.455   5.860  12.782  0.3841 -0.5717 -0.1743
 4754TIP3    H135677   2.507   5.780  12.789 -0.8028 -1.3554 -0.3263
 4754TIP3    H235678   2.364   5.831  12.792 -0.0548  0.7423 -0.2988
 4755TIP3   OH235679   6.399   4.301   4.475  0.4594 -0.2520  0.1670
 4755TIP3    H135680   6.420   4.392   4.452 -0.6626  0.4772  1.8383
 4755TIP3    H235681   6.484   4.261   4.493  0.7865  1.6429  3.3681
 4756TIP3   OH235682   6.750   6.016   1.580  0.0814 -0.1416 -0.3060
 4756TIP3    H135683   6.743   6.111   1.585 -0.2594 -0.1787 -0.0441
 4756TIP3    H235684   6.833   5.996   1.624 -0.2568 -0.0284  0.3988
 4757TIP3   OH235685   1.061   2.711  11.034 -0.0206 -0.0018  0.2986
 4757TIP3    H135686   1.106   2.770  10.973  0.9146 -1.6666 -0.6715
 4757TIP3    H235687   0.995   2.668  10.980 -0.9533  0.4232  1.0888
 4758TIP3   OH235688   1.645   3.022  16.978  0.7360 -0.4158  0.0132
 4758TIP3    H135689   1.565   2.968  16.978  0.0714  0.5274  1.4302
 4758TIP3    H235690   1.663   3.038  16.886 -0.2553 -1.3147 -0.3581
 4759TIP3   OH235691   2.069   6.621   1.124  0.0243  0.2661  0.3325
 4759TIP3    H135692   2.141   6.572   1.165 -0.3050  0.4994  1.2160
 4759TIP3    H235693   2.104   6.709   1.112  0.5655 -0.1394 -1.1148
 4760TIP3   OH235694   3.269   0.828   1.802 -0.0249 -0.1512 -0.3365
 4760TIP3    H135695   3.292   0.796   1.715 -0.6529  1.1600 -1.0057
 4760TIP3    H235696   3.351   0.859   1.839  0.5577 -2.3012  0.2454
 4761TIP3   OH235697   5.964   4.819   2.798  0.2445  0.7682  0.3758
 4761TIP3    H135698   5.973   4.842   2.891 -0.8527  0.5337  0.5439
 4761TIP3    H235699   5.902   4.747   2.796 -3.0842  3.5150 -0.8538
 4762TIP3   OH235700   2.300   5.109   1.482  0.4235  0.3885  0.1953
 4762TIP3    H135701   2.287   5.124   1.388 -0.2637  0.2599  0.2695
 4762TIP3    H235702   2.375   5.050   1.487  0.0903 -0.0751 -0.2953
 4763TIP3   OH235703   1.345   4.466  16.433  0.3513 -0.1525 -0.1790
 4763TIP3    H135704   1.285   4.413  16.380  0.8839 -0.9838  0.0385
 4763TIP3    H235705   1.417   4.487  16.373  0.0761  0.4503 -0.3046
 4764TIP3   OH235706   5.145   1.221  13.945  0.1360 -0.5160 -0.3641
 4764TIP3    H135707   5.229   1.185  13.917 -0.3380 -1.0936 -1.0751
 4764TIP3    H235708   5.164   1.267  14.026  1.1733 -0.4886 -0.6221
 4765TIP3   OH235709   0.863   2.733  14.387 -0.2250  0.0363 -0.6698
 4765TIP3    H135710   0.888   2.756  14.297 -1.7299  1.1413 -0.8219
 4765TIP3    H235711   0.886   2.810  14.439 -0.6148 -0.0714 -0.3343
 4766TIP3   OH235712   2.501   2.951   3.269 -0.6640 -0.1673 -0.8849
 4766TIP3    H135713   2.470   2.904   3.192 -1.0907  0.7402 -1.2844
 4766TIP3    H235714   2.507   3.042   3.240  0.7671 -0.0656 -0.3275
 4767TIP3   OH235715   5.865   4.000   1.994 -0.1815  0.1974 -0.2677
 4767TIP3    H135716   5.814   3.995   1.913  0.3123  0.7873 -0.6208
 4767TIP3    H235717   5.832   3.928   2.047 -1.1957  0.4054 -0.5989
 4768TIP3   OH235718   5.550   0.619   5.906 -0.3356 -0.2147 -0.0085
 4768TIP3    H135719   5.524   0.671   5.982 -2.1630 -1.4423  0.2277
 4768TIP3    H235720   5.483   0.637   5.840  0.4278 -0.3085 -0.8286
 4769TIP3   OH235721   1.743   0.257  12.322 -0.3226  0.1783  0.7565
 4769TIP3    H135722   1.777   0.270  12.234 -1.0098  1.8135  0.7077
 4769TIP3    H235723   1.782   0.175  12.352  0.6340  0.0901 -0.7182
 4770TIP3   OH235724   2.252   3.825   3.830  0.0997  0.3390 -0.0727
 4770TIP3    H135725   2.205   3.742   3.834  0.5255  0.1742  3.2365
 4770TIP3    H235726   2.261   3.844   3.737 -1.3803 -2.5302 -0.8430
 4771TIP3   OH235727   1.683   4.974   3.652 -0.0706  0.3875  0.5335
 4771TIP3    H135728   1.663   4.989   3.744 -0.1365 -0.9481  0.7467
 4771TIP3    H235729   1.744   4.900   3.652 -0.0834  0.3668 -0.4867
 4772TIP3   OH235730   6.776   3.953  14.769 -0.6087  0.3867 -0.3841
 4772TIP3    H135731   6.693   3.916  14.741  0.0076 -0.4794 -1.0754
 4772TIP3    H235732   6.816   3.989  14.690 -0.4102  0.9824 -0.0246
 4773TIP3   OH235733   4.605   2.590  11.808 -0.2121  0.5742 -0.0404
 4773TIP3    H135734   4.580   2.537  11.884 -0.2070 -0.5455 -0.8012
 4773TIP3    H235735   4.677   2.541  11.768  0.6232  1.8025 -0.0562
 4774TIP3   OH235736   4.456   2.879  14.266 -0.1838 -0.3941 -0.3276
 4774TIP3    H135737   4.436   2.785  14.262  2.2010 -0.8577 -2.3752
 4774TIP3    H235738   4.379   2.917  14.308 -1.3341 -3.2177  0.2950
 4775TIP3   OH235739   4.862   6.445   2.453 -0.1387 -0.1213  0.0416
 4775TIP3    H135740   4.910   6.508   2.398 -1.5406 -0.6445 -1.8639
 4775TIP3    H235741   4.909   6.363   2.442 -0.4550 -0.2396 -0.4362
 4776TIP3   OH235742   1.911   1.007  13.693  0.1778  0.0454 -0.3124
 4776TIP3    H135743   1.915   0.912  13.684 -1.2426 -0.2224  1.5087
 4776TIP3    H235744   1.862   1.036  13.616 -1.2546 -0.9371  0.1977
 4777TIP3   OH235745   0.446   4.398  11.975  0.1570  0.0606 -0.5828
 4777TIP3    H135746   0.450   4.303  11.974 -1.0684 -0.0158  0.6356
 4777TIP3    H235747   0.413   4.422  11.888  0.9486 -0.5908 -1.0681
 4778TIP3   OH235748   1.376   4.027   1.489 -0.0405 -0.6609 -0.1258
 4778TIP3    H135749   1.424   3.956   1.446  0.4038  0.4989 -1.5916
 4778TIP3    H235750   1.290   4.026   1.447 -0.1750 -0.6044  0.1515
 4779TIP3   OH235751   2.768   5.043  14.076  0.2090  0.1347  0.4264
 4779TIP3    H135752   2.766   4.948  14.077 -0.6424  0.1452  1.3726
 4779TIP3    H235753   2.857   5.066  14.102  0.1820 -0.4047  0.9899
 4780TIP3   OH235754   4.746   4.746  14.545 -0.5084 -0.5442  0.3236
 4780TIP3    H135755   4.690   4.750  14.622 -0.6364 -0.7729  0.2443
 4780TIP3    H235756   4.714   4.670  14.496 -0.5806 -0.2532 -0.0770
 4781TIP3   OH235757   4.534   4.358  11.653 -0.2088 -0.5616 -0.6598
 4781TIP3    H135758   4.551   4.278  11.603  0.1266  0.3144 -1.9674
 4781TIP3    H235759   4.620   4.390  11.678 -0.2985 -0.1745 -0.8374
 4782TIP3   OH235760   5.676   0.532   1.798  1.0244 -0.0727  0.3991
 4782TIP3    H135761   5.662   0.627   1.792  1.1575 -0.2373 -3.1101
 4782TIP3    H235762   5.602   0.500   1.849  1.4704  2.0067  2.4263
 4783TIP3   OH235763   0.139   3.187   2.209  0.9090 -0.1632 -0.3292
 4783TIP3    H135764   0.194   3.135   2.151  0.7477 -1.5071  0.7055
 4783TIP3    H235765   0.096   3.123   2.266 -0.2078  1.0078  0.1799
 4784TIP3   OH235766   3.664   5.716  14.870 -0.0619 -0.0622 -0.6845
 4784TIP3    H135767   3.630   5.784  14.929  1.2143 -0.1566  0.1845
 4784TIP3    H235768   3.636   5.634  14.910  0.5248 -0.1185 -0.3931
 4785TIP3   OH235769   4.231   0.209   5.357  0.6357 -0.5908 -0.2480
 4785TIP3    H135770   4.251   0.158   5.436  1.6428 -0.4403 -0.3920
 4785TIP3    H235771   4.302   0.187   5.297  0.8623  0.6949 -0.4539
 4786TIP3   OH235772   5.856   3.806   5.891  0.5642 -0.1039 -0.3963
 4786TIP3    H135773   5.817   3.721   5.912  1.0891 -0.8532 -2.3485
 4786TIP3    H235774   5.944   3.802   5.927  0.7994 -0.6288 -1.0256
 4787TIP3   OH235775   4.756   5.832  16.863  0.2096 -0.2391  1.0338
 4787TIP3    H135776   4.727   5.835  16.772 -0.3065 -4.2508  0.9939
 4787TIP3    H235777   4.851   5.830  16.858  0.1995  0.2470  0.6237
 4788TIP3   OH235778   5.894   2.540  12.535 -0.4211  0.1091 -0.1454
 4788TIP3    H135779   5.941   2.605  12.587 -0.6376  0.0946  0.0678
 4788TIP3    H235780   5.870   2.587  12.455  0.2781  0.0101 -0.4152
 4789TIP3   OH235781   1.103   1.210   2.171  0.1642  0.4099 -0.1383
 4789TIP3    H135782   1.075   1.299   2.191  0.1400  0.6018 -1.0102
 4789TIP3    H235783   1.102   1.165   2.256 -1.0517  0.8903  0.1033
 4790TIP3   OH235784   1.828   2.992   2.601 -0.3927  0.5565  0.5101
 4790TIP3    H135785   1.856   2.903   2.580 -1.3557  0.3575  0.0266
 4790TIP3    H235786   1.867   3.046   2.532 -0.2125  0.4473  0.5255
 4791TIP3   OH235787   0.335   1.327  16.446  0.2564  0.0540  0.5490
 4791TIP3    H135788   0.296   1.354  16.362  3.1419 -2.3318 -1.6847
 4791TIP3    H235789   0.284   1.250  16.472 -0.5416  0.7009  0.9285
 4792TIP3   OH235790   5.493   1.543   1.221 -0.2253 -0.4816 -0.6935
 4792TIP3    H135791   5.440   1.473   1.257  0.4583  0.4186  2.1399
 4792TIP3    H235792   5.431   1.602   1.178 -1.3321 -0.4044  0.9806
 4793TIP3   OH235793   6.420   0.658  11.115  0.0643  0.1378  0.0608
 4793TIP3    H135794   6.374   0.579  11.143 -1.3467  0.3883 -1.4449
 4793TIP3    H235795   6.457   0.634  11.030 -1.3946  1.4486 -0.9753
 4794TIP3   OH235796   0.589   2.100   2.982 -0.3307 -0.0713  0.4301
 4794TIP3    H135797   0.619   2.191   2.978  0.3934 -0.2511  1.6461
 4794TIP3    H235798   0.595   2.077   3.075 -3.1955 -0.4596  0.5831
 4795TIP3   OH235799   5.075   0.908  12.676  0.2663  0.4476  0.5130
 4795TIP3    H135800   5.128   0.952  12.610  0.9630 -1.3519 -0.1513
 4795TIP3    H235801   5.043   0.979  12.733  2.0952  1.6981  0.0072
 4796TIP3   OH235802   1.420   2.314   2.390  0.0374 -0.1498  0.2082
 4796TIP3    H135803   1.440   2.350   2.476  1.5296 -0.0014 -0.1827
 4796TIP3    H235804   1.458   2.226   2.392  1.0703  0.2738 -0.6901
 4797TIP3   OH235805   2.110   0.854  13.134 -0.0626 -0.0824 -0.2044
 4797TIP3    H135806   2.117   0.820  13.045 -0.3203 -0.5024 -0.0641
 4797TIP3    H235807   2.096   0.777  13.189 -0.7753  0.2520  0.0942
 4798TIP3   OH235808   2.682   5.530   1.167 -0.6887  0.3503  0.2604
 4798TIP3    H135809   2.596   5.545   1.208 -1.3121 -1.5424 -0.3479
 4798TIP3    H235810   2.680   5.585   1.089 -0.3706  2.2322  1.5408
 4799TIP3   OH235811   3.495   0.671  12.603  0.0662 -0.1676 -0.3686
 4799TIP3    H135812   3.468   0.663  12.695  0.1831 -1.8496 -0.4654
 4799TIP3    H235813   3.541   0.755  12.599 -0.2968  0.1133  1.0129
 4800TIP3   OH235814   2.111   6.490   0.479 -0.2163 -0.5522  0.2451
 4800TIP3    H135815   2.081   6.522   0.564 -2.9236 -0.0511 -0.8487
 4800TIP3    H235816   2.163   6.412   0.499  1.9162  1.3651  2.5531
 4801TIP3   OH235817   2.279   1.634   5.069 -0.1362 -0.1667  0.5850
 4801TIP3    H135818   2.196   1.670   5.103 -0.3667  1.4679 -1.5971
 4801TIP3    H235819   2.346   1.672   5.126 -0.6766  0.7321  0.6355
 4802TIP3   OH235820   5.610   5.553  11.478 -0.4650 -0.4043  0.0857
 4802TIP3    H135821   5.629   5.643  11.501 -1.2226 -0.1168 -0.3981
 4802TIP3    H235822   5.683   5.503  11.515 -0.7485  0.2401  1.5532
 4803TIP3   OH235823   5.037   6.722  16.590  0.4205  0.1503 -0.0477
 4803TIP3    H135824   4.989   6.663  16.648  0.1054  0.6939  0.2552
 4803TIP3    H235825   4.970   6.768  16.541  0.7152 -0.8428 -1.3880
 4804TIP3   OH235826   0.400   4.981  12.065 -0.7530  0.6747  0.0289
 4804TIP3    H135827   0.307   5.000  12.077 -0.6379  0.8991  0.6104
 4804TIP3    H235828   0.408   4.888  12.087 -1.0017  0.4072 -0.9876
 4805TIP3   OH235829   1.156   2.044  14.358  0.0257 -0.2620 -0.0017
 4805TIP3    H135830   1.087   2.050  14.424 -1.4928  0.3471 -1.5946
 4805TIP3    H235831   1.238   2.053  14.407 -1.0752  0.3182  1.7584
 4806TIP3   OH235832   1.044   6.540   3.782 -0.4514  0.5202  0.5117
 4806TIP3    H135833   1.083   6.596   3.849  1.6611  1.7394 -1.6418
 4806TIP3    H235834   1.036   6.596   3.705 -2.4695 -0.9343 -0.3922
 4807TIP3   OH235835   1.380   2.737  12.601 -0.4031  0.5502  0.2933
 4807TIP3    H135836   1.464   2.742  12.647  0.2061  2.3216 -0.9254
 4807TIP3    H235837   1.328   2.674  12.651  1.7291 -0.7358  0.9502
 4808TIP3   OH235838   5.643   2.872   1.781 -0.0941 -0.0773 -0.3022
 4808TIP3    H135839   5.620   2.928   1.855 -0.0965  0.7072 -0.8912
 4808TIP3    H235840   5.566   2.817   1.767 -0.4936  0.5114 -0.4056
 4809TIP3   OH235841   6.318   1.557  14.540  0.0082  0.0737 -0.0575
 4809TIP3    H135842   6.279   1.633  14.499 -0.8109  0.4499  1.3663
 4809TIP3    H235843   6.248   1.492  14.542  0.4727 -0.4430 -0.5771
 4810TIP3   OH235844   0.369   4.431  13.103  0.2389 -0.3573 -0.8111
 4810TIP3    H135845   0.405   4.404  13.187 -0.5366 -1.1253 -0.7132
 4810TIP3    H235846   0.342   4.349  13.062 -1.4468  0.2054 -0.8514
 4811TIP3   OH235847   2.080   0.920  16.412 -0.6697 -0.5525  0.2573
 4811TIP3    H135848   2.026   0.860  16.464  0.0494 -1.8489 -0.4703
 4811TIP3    H235849   2.081   1.001  16.463 -3.5353 -0.4026  0.1358
 4812TIP3   OH235850   3.480   4.215  13.360 -0.1600  0.0588  0.2117
 4812TIP3    H135851   3.452   4.206  13.451  0.6540 -0.3607  0.4280
 4812TIP3    H235852   3.537   4.140  13.345 -0.0946  0.2619 -0.5685
 4813TIP3   OH235853   0.210   5.218  15.990 -0.2967  0.0152  0.9055
 4813TIP3    H135854   0.175   5.305  16.011 -2.9094 -0.5973 -0.7010
 4813TIP3    H235855   0.135   5.170  15.954  1.8389 -1.9077 -1.1331
 4814TIP3   OH235856   1.297   5.962   1.247  0.3000  0.0137  0.0354
 4814TIP3    H135857   1.286   5.867   1.248 -0.5642  0.1040 -0.6531
 4814TIP3    H235858   1.289   5.986   1.155 -1.0456  0.9350  0.3879
 4815TIP3   OH235859   1.300   4.752   0.747  0.6963  0.0413  0.0808
 4815TIP3    H135860   1.327   4.699   0.672  0.5120 -0.9050  0.6576
 4815TIP3    H235861   1.304   4.842   0.717  1.4117 -0.2815 -0.8134
 4816TIP3   OH235862   5.340   0.689  15.507  0.3756  0.7938  0.1728
 4816TIP3    H135863   5.342   0.626  15.580  0.7949  1.5758  0.8462
 4816TIP3    H235864   5.275   0.653  15.446 -0.0992  0.2074  1.0116
 4817TIP3   OH235865   1.030   3.468   4.829 -0.1735 -0.1725  0.5627
 4817TIP3    H135866   1.027   3.459   4.924 -0.6259 -1.4318  0.4429
 4817TIP3    H235867   1.079   3.391   4.799 -1.7931 -0.8714 -0.3526
 4818TIP3   OH235868   1.968   4.062  11.399  0.0263 -0.1521 -0.3094
 4818TIP3    H135869   1.937   4.029  11.483  1.5123 -1.1663 -0.1292
 4818TIP3    H235870   1.919   4.011  11.334 -1.7622  1.2473 -0.0800
 4819TIP3   OH235871   3.053   4.637  13.736 -0.2430 -0.5967  0.3298
 4819TIP3    H135872   3.041   4.574  13.807  1.7998 -1.2798  0.0977
 4819TIP3    H235873   3.147   4.653  13.734 -0.5688  1.3029 -0.6276
 4820TIP3   OH235874   0.591   1.523  14.359 -0.2454 -0.2445  0.0034
 4820TIP3    H135875   0.668   1.483  14.401  0.2725  0.2338 -0.4759
 4820TIP3    H235876   0.518   1.498  14.415  0.0015 -2.2181 -0.5135
 4821TIP3   OH235877   5.161   3.820  15.229 -0.0498 -0.1532  0.2206
 4821TIP3    H135878   5.143   3.807  15.323  0.4916 -1.7957  0.1190
 4821TIP3    H235879   5.233   3.883  15.227  2.4246 -2.8213  1.0847
 4822TIP3   OH235880   2.779   5.269   0.742  0.3606 -0.5708 -0.6800
 4822TIP3    H135881   2.771   5.174   0.750  1.3152 -0.5163  1.4406
 4822TIP3    H235882   2.728   5.292   0.664  0.0930 -2.8069 -1.1820
 4823TIP3   OH235883   0.751   5.759  10.915  0.5289  0.2366 -0.2869
 4823TIP3    H135884   0.693   5.688  10.944  1.1507  0.0803  0.6129
 4823TIP3    H235885   0.782   5.731  10.829 -1.3212  0.6847 -1.1206
 4824TIP3   OH235886   6.518   1.621   0.576  1.1035 -0.1091  0.0863
 4824TIP3    H135887   6.530   1.679   0.501 -0.8491  0.3730  0.1077
 4824TIP3    H235888   6.606   1.605   0.609  1.8914  0.6096 -1.6022
 4825TIP3   OH235889   2.979   1.115   0.826  0.1521  0.4756 -0.0161
 4825TIP3    H135890   3.042   1.062   0.777  0.6514 -0.4684  1.5917
 4825TIP3    H235891   2.894   1.076   0.807  0.1925  0.9621 -1.1944
 4826TIP3   OH235892   1.673   4.496  11.079  0.6683 -0.1984 -0.2611
 4826TIP3    H135893   1.764   4.507  11.051  0.4900 -0.5521 -1.0041
 4826TIP3    H235894   1.628   4.573  11.045  0.3780 -0.8062 -1.3110
 4827TIP3   OH235895   1.320   0.947   2.717 -0.1628 -0.2941 -0.0346
 4827TIP3    H135896   1.329   0.907   2.631  1.5495  0.0136 -0.0179
 4827TIP3    H235897   1.409   0.949   2.752 -0.4789  1.8255  0.7208
 4828TIP3   OH235898   1.064   1.631  11.428  0.4233 -0.1737 -0.3671
 4828TIP3    H135899   0.989   1.627  11.368  0.6821  0.1776 -0.7169
 4828TIP3    H235900   1.041   1.572  11.500 -1.2617  1.8444  0.7779
 4829TIP3   OH235901   0.549   5.045  15.713  0.1096  0.0134 -0.0226
 4829TIP3    H135902   0.604   5.069  15.788 -0.5218 -0.9423  0.7526
 4829TIP3    H235903   0.468   5.094  15.726 -0.2355 -0.6278  0.2480
 4830TIP3   OH235904   4.548   6.291   1.809 -0.4433  0.0802 -0.0118
 4830TIP3    H135905   4.625   6.311   1.757  0.2206  0.2812  1.0260
 4830TIP3    H235906   4.561   6.338   1.891 -1.3540 -0.4108  0.4291
 4831TIP3   OH235907   1.185   5.512  15.312  0.2088 -0.2532  0.7021
 4831TIP3    H135908   1.141   5.434  15.348 -0.5326 -0.4345 -0.5590
 4831TIP3    H235909   1.140   5.586  15.354 -1.3304 -0.4362 -0.5550
 4832TIP3   OH235910   5.791   6.168  15.212  0.0793 -0.2109  0.5215
 4832TIP3    H135911   5.748   6.086  15.235 -0.1646 -0.1262  0.3739
 4832TIP3    H235912   5.818   6.156  15.121  0.0318 -0.1216  0.4957
 4833TIP3   OH235913   0.149   1.108  16.513  0.1680 -0.7205  0.0143
 4833TIP3    H135914   0.098   1.059  16.448  0.3488  0.4412 -1.0291
 4833TIP3    H235915   0.085   1.134  16.579 -0.5310  0.3375 -1.0567
 4834TIP3   OH235916   2.061   1.018   5.257  0.4568  0.4739  0.5171
 4834TIP3    H135917   1.995   1.087   5.265  1.6544  1.7233 -0.0065
 4834TIP3    H235918   2.122   1.036   5.329  0.0362 -0.9133  1.2464
 4835TIP3   OH235919   3.562   0.416   1.107 -0.8207  0.4961 -0.3834
 4835TIP3    H135920   3.520   0.395   1.024 -0.7803 -0.1107 -0.2582
 4835TIP3    H235921   3.575   0.331   1.149  0.2258  0.7012 -0.2751
 4836TIP3   OH235922   5.034   3.917   3.928 -0.0199  0.0144 -0.7789
 4836TIP3    H135923   5.043   3.829   3.966 -0.8040  0.7094  1.0716
 4836TIP3    H235924   4.996   3.902   3.842 -0.7861 -1.4314 -0.2076
 4837TIP3   OH235925   6.738   2.433  12.794 -0.0045  0.2348  0.2647
 4837TIP3    H135926   6.713   2.348  12.758 -3.7747  1.6374 -0.7818
 4837TIP3    H235927   6.685   2.442  12.873  0.7149  1.3907  0.6247
 4838TIP3   OH235928   3.435   5.120  13.658  0.3121  0.7578 -0.0383
 4838TIP3    H135929   3.404   5.132  13.568  1.5800  0.4189 -0.5230
 4838TIP3    H235930   3.530   5.110  13.650  0.4830  1.1548  1.3779
 4839TIP3   OH235931   2.733   4.010   3.271 -0.5319 -0.4012 -0.0188
 4839TIP3    H135932   2.704   3.947   3.205 -0.6450  0.3822 -0.7273
 4839TIP3    H235933   2.811   3.970   3.309 -0.1208 -0.6017 -1.0397
 4840TIP3   OH235934   6.048   1.348   3.132 -0.3578 -0.0435  0.3742
 4840TIP3    H135935   6.061   1.438   3.101  0.5094 -0.2756  0.0792
 4840TIP3    H235936   5.964   1.322   3.093  0.1194  0.1040 -0.7672
 4841TIP3   OH235937   2.468   0.089   2.756 -0.1464 -0.6069  0.2001
 4841TIP3    H135938   2.438  -0.002   2.764 -2.8027  0.2268  0.2924
 4841TIP3    H235939   2.407   0.139   2.810  1.7721  1.1513  0.7831
 4842TIP3   OH235940   6.595   2.444   4.519  0.6128  0.2159 -0.0511
 4842TIP3    H135941   6.610   2.443   4.424 -0.9355  0.3345 -0.3109
 4842TIP3    H235942   6.600   2.537   4.543 -1.5171  0.4619 -0.4590
 4843TIP3   OH235943   2.662   0.320  12.116 -0.2587  0.0387 -0.2218
 4843TIP3    H135944   2.742   0.320  12.170 -1.1949 -0.8990  1.1992
 4843TIP3    H235945   2.596   0.280  12.172 -1.7427  0.8394 -1.3885
 4844TIP3   OH235946   4.570   4.165   4.798  1.0697 -0.1660  0.2718
 4844TIP3    H135947   4.531   4.107   4.732 -0.5675  1.7188 -0.4460
 4844TIP3    H235948   4.661   4.137   4.803  0.0471 -3.6613  0.8768
 4845TIP3   OH235949   1.972   4.283   3.109 -0.0838  0.4006 -0.4147
 4845TIP3    H135950   1.958   4.193   3.139  0.3044  0.0177 -1.3611
 4845TIP3    H235951   1.905   4.296   3.041 -0.5113  1.0272  0.1178
 4846TIP3   OH235952   2.413   4.162   2.037  0.1071 -0.5876 -0.3988
 4846TIP3    H135953   2.345   4.166   1.970 -0.2601 -0.7024 -0.0352
 4846TIP3    H235954   2.494   4.151   1.988 -0.1568 -0.6593 -0.8244
 4847TIP3   OH235955   1.477   4.288  16.885  0.0190  0.3511 -0.3193
 4847TIP3    H135956   1.395   4.256  16.846 -0.7913  0.5749  1.1717
 4847TIP3    H235957   1.539   4.216  16.872 -1.3541 -1.2525  1.5986
 4848TIP3   OH235958   0.925   0.353   5.646 -0.1190  0.0640  0.3769
 4848TIP3    H135959   0.937   0.445   5.672  1.0181  0.3322 -1.0412
 4848TIP3    H235960   0.965   0.303   5.718  0.3717  0.7089  0.5609
 4849TIP3   OH235961   6.224   1.495  13.364  0.4630 -0.5006 -0.3419
 4849TIP3    H135962   6.205   1.475  13.455  1.3638  0.3076  0.0299
 4849TIP3    H235963   6.167   1.436  13.314 -0.3231 -0.6677  0.7369
 4850TIP3   OH235964   1.153   4.542   5.640  0.0056  0.8544 -0.2876
 4850TIP3    H135965   1.127   4.477   5.705 -2.6876  0.7621 -1.3991
 4850TIP3    H235966   1.232   4.581   5.676  0.6698 -1.7615  1.2704
 4851TIP3   OH235967   6.399   6.499  13.841  0.2116  0.1653  0.5216
 4851TIP3    H135968   6.356   6.584  13.828 -0.3532 -0.1681  0.2209
 4851TIP3    H235969   6.489   6.522  13.866  0.2905  0.8488 -0.3406
 4852TIP3   OH235970   3.427   1.811  15.571 -0.0785 -0.5419  0.1668
 4852TIP3    H135971   3.461   1.746  15.509  1.3738  1.6020 -1.3648
 4852TIP3    H235972   3.341   1.778  15.597 -0.5249 -1.7138 -2.6746
 4853TIP3   OH235973   3.212   6.741   4.666  0.3874  0.1859  0.5720
 4853TIP3    H135974   3.241   6.720   4.577 -0.2803 -2.2446  0.8766
 4853TIP3    H235975   3.132   6.792   4.653 -0.8098 -1.8090 -0.2857
 4854TIP3   OH235976   0.085   6.014   5.958  0.2622 -0.4906  0.4986
 4854TIP3    H135977   0.113   5.944   6.016  1.4978 -0.8398 -0.5076
 4854TIP3    H235978   0.166   6.053   5.926 -0.4107  1.4161  1.0489
 4855TIP3   OH235979   4.733   2.203  13.025 -0.1284  0.0546 -0.4808
 4855TIP3    H135980   4.653   2.252  13.046 -0.0843  0.6292 -1.6240
 4855TIP3    H235981   4.702   2.127  12.975 -0.0292 -0.1259 -0.2689
 4856TIP3   OH235982   5.395   1.775  13.858 -0.0190 -0.2227 -0.4110
 4856TIP3    H135983   5.326   1.711  13.878  0.5144 -0.4192  0.8509
 4856TIP3    H235984   5.393   1.783  13.763  0.3423 -2.6159 -0.6509
 4857TIP3   OH235985   5.980   3.429   5.792  0.6689 -0.1828  0.7406
 4857TIP3    H135986   6.063   3.419   5.839  0.3569 -0.2053  1.2836
 4857TIP3    H235987   5.923   3.476   5.853  0.3259 -0.0348  0.3124
 4858TIP3   OH235988   1.439   1.331  13.807  0.2706 -0.0630  0.2338
 4858TIP3    H135989   1.532   1.343  13.823  0.3165  0.8170 -0.6609
 4858TIP3    H235990   1.433   1.244  13.767  0.8972  0.5774 -1.2677
 4859TIP3   OH235991   1.179   1.663  12.862  0.2385  0.1470  0.6337
 4859TIP3    H135992   1.260   1.640  12.908 -0.4325 -1.3538  1.1033
 4859TIP3    H235993   1.111   1.616  12.909 -0.7783  0.5695 -0.4013
 4860TIP3   OH235994   6.046   3.271  15.967 -0.3502  0.2455 -0.1477
 4860TIP3    H135995   5.970   3.224  15.935  0.7068 -0.2078 -2.0782
 4860TIP3    H235996   6.025   3.363  15.952 -0.0732  0.0679 -1.7984
 4861TIP3   OH235997   3.218   5.500  16.549 -0.0887  0.2949  0.3838
 4861TIP3    H135998   3.253   5.584  16.520 -1.8068  0.8513 -0.1232
 4861TIP3    H235999   3.292   5.456  16.592  1.4828  1.0091 -1.5632
 4862TIP3   OH236000   5.706   4.033  14.159 -0.0237  0.1518 -0.3292
 4862TIP3    H136001   5.777   3.971  14.143  0.5997  0.1686  2.1720
 4862TIP3    H236002   5.741   4.118  14.132  0.5490  0.0039 -0.0446
 4863TIP3   OH236003   1.305   4.516   4.254 -0.4947  0.1842 -0.4766
 4863TIP3    H136004   1.302   4.578   4.182 -2.0338 -0.0046 -0.5911
 4863TIP3    H236005   1.398   4.511   4.278 -0.1434  1.2098 -1.5911
 4864TIP3   OH236006   1.749   0.401  14.988 -0.0217  0.5572  0.3631
 4864TIP3    H136007   1.751   0.466  15.058  0.9690  0.4751  0.4115
 4864TIP3    H236008   1.718   0.321  15.031  1.0702  0.3752  0.8135
 4865TIP3   OH236009   2.305   4.928   2.097  0.8022  0.0205  0.0632
 4865TIP3    H136010   2.215   4.944   2.067  0.5818 -1.7113 -0.2498
 4865TIP3    H236011   2.357   4.997   2.054  0.0670 -0.7796 -2.1891
 4866TIP3   OH236012   2.605   3.388   6.239  0.1923  0.5740 -0.5927
 4866TIP3    H136013   2.663   3.451   6.281 -0.1969  1.4261 -1.3286
 4866TIP3    H236014   2.525   3.436   6.222 -0.3406 -0.2954 -0.5860
 4867TIP3   OH236015   4.243   4.682   4.539  0.4881  0.2207  0.2656
 4867TIP3    H136016   4.180   4.628   4.587  0.4449 -0.9923 -1.1203
 4867TIP3    H236017   4.209   4.771   4.544 -1.7774 -0.5362 -1.1662
 4868TIP3   OH236018   5.943   5.940   2.919  0.2816  0.4785 -0.6224
 4868TIP3    H136019   5.899   5.964   3.001 -0.3786  0.3127 -0.9258
 4868TIP3    H236020   5.974   5.851   2.934 -0.7232  0.0761 -0.9122
 4869TIP3   OH236021   5.616   0.387  13.651  0.0422  0.2763 -0.1820
 4869TIP3    H136022   5.561   0.314  13.624 -0.2667  0.4239  0.0518
 4869TIP3    H236023   5.570   0.465  13.620 -1.1272  0.5539  2.1269
 4870TIP3   OH236024   1.066   0.291   6.128 -0.5500  0.2555  0.1132
 4870TIP3    H136025   1.099   0.205   6.155 -0.2726 -0.2079 -1.6317
 4870TIP3    H236026   1.091   0.350   6.199 -2.6544 -1.4741  2.3577
 4871TIP3   OH236027   2.477   0.750   0.927 -0.0268 -0.0559  0.1491
 4871TIP3    H136028   2.443   0.830   0.887  0.2964 -0.1587 -0.3394
 4871TIP3    H236029   2.520   0.780   1.008  2.0430  0.5689 -1.1261
 4872TIP3   OH236030   2.847   6.681  11.636 -0.5918  0.6035 -0.2306
 4872TIP3    H136031   2.823   6.750  11.574 -2.0679  0.5126  0.2217
 4872TIP3    H236032   2.795   6.698  11.714 -1.5287 -1.4247 -0.3670
 4873TIP3   OH236033   5.565   4.701   5.711 -0.2265  0.4881  0.1827
 4873TIP3    H136034   5.580   4.665   5.798  1.8833  0.1366 -0.2908
 4873TIP3    H236035   5.482   4.662   5.682  0.5261 -1.6646  0.8690
 4874TIP3   OH236036   3.046   4.640  12.546 -0.5239  0.3161  0.7608
 4874TIP3    H136037   3.035   4.655  12.640  0.2046  2.4990  0.5286
 4874TIP3    H236038   2.964   4.671  12.507  0.1653  1.7777  0.4572
 4875TIP3   OH236039   0.796   0.473   6.064  0.4488  0.3643  0.1420
 4875TIP3    H136040   0.860   0.544   6.069  0.6536  0.5008 -3.3258
 4875TIP3    H236041   0.845   0.398   6.030 -0.8231 -0.0269 -0.8913
 4876TIP3   OH236042   4.343   0.776   3.529 -0.3641 -0.1542  0.5828
 4876TIP3    H136043   4.293   0.851   3.497 -0.6813 -1.2454 -1.5698
 4876TIP3    H236044   4.278   0.719   3.570 -0.6113 -0.7501 -0.6411
 4877TIP3   OH236045   4.904   3.871   3.703  0.2561  0.5986  0.3183
 4877TIP3    H136046   4.923   3.893   3.611 -1.3012  0.6604 -0.0045
 4877TIP3    H236047   4.822   3.822   3.699 -1.2838  2.9576  1.9324
 4878TIP3   OH236048   6.342   2.092   1.236 -0.2336 -0.4040  0.3087
 4878TIP3    H136049   6.315   2.106   1.145 -2.5247  1.0460  1.1639
 4878TIP3    H236050   6.273   2.134   1.288 -0.0410 -3.0294  2.7622
 4879TIP3   OH236051   6.521   2.530   5.981  0.6425  0.1342 -0.1746
 4879TIP3    H136052   6.559   2.446   5.956  1.5261  0.5559 -0.2466
 4879TIP3    H236053   6.595   2.585   6.006 -0.0444  0.4655  1.1787
 4880TIP3   OH236054   3.636   5.598   5.518  0.2683  0.0986  0.2357
 4880TIP3    H136055   3.682   5.575   5.599 -0.3354  1.5189  0.9946
 4880TIP3    H236056   3.674   5.681   5.491 -0.3959  0.2492 -0.2534
 4881TIP3   OH236057   5.741   6.469   4.035 -0.6100 -0.3489  0.2045
 4881TIP3    H136058   5.711   6.407   4.102 -2.1745 -0.8996 -0.9638
 4881TIP3    H236059   5.800   6.528   4.082 -1.3771 -0.9416  1.9861
 4882TIP3   OH236060   2.323   3.104  15.609 -0.7535  0.7260 -0.1478
 4882TIP3    H136061   2.363   3.025  15.573  0.2786  1.1954 -0.0399
 4882TIP3    H236062   2.244   3.117  15.556  0.1695  0.7808 -1.5317
 4883TIP3   OH236063   3.925   3.336   5.465  0.0002 -0.8774  0.5046
 4883TIP3    H136064   3.990   3.303   5.403  1.6017 -0.2817  1.8208
 4883TIP3    H236065   3.946   3.428   5.476 -1.3245 -0.5747  0.6690
 4884TIP3   OH236066   6.554   4.671   0.220 -0.2000 -0.1449 -0.1005
 4884TIP3    H136067   6.595   4.678   0.306  0.2597 -2.1221 -0.1395
 4884TIP3    H236068   6.479   4.613   0.234 -1.6935  1.6531 -0.4923
 4885TIP3   OH236069   4.851   3.694   1.846  0.7025  0.5830  0.0176
 4885TIP3    H136070   4.933   3.735   1.872  1.6356 -1.9916  1.3467
 4885TIP3    H236071   4.876   3.630   1.779 -0.5495  1.3679 -1.2314
 4886TIP3   OH236072   0.749   1.358   2.465 -0.0405  0.5996  0.6511
 4886TIP3    H136073   0.804   1.437   2.462  1.6965 -0.6542 -1.3602
 4886TIP3    H236074   0.808   1.288   2.493 -0.7834 -0.6220 -0.7770
 4887TIP3   OH236075   2.558   1.163   6.553  0.0202  0.3597  0.1079
 4887TIP3    H136076   2.610   1.158   6.634  0.4305 -0.3198 -0.1926
 4887TIP3    H236077   2.594   1.237   6.505  1.7702 -1.0846 -0.8287
 4888TIP3   OH236078   4.067   6.246   2.208 -0.0620 -0.2246  0.2893
 4888TIP3    H136079   4.129   6.251   2.136 -0.5370  0.9826 -0.0622
 4888TIP3    H236080   4.099   6.312   2.271 -1.0757  0.5450  0.0160
 4889TIP3   OH236081   2.853   0.029   0.793  0.2771 -0.7730  0.0556
 4889TIP3    H136082   2.895   0.030   0.879 -0.8635 -0.8858  0.6224
 4889TIP3    H236083   2.762   0.008   0.811 -0.1684  0.0996 -1.0909
 4890TIP3   OH236084   4.548   4.151  13.402 -0.2142  0.5236 -0.0421
 4890TIP3    H136085   4.628   4.111  13.367  0.5170  1.3573  0.6482
 4890TIP3    H236086   4.516   4.207  13.332 -0.9575 -0.8653 -0.8279
 4891TIP3   OH236087   5.763   4.088  11.468  0.2229  0.0592 -0.1161
 4891TIP3    H136088   5.858   4.077  11.461  0.2253  0.0304 -0.0414
 4891TIP3    H236089   5.731   4.074  11.379  0.2493 -0.3384 -0.0671
 4892TIP3   OH236090   0.052   4.286   5.120  0.4544 -0.0906  0.1170
 4892TIP3    H136091  -0.006   4.362   5.107  0.8758  0.2102 -0.0030
 4892TIP3    H236092   0.036   4.231   5.044  0.4824  0.0958 -0.0253
 4893TIP3   OH236093   1.124   5.910   0.656 -0.4911 -0.5048 -0.4575
 4893TIP3    H136094   1.138   5.828   0.608  1.6142  1.2351 -2.9603
 4893TIP3    H236095   1.188   5.907   0.726 -1.0798 -1.4122  0.0588
 4894TIP3   OH236096   4.830   0.778   4.446 -0.4518  0.6334  0.4572
 4894TIP3    H136097   4.914   0.760   4.404 -0.7132  0.2299  0.1184
 4894TIP3    H236098   4.855   0.820   4.529  0.0904  0.2715  0.4820
 4895TIP3   OH236099   0.863   2.536  13.803 -0.3735 -0.3017  0.2228
 4895TIP3    H136100   0.893   2.622  13.771 -0.0670 -0.3994  0.2494
 4895TIP3    H236101   0.847   2.550  13.896 -0.5015 -0.2263  0.1904
 4896TIP3   OH236102   6.174   4.667  15.152  0.2439 -0.1974  0.6801
 4896TIP3    H136103   6.268   4.677  15.167  0.3572 -1.2907  0.7220
 4896TIP3    H236104   6.133   4.714  15.225  0.7737 -1.2624  1.6825
 4897TIP3   OH236105   3.956   1.019   5.745 -0.2869  0.1974 -0.3964
 4897TIP3    H136106   3.877   0.968   5.732  0.2849 -0.8196  0.0192
 4897TIP3    H236107   3.926   1.109   5.758 -1.4155 -0.3030  0.4661
 4898TIP3   OH236108   1.509   3.397   3.009  0.2479 -0.0920  0.5112
 4898TIP3    H136109   1.557   3.474   2.977 -0.0104  0.8973  2.4054
 4898TIP3    H236110   1.423   3.432   3.034  0.1262 -0.9967  1.3899
 4899TIP3   OH236111   4.431   3.124   1.664  0.3670  0.2142 -0.4324
 4899TIP3    H136112   4.463   3.143   1.752  2.1308  0.3900 -1.0963
 4899TIP3    H236113   4.336   3.131   1.671  0.4439 -0.5792  1.6391
 4900TIP3   OH236114   1.941   3.816  17.037  0.1265 -0.2261 -0.6553
 4900TIP3    H136115   1.846   3.828  17.038  0.0381 -0.6549 -1.9363
 4900TIP3    H236116   1.966   3.805  17.128 -1.0189  0.1952 -0.2899
 4901TIP3   OH236117   0.237   3.028  12.632  0.8183  0.1417  0.4521
 4901TIP3    H136118   0.241   2.960  12.564 -1.2405 -0.2810  0.7471
 4901TIP3    H236119   0.175   2.995  12.696  1.7862  1.1285  1.9366
 4902TIP3   OH236120   0.727   0.523  13.542  0.6003 -0.2829 -0.8542
 4902TIP3    H136121   0.654   0.563  13.494  1.2648  0.2504 -1.4181
 4902TIP3    H236122   0.721   0.430  13.521  1.0287 -0.0232 -2.1788
 4903TIP3   OH236123   1.115   6.213   2.935  0.0094 -0.4289  0.4720
 4903TIP3    H136124   1.033   6.181   2.897 -0.1092  0.1897  0.1952
 4903TIP3    H236125   1.126   6.301   2.898 -0.1722  0.2349  1.9525
 4904TIP3   OH236126   2.603   0.137   6.236  0.1265 -0.5962  0.5346
 4904TIP3    H136127   2.540   0.189   6.286 -1.2135 -1.9312  0.2716
 4904TIP3    H236128   2.549   0.079   6.182  1.5729 -0.9546 -0.5678
 4905TIP3   OH236129   0.926   5.121   5.660 -0.2935 -0.5112 -0.4706
 4905TIP3    H136130   0.960   5.189   5.601 -0.9401  0.7015  0.5414
 4905TIP3    H236131   0.900   5.168   5.739 -3.6698 -1.4522 -0.9141
 4906TIP3   OH236132   6.540   1.488   1.776 -0.2262  0.1619 -0.4530
 4906TIP3    H136133   6.592   1.537   1.712  0.5093  0.5328  0.4109
 4906TIP3    H236134   6.475   1.551   1.808 -0.1783  0.1652 -0.3628
 4907TIP3   OH236135   2.994   4.737  13.491 -0.1893  0.1641  0.2118
 4907TIP3    H136136   3.071   4.754  13.438 -0.7329 -1.8460 -1.2611
 4907TIP3    H236137   3.028   4.695  13.570  0.0381 -3.7019 -1.8185
 4908TIP3   OH236138   6.546   2.239   1.533  0.8897  0.5850  0.4698
 4908TIP3    H136139   6.585   2.323   1.508  0.4792  0.7596  0.3982
 4908TIP3    H236140   6.457   2.262   1.561  0.6530  0.1257  0.0976
 4909TIP3   OH236141   1.954   5.657   2.971 -0.5361 -0.0073  0.5378
 4909TIP3    H136142   1.889   5.644   3.040 -0.3003 -0.8446  0.6113
 4909TIP3    H236143   1.907   5.639   2.889 -0.4199 -0.5339  0.5859
 4910TIP3   OH236144   1.586   5.814  12.139  0.6900 -0.1519 -0.4068
 4910TIP3    H136145   1.573   5.857  12.223  1.7140 -0.6870  0.0353
 4910TIP3    H236146   1.606   5.885  12.078  0.8335  0.1468 -0.0124
 4911TIP3   OH236147   0.837   1.568  12.483 -0.4336  0.4100  0.0348
 4911TIP3    H136148   0.817   1.658  12.509 -1.0069  0.3688 -0.2524
 4911TIP3    H236149   0.760   1.540  12.433  0.7339  0.5886 -1.9043
 4912TIP3   OH236150   6.079   6.375  12.318 -0.1164 -0.4501  0.2464
 4912TIP3    H136151   6.005   6.325  12.284  0.2771 -1.6643  1.1726
 4912TIP3    H236152   6.135   6.311  12.360  0.9675  0.6076  0.4476
 4913TIP3   OH236153   0.810   2.906  11.016  0.2550 -0.2693 -0.0667
 4913TIP3    H136154   0.809   2.833  10.953 -1.5714 -0.7211  0.4639
 4913TIP3    H236155   0.718   2.920  11.038  0.7189  1.1976  1.0136
 4914TIP3   OH236156   2.155   6.314   2.837  0.0169  0.1086 -0.6754
 4914TIP3    H136157   2.151   6.303   2.932  0.1872 -1.4049 -0.8292
 4914TIP3    H236158   2.063   6.310   2.808  0.1034 -1.5563 -0.7786
 4915TIP3   OH236159   5.957   6.236  16.804 -0.5311 -0.0734 -0.2627
 4915TIP3    H136160   6.036   6.192  16.837  0.4169  2.4473  0.9494
 4915TIP3    H236161   5.957   6.217  16.710 -0.2747 -2.7700  0.2261
 4916TIP3   OH236162   1.099   0.955   0.220 -0.2525 -0.6748  0.9675
 4916TIP3    H136163   1.093   0.996   0.134  1.7517  0.7593  1.4531
 4916TIP3    H236164   1.084   0.862   0.204  3.3372 -0.9311 -1.4944
 4917TIP3   OH236165   5.911   3.686  14.399 -0.5593  0.5609  0.4128
 4917TIP3    H136166   5.820   3.684  14.368 -0.3456 -1.7204 -0.1493
 4917TIP3    H236167   5.942   3.774  14.377 -1.7651  0.4333 -1.9543
 4918TIP3   OH236168   6.751   6.125  13.217  0.0162 -0.1795 -0.3439
 4918TIP3    H136169   6.772   6.077  13.136 -1.1695 -0.9547 -0.2155
 4918TIP3    H236170   6.755   6.217  13.192 -0.9467 -0.4235 -1.4656
 4919TIP3   OH236171   2.407   4.625   0.117  0.1968 -0.3374  0.0542
 4919TIP3    H136172   2.383   4.551   0.060  1.4357  0.6225 -1.7730
 4919TIP3    H236173   2.435   4.693   0.056  1.2956  0.8262  1.8350
 4920TIP3   OH236174   3.839   0.716   4.847  0.2777 -0.5466 -0.2849
 4920TIP3    H136175   3.925   0.731   4.885 -0.2152  0.7722  0.3482
 4920TIP3    H236176   3.828   0.787   4.784 -1.4072  0.8436  1.5266
 4921TIP3   OH236177   5.756   3.165  16.077 -0.1605  0.1166  0.3343
 4921TIP3    H136178   5.719   3.220  16.007  0.6171  1.1862  0.7530
 4921TIP3    H236179   5.758   3.077  16.039  1.6097  0.9207 -1.5385
 4922TIP3   OH236180   5.147   1.680  15.038  0.5320  0.3706 -0.6263
 4922TIP3    H136181   5.156   1.676  15.133  0.8762 -2.1421 -0.7574
 4922TIP3    H236182   5.175   1.769  15.016 -1.5152  1.7087  1.8087
 4923TIP3   OH236183   1.650   0.677   6.051  0.1317  0.4221 -0.8053
 4923TIP3    H136184   1.577   0.727   6.015 -0.3410  0.1541 -0.2296
 4923TIP3    H236185   1.620   0.649   6.137  0.8203  0.0954 -0.6648
 4924TIP3   OH236186   6.570   3.544   0.697 -0.6004  0.0758 -0.4845
 4924TIP3    H136187   6.485   3.501   0.689 -1.0433  0.9472 -0.5375
 4924TIP3    H236188   6.577   3.566   0.791 -0.5230  0.1716 -0.5120
 4925TIP3   OH236189   0.450   5.924  10.686  0.1664 -0.3159 -0.3615
 4925TIP3    H136190   0.455   5.989  10.616  2.0448  0.6119  0.6075
 4925TIP3    H236191   0.524   5.865  10.670  0.3332 -0.3678  0.5561
 4926TIP3   OH236192   5.117   4.723   2.434 -0.1277  0.3035  0.2358
 4926TIP3    H136193   5.137   4.678   2.516 -0.5535  0.4907  0.4468
 4926TIP3    H236194   5.029   4.692   2.410 -0.3762  0.9219  0.3186
 4927TIP3   OH236195   3.690   0.764   3.009 -0.8948 -0.2666 -0.0457
 4927TIP3    H136196   3.647   0.832   3.060 -1.7028 -0.1998 -0.8009
 4927TIP3    H236197   3.743   0.812   2.945  0.7855 -0.3392  1.2322
 4928TIP3   OH236198   5.837   5.865  13.481 -0.4031  0.0755  0.0570
 4928TIP3    H136199   5.774   5.850  13.411 -0.6643  0.7787  0.1323
 4928TIP3    H236200   5.859   5.778  13.514 -0.8019 -0.2118 -0.4371
 4929TIP3   OH236201   6.730   1.405   2.672 -0.0248 -0.1742 -0.3081
 4929TIP3    H136202   6.754   1.327   2.723  1.7789  0.5331 -0.0239
 4929TIP3    H236203   6.686   1.370   2.595  2.3074 -1.6099 -1.0414
 4930TIP3   OH236204   3.558   6.767   1.872  0.3224  0.0965  0.7075
 4930TIP3    H136205   3.592   6.799   1.956  0.7418  0.8610  0.2541
 4930TIP3    H236206   3.516   6.844   1.833 -2.0741 -0.8494  1.3147
 4931TIP3   OH236207   2.011   6.340  11.511 -0.5450  0.0483  1.0553
 4931TIP3    H136208   2.050   6.285  11.579 -0.7492 -2.0739 -0.5086
 4931TIP3    H236209   2.084   6.363  11.454 -0.4145  1.6579  1.8238
 4932TIP3   OH236210   4.223   0.264   2.868  0.3006 -0.3336  0.0671
 4932TIP3    H136211   4.159   0.238   2.802 -1.0057  3.1759 -0.1825
 4932TIP3    H236212   4.303   0.219   2.843 -1.7188 -3.8925 -0.3201
 4933TIP3   OH236213   1.636   3.588   6.260  0.4532  0.1786  0.2779
 4933TIP3    H136214   1.664   3.499   6.240  1.1347  0.0300  1.8242
 4933TIP3    H236215   1.704   3.622   6.319 -0.1863  1.4508  0.3074
 4934TIP3   OH236216   6.307   6.515  15.429  0.2323 -0.2940  0.0356
 4934TIP3    H136217   6.363   6.567  15.485 -0.3445  0.7344 -0.3323
 4934TIP3    H236218   6.228   6.568  15.417 -1.4259 -2.2411  1.6488
 4935TIP3   OH236219   3.892   0.724  13.235 -0.1588 -0.3721  0.4118
 4935TIP3    H136220   3.898   0.698  13.327 -0.8585 -0.7392  0.3622
 4935TIP3    H236221   3.917   0.816  13.234  0.4251 -0.5273  0.8878
 4936TIP3   OH236222   0.265   4.961   4.305 -0.0242  0.5807 -0.2803
 4936TIP3    H136223   0.223   5.031   4.355 -1.3395 -1.3388  1.4151
 4936TIP3    H236224   0.309   4.908   4.372  1.8626  0.3661 -1.6450
 4937TIP3   OH236225   4.529   3.374   5.399  1.0011  0.3045 -0.2209
 4937TIP3    H136226   4.465   3.444   5.414 -0.0320 -0.9023  1.2292
 4937TIP3    H236227   4.507   3.339   5.313  0.0903  0.2994  0.0095
 4938TIP3   OH236228   2.903   2.633  10.833  0.0869 -0.2525  0.3547
 4938TIP3    H136229   2.988   2.666  10.859  0.0967 -1.2340  1.6232
 4938TIP3    H236230   2.842   2.703  10.856  0.6578  0.9688 -1.6982
 4939TIP3   OH236231   1.584   2.949   2.433  0.1952 -0.4034 -0.1537
 4939TIP3    H136232   1.573   2.994   2.349  0.3734  2.5849  1.3430
 4939TIP3    H236233   1.614   2.861   2.410  0.1555  0.3359 -3.1987
 4940TIP3   OH236234   2.303   4.169   3.393 -0.2780 -0.1122  0.0108
 4940TIP3    H136235   2.277   4.088   3.438 -0.9001 -0.0524 -0.2422
 4940TIP3    H236236   2.390   4.190   3.430  0.2700 -1.3613 -0.5594
 4941TIP3   OH236237   4.317   6.329  14.400  0.4861  0.2906 -0.2854
 4941TIP3    H136238   4.276   6.312  14.315  0.0332 -0.3082  0.0422
 4941TIP3    H236239   4.378   6.400  14.384 -0.6642  1.1849 -0.8002
 4942TIP3   OH236240   6.731   2.572   5.679  0.5529 -0.1173  0.2865
 4942TIP3    H136241   6.811   2.605   5.720  0.6526 -1.4894  1.2471
 4942TIP3    H236242   6.668   2.644   5.688  1.4259  0.6582  0.2770
 4943TIP3   OH236243   6.427   4.874   4.639 -0.3889 -0.1100 -0.2327
 4943TIP3    H136244   6.377   4.793   4.655  0.5029 -0.3395  1.4315
 4943TIP3    H236245   6.503   4.845   4.589 -0.7826 -0.0747 -0.8696
 4944TIP3   OH236246   3.647   2.583   2.476 -0.0351 -0.2212  0.8439
 4944TIP3    H136247   3.648   2.554   2.385 -1.5545  2.4171 -0.0902
 4944TIP3    H236248   3.739   2.594   2.499  0.3452 -0.3076 -0.5918
 4945TIP3   OH236249   5.591   0.776   2.010  0.0874  0.1131 -0.0004
 4945TIP3    H136250   5.553   0.793   1.924  0.9401 -0.6977 -0.5514
 4945TIP3    H236251   5.651   0.849   2.024  1.4707 -0.7973 -1.0138
 4946TIP3   OH236252   3.827   5.365  16.528 -0.2849  0.1161 -0.1110
 4946TIP3    H136253   3.763   5.436  16.527 -2.1420 -1.5265 -2.1487
 4946TIP3    H236254   3.911   5.409  16.512 -1.1656  2.0455  0.4566
 4947TIP3   OH236255   5.109   3.457  15.590  0.0948  0.6153 -0.2771
 4947TIP3    H136256   5.159   3.455  15.672  0.3795 -1.9052 -0.4887
 4947TIP3    H236257   5.018   3.464  15.618  0.1724 -0.4656  0.2586
 4948TIP3   OH236258   2.946   5.509   2.071  0.2177 -0.3810 -0.1286
 4948TIP3    H136259   3.014   5.499   2.138 -1.5968  1.2615  2.0485
 4948TIP3    H236260   2.959   5.598   2.038 -0.6810 -0.1465  0.1326
 4949TIP3   OH236261   2.502   1.714  13.637 -0.1641  0.1110  0.5560
 4949TIP3    H136262   2.514   1.623  13.664  0.2765  0.4517  1.5242
 4949TIP3    H236263   2.502   1.764  13.719  1.0724  1.1489 -0.0536
 4950TIP3   OH236264   4.427   2.254  15.510  0.3312  0.2188  0.5827
 4950TIP3    H136265   4.338   2.264  15.543 -0.4962 -0.7303 -1.2841
 4950TIP3    H236266   4.435   2.161  15.489  0.8892  0.7344 -1.6255
 4951TIP3   OH236267   4.566   2.630  11.537 -0.0518  0.1192  0.5751
 4951TIP3    H136268   4.592   2.669  11.620  0.0332  2.2626 -0.4234
 4951TIP3    H236269   4.474   2.653  11.526 -0.1191 -0.3161  0.1558
 4952TIP3   OH236270   6.557   2.576   5.288  0.4073  0.4473  0.3033
 4952TIP3    H136271   6.623   2.635   5.252  0.6160  0.5008  0.7779
 4952TIP3    H236272   6.551   2.505   5.224 -0.9723  1.7555 -1.0601
 4953TIP3   OH236273   0.428   5.813  15.995 -0.0120 -0.3543 -0.1136
 4953TIP3    H136274   0.337   5.800  15.971 -0.1922  1.2901 -0.3556
 4953TIP3    H236275   0.428   5.818  16.090 -0.3498  0.8224 -0.1657
 4954TIP3   OH236276   3.541   1.636  12.705  0.1840  0.2937 -0.6026
 4954TIP3    H136277   3.573   1.685  12.629 -0.8585  0.7321 -0.7618
 4954TIP3    H236278   3.476   1.575  12.669 -0.8641  1.0271  0.0383
 4955TIP3   OH236279   5.146   4.509   5.440 -0.3451  0.2879 -0.1444
 4955TIP3    H136280   5.201   4.506   5.361 -0.3394 -0.6060 -0.1130
 4955TIP3    H236281   5.090   4.432   5.433  0.9961 -0.8976  1.6818
 4956TIP3   OH236282   0.967   0.830   1.518 -0.0373  1.1496 -0.0535
 4956TIP3    H136283   0.899   0.868   1.574 -0.4555  0.3949 -0.0315
 4956TIP3    H236284   0.923   0.758   1.473  0.6718  0.8472 -0.2692
 4957TIP3   OH236285   5.537   0.140  14.909 -0.1060 -0.9532  0.2091
 4957TIP3    H136286   5.551   0.050  14.939  0.3296 -0.4279  1.6460
 4957TIP3    H236287   5.446   0.159  14.932  0.3137 -0.4519  1.4877
 4958TIP3   OH236288   6.132   0.959  14.091 -0.1245 -0.2294 -1.1741
 4958TIP3    H136289   6.198   0.910  14.141 -0.5967  0.0517 -0.2698
 4958TIP3    H236290   6.183   1.020  14.038  0.4314 -1.1876 -1.7575
 4959TIP3   OH236291   5.683   3.793   2.913 -0.1794  0.0365 -0.0609
 4959TIP3    H136292   5.772   3.826   2.926 -0.0210  0.3174 -1.7665
 4959TIP3    H236293   5.629   3.871   2.905 -0.6985 -0.1334  1.6903
 4960TIP3   OH236294   3.929   5.383  14.602 -0.6681  0.1012  0.5827
 4960TIP3    H136295   3.837   5.367  14.584 -0.5739 -0.3433  0.4813
 4960TIP3    H236296   3.967   5.407  14.518 -0.2262 -1.9824  0.1462
 4961TIP3   OH236297   2.720   5.726  12.595  0.5669  0.1944  0.1537
 4961TIP3    H136298   2.724   5.741  12.689 -0.9699  1.1319  0.0813
 4961TIP3    H236299   2.705   5.632  12.587  0.2199  0.1891  0.8486
 4962TIP3   OH236300   2.454   2.603  11.213  0.9905 -0.2390 -0.2369
 4962TIP3    H136301   2.519   2.547  11.170  0.3493 -0.5696 -0.7760
 4962TIP3    H236302   2.382   2.544  11.235  0.0296  0.4799 -1.3943
 4963TIP3   OH236303   5.219   5.778  14.311 -0.0382  0.5651 -0.3929
 4963TIP3    H136304   5.284   5.752  14.377 -0.4172  2.4525  0.7686
 4963TIP3    H236305   5.271   5.817  14.240  0.2325  0.4094 -0.2798
 4964TIP3   OH236306   6.113   1.580  16.078  0.1337 -0.2560 -0.1334
 4964TIP3    H136307   6.160   1.514  16.128 -0.5539  1.7963  3.4554
 4964TIP3    H236308   6.164   1.660  16.091 -0.0852  0.3543 -2.7846
 4965TIP3   OH236309   1.787   0.877   3.345  0.2498 -0.6012  0.0077
 4965TIP3    H136310   1.743   0.801   3.307  0.6108 -1.5100  1.3611
 4965TIP3    H236311   1.871   0.881   3.300 -0.7789  0.5337 -1.8657
 4966TIP3   OH236312   5.402   3.171  16.034  0.6880 -0.9079  0.3438
 4966TIP3    H136313   5.329   3.220  16.070  0.8303 -0.2318 -0.2691
 4966TIP3    H236314   5.419   3.101  16.097 -0.4051 -0.9907  0.5434
 4967TIP3   OH236315   2.875   2.819  13.196  0.2716  0.0079  0.1083
 4967TIP3    H136316   2.915   2.761  13.262  2.1034  2.1458  0.9685
 4967TIP3    H236317   2.929   2.899  13.200 -1.8925  1.5770 -1.3597
 4968TIP3   OH236318   6.532   0.709   1.734 -0.0813  0.3474 -0.0518
 4968TIP3    H136319   6.478   0.678   1.662  0.1193 -1.8078  0.6958
 4968TIP3    H236320   6.594   0.638   1.750  1.5452  1.8713  0.5541
 4969TIP3   OH236321   1.003   6.127   1.174  0.3090  0.2245 -0.5127
 4969TIP3    H136322   0.954   6.209   1.187  0.6153  0.2101  0.7721
 4969TIP3    H236323   0.950   6.061   1.218  1.7037  0.2796  1.2791
 4970TIP3   OH236324   1.337   2.106  17.177 -0.3603 -0.1155  0.2128
 4970TIP3    H136325   1.426   2.117  17.211  0.9252  1.5638 -3.5363
 4970TIP3    H236326   1.336   2.017  17.141  0.4439  0.5669 -1.5203
 4971TIP3   OH236327   4.953   1.797  13.539  0.3734  0.0370 -0.8277
 4971TIP3    H136328   5.020   1.798  13.607  0.5574 -0.2292 -1.0099
 4971TIP3    H236329   4.984   1.860  13.474  0.0077  0.5830 -0.4826
 4972TIP3   OH236330   4.170   6.052   2.925 -0.4312 -0.0004  0.1290
 4972TIP3    H136331   4.128   6.070   2.840  2.3695 -0.3664 -1.3903
 4972TIP3    H236332   4.181   5.957   2.926  1.5261  0.2087 -0.0995
 4973TIP3   OH236333   2.977   0.388   0.593 -0.9124  0.2530  0.2730
 4973TIP3    H136334   2.940   0.472   0.619 -1.2450 -0.1647  1.1666
 4973TIP3    H236335   3.018   0.354   0.672  2.6973  1.3615 -1.0500
 4974TIP3   OH236336   3.347   1.276  10.641  0.0278  0.7512 -0.1745
 4974TIP3    H136337   3.400   1.201  10.614  0.2611  0.8865 -0.0864
 4974TIP3    H236338   3.269   1.236  10.681 -0.4463  0.5507 -1.2883
 4975TIP3   OH236339   0.693   3.814   0.731 -0.2083  0.0276 -0.6534
 4975TIP3    H136340   0.670   3.768   0.650  0.2160 -1.3780  0.0017
 4975TIP3    H236341   0.784   3.789   0.748 -0.9205 -1.3976  1.3461
 4976TIP3   OH236342   5.668   1.055  15.923  0.8271 -0.0515  0.0416
 4976TIP3    H136343   5.746   1.041  15.870 -0.3169 -0.8567 -1.5037
 4976TIP3    H236344   5.598   1.071  15.859 -0.0374  1.9610  1.4238
 4977TIP3   OH236345   6.628   6.599   5.701  0.5230  0.1008 -0.2185
 4977TIP3    H136346   6.698   6.538   5.724 -0.5123 -1.4264 -1.0700
 4977TIP3    H236347   6.547   6.554   5.726 -0.1635  2.0120  1.1338
 4978TIP3   OH236348   3.203   6.669  13.880  0.3347 -0.2178  0.4451
 4978TIP3    H136349   3.113   6.665  13.848  0.1415 -0.2832  0.9926
 4978TIP3    H236350   3.257   6.652  13.802 -0.1494 -1.1158  0.3025
 4979TIP3   OH236351   1.934   2.201  16.959 -0.5443 -0.0701 -0.0005
 4979TIP3    H136352   1.920   2.293  16.935 -2.2282  0.1555  1.7428
 4979TIP3    H236353   2.016   2.178  16.916 -1.1009  1.6644 -2.0777
 4980TIP3   OH236354   5.084   0.033  15.631 -0.8547  0.3476 -0.2102
 4980TIP3    H136355   5.121   0.073  15.710 -0.2569  0.3434 -0.4869
 4980TIP3    H236356   5.028  -0.038  15.665 -1.9541  1.4236  0.2798
 4981TIP3   OH236357   5.595   0.875   5.308 -0.1729  0.0862  0.3475
 4981TIP3    H136358   5.539   0.941   5.268  0.7168  0.7217  0.1218
 4981TIP3    H236359   5.663   0.926   5.352  1.1086 -0.7054 -0.6833
 4982TIP3   OH236360   6.751   5.487   1.777 -0.8797 -0.1734  0.1097
 4982TIP3    H136361   6.764   5.574   1.814 -0.7912 -0.0605 -0.1833
 4982TIP3    H236362   6.663   5.463   1.803 -0.7092 -0.2196  0.6464
 4983TIP3   OH236363   3.160   3.229  16.798  0.5376  0.4512 -0.1646
 4983TIP3    H136364   3.080   3.254  16.752  0.0682  1.6413  1.2743
 4983TIP3    H236365   3.148   3.136  16.816 -0.3419  0.5226 -0.3282
 4984TIP3   OH236366   3.973   6.414   5.946 -0.0125 -0.1063 -0.3980
 4984TIP3    H136367   3.913   6.379   6.012 -0.6523  0.4941 -0.6513
 4984TIP3    H236368   4.004   6.497   5.983  0.6906 -0.4240 -0.2572
 4985TIP3   OH236369   3.448   1.173   1.813 -0.1822  0.6849  0.2565
 4985TIP3    H136370   3.476   1.112   1.881  1.2616  0.0347 -0.9064
 4985TIP3    H236371   3.483   1.137   1.732 -2.7579  0.8853 -1.0183
 4986TIP3   OH236372   0.556   0.843  15.718  0.3027 -0.5750 -0.3013
 4986TIP3    H136373   0.589   0.866  15.805  1.4747  1.6502 -1.3018
 4986TIP3    H236374   0.472   0.800  15.735 -0.0369  0.8739  1.9027
 4987TIP3   OH236375   6.670   4.115  16.969  0.0480 -0.5503 -0.5826
 4987TIP3    H136376   6.666   4.195  17.021  1.2470  0.2895 -1.7499
 4987TIP3    H236377   6.586   4.112  16.922  0.0848  0.1465 -0.7002
 4988TIP3   OH236378   4.079   1.657  14.104  0.1165 -0.2863  0.5704
 4988TIP3    H136379   4.035   1.679  14.021  1.4239 -0.1732 -0.1062
 4988TIP3    H236380   4.119   1.571  14.087 -0.7656 -0.9099  1.5499
 4989TIP3   OH236381   3.307   2.245   1.407  0.7625 -0.2862  0.0914
 4989TIP3    H136382   3.325   2.335   1.435 -2.0959 -0.1836  1.8291
 4989TIP3    H236383   3.320   2.192   1.485  0.6769 -1.1419 -0.4669
 4990TIP3   OH236384   0.181   2.684  13.780 -0.1330  0.0618 -0.1097
 4990TIP3    H136385   0.215   2.605  13.822  2.2679  0.4732 -1.2385
 4990TIP3    H236386   0.165   2.658  13.689  1.7410  1.1396 -0.7749
 4991TIP3   OH236387   5.967   4.018  14.017  0.3818  0.0648  0.2672
 4991TIP3    H136388   6.054   4.053  13.997 -0.3084  0.4536 -2.2147
 4991TIP3    H236389   5.977   3.923  14.010  0.8087  0.0482  0.9636
 4992TIP3   OH236390   6.727   5.150  17.010 -0.8367 -0.0047  0.0107
 4992TIP3    H136391   6.636   5.120  17.012 -1.0190  0.3158 -2.1494
 4992TIP3    H236392   6.752   5.145  16.918  1.1245  0.5401  0.4907
 4993TIP3   OH236393   3.715   2.755   5.632  0.1550 -0.1548  0.4595
 4993TIP3    H136394   3.773   2.826   5.660 -0.1861  0.1081  0.5088
 4993TIP3    H236395   3.679   2.719   5.713 -0.9659  0.7222  0.3619
 4994TIP3   OH236396   0.846   2.762   2.475  0.4821 -0.7769  0.4213
 4994TIP3    H136397   0.885   2.849   2.462  0.1610 -0.5190  1.0939
 4994TIP3    H236398   0.841   2.724   2.388  1.2195 -0.3745  0.1968
 4995TIP3   OH236399   3.000   5.594  12.766  0.3960 -0.2919  0.6687
 4995TIP3    H136400   3.010   5.500  12.756 -0.1109 -0.3895  1.0166
 4995TIP3    H236401   2.935   5.603  12.836 -0.4871  0.2999 -0.2159
 4996TIP3   OH236402   1.329   3.277   4.430  0.1182 -0.3306 -0.1796
 4996TIP3    H136403   1.328   3.193   4.476 -1.9388 -0.6271 -0.7394
 4996TIP3    H236404   1.237   3.304   4.426  0.7670  2.1243  0.2876
 4997TIP3   OH236405   3.293   6.136  14.941  0.1690 -0.4839  0.1554
 4997TIP3    H136406   3.308   6.204  15.007  1.5056 -1.0835  0.4734
 4997TIP3    H236407   3.353   6.158  14.870 -0.4055 -0.5366 -0.3539
 4998TIP3   OH236408   1.880   6.446   0.703 -0.6392 -0.2387  0.1943
 4998TIP3    H136409   1.812   6.467   0.639 -0.9559  0.2791  0.6882
 4998TIP3    H236410   1.900   6.530   0.745  0.2642 -0.4038  0.0941
 4999TIP3   OH236411   2.386   2.021   5.289  0.2635  0.1846  0.4368
 4999TIP3    H136412   2.327   2.060   5.353 -0.8037 -1.5103  0.4916
 4999TIP3    H236413   2.467   2.006   5.338 -0.3617 -0.5837  1.2676
 5000TIP3   OH236414   5.428   2.136  13.089 -0.1416  0.1233  0.1828
 5000TIP3    H136415   5.447   2.098  13.175  0.3649 -0.5174 -0.2081
 5000TIP3    H236416   5.411   2.060  13.033  1.1173  0.4579 -0.6638
 5001TIP3   OH236417   3.441   3.823  14.326  0.4609  0.5720  0.4874
 5001TIP3    H136418   3.444   3.743  14.379 -3.1061 -0.5758 -0.8726
 5001TIP3    H236419   3.423   3.893  14.389 -1.4759 -0.4602  1.1365
 5002TIP3   OH236420   5.561   6.205  13.973  0.1982  0.8407 -0.0557
 5002TIP3    H136421   5.655   6.221  13.970  0.2355  0.5549 -0.4669
 5002TIP3    H236422   5.548   6.127  13.919  0.1321 -1.0256  2.5441
 5003TIP3   OH236423   3.013   0.661   4.091 -0.2938 -0.1597  0.3074
 5003TIP3    H136424   3.101   0.638   4.059 -0.8927 -1.3594 -0.5520
 5003TIP3    H236425   3.006   0.617   4.175  0.4078  1.0212  0.9895
 5004TIP3   OH236426   0.200   4.397  17.215  0.2094 -0.0168 -0.0284
 5004TIP3    H136427   0.145   4.396  17.293  0.0789  0.2676 -0.1174
 5004TIP3    H236428   0.285   4.366  17.246  0.0284 -0.3554  0.1295
 5005TIP3   OH236429   0.291   6.514   2.665 -0.0486 -0.2042  0.4189
 5005TIP3    H136430   0.198   6.503   2.644 -0.4448  0.2869  1.8498
 5005TIP3    H236431   0.320   6.427   2.691 -0.2469 -0.2409  0.5130
 5006TIP3   OH236432   0.880   5.219   5.967  0.0671 -0.7849 -0.3754
 5006TIP3    H136433   0.902   5.224   6.060  0.7097 -2.0622 -0.4472
 5006TIP3    H236434   0.784   5.217   5.965  0.0055  0.9988  0.1572
 5007TIP3   OH236435   5.035   0.618   3.848 -0.0666  0.2488  0.1974
 5007TIP3    H136436   4.988   0.633   3.766  1.3263  0.5147 -0.5707
 5007TIP3    H236437   5.083   0.536   3.833 -0.2773 -0.0261  0.9759
 5008TIP3   OH236438   5.983   5.707  11.618  0.1701  0.0080  0.1413
 5008TIP3    H136439   6.056   5.727  11.677 -1.1982 -1.7221  2.4775
 5008TIP3    H236440   5.941   5.791  11.604  0.9317  0.5632  1.0748
 5009TIP3   OH236441   3.062   5.976   0.231  0.0792  0.0836  0.5410
 5009TIP3    H136442   2.989   5.987   0.170  0.4353 -0.4541  0.0129
 5009TIP3    H236443   3.076   6.063   0.268  0.8188  0.7290 -1.2459
 5010TIP3   OH236444   3.463   2.144   5.328 -0.0519  0.3217 -0.0179
 5010TIP3    H136445   3.480   2.233   5.296 -0.3697 -0.2455 -1.8099
 5010TIP3    H236446   3.440   2.094   5.250 -3.8158 -0.4367  1.4679
 5011TIP3   OH236447   4.166   0.004  13.345  0.4257  0.2941 -0.2332
 5011TIP3    H136448   4.105  -0.004  13.272 -0.7597 -0.3988  0.8188
 5011TIP3    H236449   4.144   0.089  13.385  0.0659 -0.0151  0.2242
 5012TIP3   OH236450   3.690   1.900   0.086  0.5456  0.0711 -0.0120
 5012TIP3    H136451   3.684   1.856   0.002  1.9726 -1.0723  0.4828
 5012TIP3    H236452   3.764   1.859   0.131  0.0535  0.9287  1.6464
 5013TIP3   OH236453   3.753   5.324   0.778 -0.5397 -0.1338  0.7096
 5013TIP3    H136454   3.800   5.343   0.859 -1.3670 -2.0638  1.6673
 5013TIP3    H236455   3.662   5.347   0.796 -0.4614  0.9767 -0.2302
 5014TIP3   OH236456   3.439   4.138  17.239  0.0774 -0.0881 -0.2710
 5014TIP3    H136457   3.453   4.199  17.167  1.1431  1.8603  1.5286
 5014TIP3    H236458   3.527   4.108  17.262 -0.2548 -0.7121  0.2108
 5015TIP3   OH236459   4.591   5.233   1.307 -0.2223 -0.3629 -0.3843
 5015TIP3    H136460   4.517   5.285   1.277  0.0553  0.0923 -0.2766
 5015TIP3    H236461   4.660   5.297   1.325 -0.3924 -0.6154  1.2368
 5016TIP3   OH236462   4.674   0.566  12.906 -0.6581 -0.8695  0.5387
 5016TIP3    H136463   4.711   0.497  12.850 -1.9012 -1.2002  0.1135
 5016TIP3    H236464   4.580   0.557  12.896 -0.8652 -0.1305  1.7481
 5017TIP3   OH236465   6.769   4.798   3.081  0.1867  0.3171 -0.1015
 5017TIP3    H136466   6.739   4.788   3.171  0.1904  0.6152 -0.0675
 5017TIP3    H236467   6.738   4.884   3.054  1.3344  0.7854  0.0604
 5018TIP3   OH236468   3.814   1.915   5.001 -0.0403  0.0531 -0.0794
 5018TIP3    H136469   3.900   1.955   4.987  0.5619 -0.6898  1.3524
 5018TIP3    H236470   3.773   1.970   5.069 -0.5577  0.1946 -0.5029
 5019TIP3   OH236471   2.560   0.485   3.384 -0.1233  0.1031  0.3393
 5019TIP3    H136472   2.601   0.470   3.299 -0.6371 -0.6833  0.2152
 5019TIP3    H236473   2.537   0.578   3.384 -1.4512 -0.1932 -1.0006
 5020TIP3   OH236474   4.381   0.177  12.529 -0.5089 -0.2268  0.1688
 5020TIP3    H136475   4.455   0.198  12.473 -1.4909  0.8900 -0.7303
 5020TIP3    H236476   4.328   0.116  12.477 -0.6343 -0.3966  0.4902
 5021TIP3   OH236477   1.779   2.366   2.774 -0.1996 -0.2018  0.2185
 5021TIP3    H136478   1.746   2.403   2.856 -0.6773 -2.1178  0.9182
 5021TIP3    H236479   1.739   2.279   2.769 -0.0170 -0.1838 -1.9553
 5022TIP3   OH236480   2.551   4.799  17.069  0.5576 -0.4055 -0.3819
 5022TIP3    H136481   2.514   4.868  17.124  0.4071 -1.7266  1.2043
 5022TIP3    H236482   2.555   4.838  16.982  2.5521  2.4114  0.8715
 5023TIP3   OH236483   3.187   5.458   3.456 -0.1216 -0.1373 -0.1641
 5023TIP3    H136484   3.272   5.476   3.496 -0.9736  3.1770  0.2896
 5023TIP3    H236485   3.127   5.447   3.530 -0.5542 -0.0018 -0.4891
 5024TIP3   OH236486   3.913   5.523   3.319 -0.1756 -0.5267  0.2496
 5024TIP3    H136487   3.863   5.497   3.242 -0.2623  0.8665 -0.1727
 5024TIP3    H236488   3.891   5.615   3.333 -0.5207 -0.8856  2.2163
 5025TIP3   OH236489   2.318   5.248  13.382  0.1037  0.0915 -0.0500
 5025TIP3    H136490   2.405   5.281  13.405  0.8224 -1.1927 -0.8565
 5025TIP3    H236491   2.310   5.165  13.428 -0.9642  0.5059  0.5291
 5026TIP3   OH236492   3.316   2.729  13.953 -0.3139  0.2145  0.9014
 5026TIP3    H136493   3.269   2.673  13.891  1.6532  1.0317 -1.3915
 5026TIP3    H236494   3.248   2.785  13.991 -1.4956  0.0073 -0.8495
 5027TIP3   OH236495   5.943   1.960  16.887  0.7011 -0.1893 -0.2201
 5027TIP3    H136496   5.960   1.999  16.802  0.8975 -0.7484 -0.4361
 5027TIP3    H236497   5.889   1.883  16.868  1.0220 -0.5010  0.1291
 5028TIP3   OH236498   3.842   2.365  14.379 -0.0750 -0.3746 -0.3588
 5028TIP3    H136499   3.778   2.396  14.315  0.6658 -0.6018 -1.2233
 5028TIP3    H236500   3.825   2.417  14.458 -1.3233 -0.4451 -0.5796
 5029TIP3   OH236501   0.973   1.155  10.929 -0.5896  0.1022 -0.2961
 5029TIP3    H136502   0.974   1.100  10.851  1.4830 -0.4759  0.1229
 5029TIP3    H236503   1.065   1.163  10.955 -0.9579  2.8346  0.3072
 5030TIP3   OH236504   4.652   1.508   3.747 -0.3273  0.1523  0.4890
 5030TIP3    H136505   4.631   1.430   3.799  0.0856  0.5672  1.2884
 5030TIP3    H236506   4.662   1.578   3.811 -0.1806  0.7548 -0.1820
 5031TIP3   OH236507   1.020   3.950   5.767  0.0443  0.0520 -0.0724
 5031TIP3    H136508   1.000   3.985   5.854 -1.2598  0.1537 -0.3991
 5031TIP3    H236509   0.941   3.968   5.715 -0.0919 -2.1166 -0.6461
 5032TIP3   OH236510   2.205   0.105   1.064  0.0579 -0.1830 -0.4712
 5032TIP3    H136511   2.247   0.190   1.046  1.8473 -0.7853  0.6769
 5032TIP3    H236512   2.128   0.104   1.007  0.1686  2.0876 -0.7241
 5033TIP3   OH236513   1.900   3.989  16.665 -0.2768 -0.1267  0.9224
 5033TIP3    H136514   1.949   3.936  16.728 -0.2872 -0.9715  0.2354
 5033TIP3    H236515   1.840   3.926  16.623  1.7998 -0.2373 -2.0557
 5034TIP3   OH236516   6.094   3.955   1.349 -0.4477 -0.1647 -0.4923
 5034TIP3    H136517   6.170   3.983   1.297  1.0191 -2.0541  0.5600
 5034TIP3    H236518   6.045   4.035   1.365  1.4184  1.1324 -1.0714
 5035TIP3   OH236519   5.422   0.674  13.219 -0.0739 -0.2048  0.9057
 5035TIP3    H136520   5.502   0.644  13.176 -1.8157 -0.7434 -2.1305
 5035TIP3    H236521   5.412   0.765  13.190 -1.2187 -0.5356  0.2311
 5036TIP3   OH236522   2.229   6.406  11.772 -0.1430  0.3026 -0.5061
 5036TIP3    H136523   2.270   6.479  11.725 -2.5515  1.7520 -0.4303
 5036TIP3    H236524   2.242   6.331  11.714  4.1120  0.2862  0.3003
 5037TIP3   OH236525   3.091   0.804   4.646  0.4967 -0.1805 -0.5593
 5037TIP3    H136526   3.078   0.785   4.739  1.1880 -0.9013 -0.6049
 5037TIP3    H236527   3.090   0.718   4.604 -1.3868  0.2407 -1.4283
 5038TIP3   OH236528   0.271   5.752  12.568  0.0863  0.3197 -0.0557
 5038TIP3    H136529   0.338   5.779  12.631  1.6935  0.0541 -1.6122
 5038TIP3    H236530   0.215   5.829  12.559  1.2813  1.1913 -0.1466
 5039TIP3   OH236531   1.709   4.479   4.037  0.1754  0.2785  0.2910
 5039TIP3    H136532   1.654   4.414   3.993  0.3202 -0.3063  0.9740
 5039TIP3    H236533   1.661   4.501   4.117  0.5855  0.3164  0.5242
 5040TIP3   OH236534   3.992   1.798  11.910 -0.1256 -0.0694  0.5362
 5040TIP3    H136535   4.066   1.776  11.854 -0.1217  1.3130 -0.0165
 5040TIP3    H236536   4.032   1.833  11.990 -0.1721  1.1015  0.0594
 5041TIP3   OH236537   5.201   2.543   0.596 -0.0998  0.8824  0.1374
 5041TIP3    H136538   5.158   2.627   0.613 -1.7003 -0.0474  0.8446
 5041TIP3    H236539   5.142   2.498   0.536  0.6907  0.2056 -0.1395
 5042TIP3   OH236540   1.954   5.039   1.424 -0.2611 -0.1006 -0.1665
 5042TIP3    H136541   2.002   5.077   1.350 -1.0111 -0.0819 -0.6402
 5042TIP3    H236542   1.974   4.946   1.419  0.0417 -0.0394 -0.1320
 5043TIP3   OH236543   5.761   3.173   0.756  0.6243  0.0518 -0.2147
 5043TIP3    H136544   5.666   3.166   0.744  0.8477 -0.7757 -1.6239
 5043TIP3    H236545   5.780   3.266   0.743 -0.0001  0.2413  0.1953
 5044TIP3   OH236546   0.518   6.681   4.518  0.5410 -0.2126  0.3883
 5044TIP3    H136547   0.499   6.592   4.490  1.2733 -0.7764  1.6329
 5044TIP3    H236548   0.605   6.677   4.558 -0.1857  0.6434  2.1675
 5045TIP3   OH236549   3.864   1.229  15.134  0.1803 -0.8927 -0.6097
 5045TIP3    H136550   3.854   1.158  15.198  2.7247  1.3686  2.4795
 5045TIP3    H236551   3.776   1.240  15.098 -1.4362 -2.1859  2.6620
 5046TIP3   OH236552   1.756   0.457  13.476  0.4972 -0.3438  0.1440
 5046TIP3    H136553   1.719   0.401  13.544 -1.1404 -0.6759 -0.9996
 5046TIP3    H236554   1.759   0.544  13.516  1.0907 -0.8357  1.1975
 5047TIP3   OH236555   2.977   6.156  10.904  0.6941 -0.3767  0.4332
 5047TIP3    H136556   3.032   6.084  10.875 -0.7852 -0.8076 -1.4116
 5047TIP3    H236557   2.888   6.122  10.898 -0.0147  1.5412 -0.3313
 5048TIP3   OH236558   6.258   6.508  17.009 -0.1950 -0.0496 -0.2850
 5048TIP3    H136559   6.308   6.566  16.952  0.6555 -0.2162  0.2866
 5048TIP3    H236560   6.324   6.449  17.047 -0.7794 -0.0350  0.7543
 5049TIP3   OH236561   3.861   5.926  13.395  0.3910 -0.0608 -0.1125
 5049TIP3    H136562   3.805   6.001  13.414  1.3408  0.5687  0.2173
 5049TIP3    H236563   3.857   5.916  13.300  0.1404  0.3004 -0.1400
 5050TIP3   OH236564   1.775   2.353  13.944  0.5800 -0.6553  0.6319
 5050TIP3    H136565   1.742   2.423  13.887  0.1166 -2.7909 -1.8053
 5050TIP3    H236566   1.723   2.362  14.024  0.3095  1.5895  0.2461
 5051TIP3   OH236567   4.893   3.302  14.094 -0.0557 -0.2912  0.2250
 5051TIP3    H136568   4.925   3.266  14.176 -0.1980  2.2809  1.4688
 5051TIP3    H236569   4.962   3.281  14.030  1.2667 -0.1361  1.5560
 5052TIP3   OH236570   5.713   5.154  15.650  0.5476  0.1670 -0.6825
 5052TIP3    H136571   5.758   5.088  15.598  0.2663  0.2169 -0.9938
 5052TIP3    H236572   5.746   5.142  15.739  0.4980 -0.3923 -0.7380
 5053TIP3   OH236573   1.695   0.897   4.429  0.5050 -0.4966  0.3748
 5053TIP3    H136574   1.698   0.981   4.384 -0.6626 -0.4974  0.2759
 5053TIP3    H236575   1.752   0.840   4.378  1.4661  0.2902  0.5642
 5054TIP3   OH236576   4.614   0.143  14.573 -0.1779 -0.4944 -0.1216
 5054TIP3    H136577   4.666   0.144  14.653  0.1129 -1.8050 -0.2810
 5054TIP3    H236578   4.554   0.217  14.582  1.8872  1.2402 -0.0624
 5055TIP3   OH236579   6.063   5.843  12.969 -0.1189 -0.6462  0.4886
 5055TIP3    H136580   6.000   5.777  12.998 -0.5947 -0.2844  0.2932
 5055TIP3    H236581   6.106   5.872  13.050 -1.4631  0.3844  0.8575
 5056TIP3   OH236582   5.145   6.526   5.261 -0.0323  0.8165  0.0916
 5056TIP3    H136583   5.205   6.468   5.215 -0.9742  0.7484 -1.0693
 5056TIP3    H236584   5.124   6.595   5.198  0.1878  1.8093  1.0758
 5057TIP3   OH236585   0.194   1.817   4.752 -0.6221  0.0709 -0.1164
 5057TIP3    H136586   0.263   1.816   4.818 -2.1270  0.7202  1.5108
 5057TIP3    H236587   0.235   1.854   4.674  0.8297  0.5072  0.8464
 5058TIP3   OH236588   4.265   5.769   5.894 -0.2897 -0.1283 -0.1097
 5058TIP3    H136589   4.198   5.769   5.826 -0.3223  0.2806 -0.0749
 5058TIP3    H236590   4.217   5.755   5.975 -0.6072  2.5447  0.1984
 5059TIP3   OH236591   2.331   0.698  14.906  0.0818 -0.1164 -0.3309
 5059TIP3    H136592   2.312   0.756  14.832  0.6581 -0.4339 -0.7347
 5059TIP3    H236593   2.291   0.614  14.883 -0.0273 -0.1212 -0.1289
 5060TIP3   OH236594   6.016   0.566   0.987 -0.3232  0.1663 -0.1015
 5060TIP3    H136595   6.057   0.551   1.072  1.8068 -0.1612 -1.1596
 5060TIP3    H236596   5.945   0.502   0.983  0.0646 -0.3539  1.1112
 5061TIP3   OH236597   3.387   6.542   0.098 -0.5266  0.4135 -0.6400
 5061TIP3    H136598   3.322   6.474   0.081 -0.8487 -0.2924  2.8900
 5061TIP3    H236599   3.460   6.522   0.040 -1.3632 -1.9008 -0.9204
 5062TIP3   OH236600   2.614   4.529  13.062 -0.1909 -0.2064  0.0401
 5062TIP3    H136601   2.706   4.554  13.067 -0.0182 -0.6700 -0.6819
 5062TIP3    H236602   2.604   4.493  12.974 -0.9303 -0.7060  0.3244
 5063TIP3   OH236603   0.699   6.666   1.272  0.1956 -0.4081 -0.7270
 5063TIP3    H136604   0.794   6.683   1.276  0.1885 -0.0430 -1.8331
 5063TIP3    H236605   0.673   6.702   1.187 -0.8004 -1.2006 -0.7565
 5064TIP3   OH236606   6.260   1.065   0.795  0.0100 -0.1034  0.0449
 5064TIP3    H136607   6.327   1.100   0.737  1.4798 -2.7991  0.0137
 5064TIP3    H236608   6.218   1.142   0.833  1.2541  1.6677 -2.0356
 5065TIP3   OH236609   3.224   4.675   3.130  0.7223  0.3461 -0.1902
 5065TIP3    H136610   3.213   4.767   3.110  2.1010  0.6083  0.1726
 5065TIP3    H236611   3.182   4.663   3.215 -1.6577  0.0835 -1.3735
 5066TIP3   OH236612   5.916   4.444   5.652  0.0203 -0.2506  0.0914
 5066TIP3    H136613   5.830   4.418   5.684 -0.7818  0.1142 -1.6857
 5066TIP3    H236614   5.921   4.538   5.668 -0.7528  0.0988 -1.6430
 5067TIP3   OH236615   5.565   4.299   3.873  0.3414 -0.1711  0.1832
 5067TIP3    H136616   5.566   4.353   3.953  1.0639 -1.0631  0.7931
 5067TIP3    H236617   5.473   4.274   3.862  0.1311  0.5042  0.3529
 5068TIP3   OH236618   2.158   6.086  15.624 -0.1077 -0.0954 -0.1749
 5068TIP3    H136619   2.164   6.167  15.573 -0.0466  0.3206  0.4892
 5068TIP3    H236620   2.209   6.023  15.573  0.9276  0.6207 -0.0594
 5069TIP3   OH236621   1.554   1.030   5.908  0.5310 -0.7291 -0.0078
 5069TIP3    H136622   1.534   1.074   5.990 -3.1098  0.4943 -1.4534
 5069TIP3    H236623   1.526   0.939   5.922 -1.4727 -0.1861 -0.3346
 5070TIP3   OH236624   3.793   0.956  11.898  0.0386  0.2492  0.1668
 5070TIP3    H136625   3.713   0.953  11.951  1.0879 -0.4437  1.7711
 5070TIP3    H236626   3.842   1.030  11.933  0.5937 -0.0073 -0.0588
 5071TIP3   OH236627   3.269   5.631  12.395 -1.1225 -0.7872  0.0354
 5071TIP3    H136628   3.176   5.646  12.411 -1.3140  0.3016 -1.9928
 5071TIP3    H236629   3.274   5.608  12.302  0.5335 -1.7407  0.3480
 5072TIP3   OH236630   4.120   5.905  14.359 -0.1643  0.1790 -0.0686
 5072TIP3    H136631   4.183   5.949  14.302 -0.1057 -0.3778 -0.4315
 5072TIP3    H236632   4.065   5.976  14.393  0.1474  0.5719 -0.3801
 5073TIP3   OH236633   4.148   4.103  16.258 -0.0405  0.4835 -0.1761
 5073TIP3    H136634   4.212   4.165  16.294  0.2734  1.4483 -2.3415
 5073TIP3    H236635   4.199   4.047  16.200 -0.5461 -1.0650  0.8293
 5074TIP3   OH236636   5.902   2.956  14.530 -0.4358 -0.0284  0.3239
 5074TIP3    H136637   5.868   2.987  14.447 -1.9846 -0.4172  0.8055
 5074TIP3    H236638   5.996   2.974  14.525 -0.9623  2.8696 -0.2301
 5075TIP3   OH236639   3.923   5.253  13.923  0.3984  0.2788  0.4041
 5075TIP3    H136640   3.933   5.315  13.851 -2.6291  0.2999 -0.0668
 5075TIP3    H236641   3.854   5.292  13.978 -0.4267 -1.8732  0.9378
 5076TIP3   OH236642   5.352   5.483  17.152  0.0246  0.2878 -0.3079
 5076TIP3    H136643   5.362   5.401  17.104 -1.6349  0.6594 -1.3239
 5076TIP3    H236644   5.421   5.539  17.117  0.1629 -0.1424 -0.7453
 5077TIP3   OH236645   4.426   0.518  15.393 -0.4340  0.0150 -0.0468
 5077TIP3    H136646   4.340   0.501  15.433 -0.3443  1.8253  0.9295
 5077TIP3    H236647   4.408   0.585  15.327 -0.3747 -2.1340 -2.3109
 5078TIP3   OH236648   6.326   4.480  13.673  0.3644 -0.3573  0.3645
 5078TIP3    H136649   6.405   4.426  13.668  0.5382  0.0303 -1.4005
 5078TIP3    H236650   6.313   4.495  13.767  2.2344 -0.6534  0.6898
 5079TIP3   OH236651   6.457   2.696  10.993  0.3549 -0.2203  0.7768
 5079TIP3    H136652   6.362   2.708  10.996  0.3332 -0.6515  2.0276
 5079TIP3    H236653   6.486   2.751  10.920 -0.9387 -0.6507 -0.0837
 5080TIP3   OH236654   5.542   4.879  11.500  0.3377  0.2402 -0.1400
 5080TIP3    H136655   5.555   4.798  11.550  0.4442  0.6616  0.5066
 5080TIP3    H236656   5.612   4.937  11.529  0.1276  0.6519 -0.4507
 5081TIP3   OH236657   6.147   6.240   1.562  0.1319 -0.2819 -0.0312
 5081TIP3    H136658   6.168   6.323   1.520 -0.6633 -0.9227 -1.7228
 5081TIP3    H236659   6.113   6.185   1.492  0.6570 -2.0473  1.0711
 5082TIP3   OH236660   4.260   4.395   1.971  0.2779  0.4589  0.6425
 5082TIP3    H136661   4.260   4.378   2.066 -1.8424 -1.4469  0.3528
 5082TIP3    H236662   4.168   4.414   1.951  0.6562  0.4700 -1.0930
 5083TIP3   OH236663   6.092   1.937  15.884 -0.2181 -0.1962  0.5096
 5083TIP3    H136664   6.128   1.988  15.957 -0.6876 -0.6647  1.0706
 5083TIP3    H236665   6.002   1.920  15.909  0.1751 -2.0411  0.7077
 5084TIP3   OH236666   0.248   4.371  15.417 -0.1064  0.0035 -0.3658
 5084TIP3    H136667   0.160   4.347  15.446  0.0967 -0.3793 -0.0695
 5084TIP3    H236668   0.298   4.290  15.423 -0.4130 -0.4640 -3.1758
 5085TIP3   OH236669   2.459   1.971   4.037  0.4722 -0.6378 -0.2234
 5085TIP3    H136670   2.536   1.918   4.015  0.7669  0.3167 -1.5568
 5085TIP3    H236671   2.494   2.052   4.073  0.1045 -0.2013 -0.8259
 5086TIP3   OH236672   4.387   6.335  13.218 -0.2602 -0.6578  0.0754
 5086TIP3    H136673   4.388   6.240  13.223 -1.2011 -0.7988 -1.9437
 5086TIP3    H236674   4.480   6.361  13.221 -0.0869 -1.3738  3.9160
 5087TIP3   OH236675   1.596   4.243  13.509  0.5608 -0.0327  0.4384
 5087TIP3    H136676   1.568   4.171  13.452  1.5485 -0.0401 -0.0361
 5087TIP3    H236677   1.583   4.322  13.457 -1.1011  0.2139  1.1730
 5088TIP3   OH236678   4.150   5.574   5.213 -0.3419  0.2359 -0.0772
 5088TIP3    H136679   4.095   5.518   5.269  0.2446  0.4292  0.7074
 5088TIP3    H236680   4.237   5.533   5.217  0.1020  1.2189  0.5316
 5089TIP3   OH236681   0.664   2.066   1.393 -0.0859  0.0404 -0.0289
 5089TIP3    H136682   0.731   1.998   1.402 -0.4137 -0.1773  0.7681
 5089TIP3    H236683   0.703   2.143   1.434 -0.7245 -0.3662  1.3649
 5090TIP3   OH236684   6.168   0.422  12.063 -0.3397 -0.0801 -0.4835
 5090TIP3    H136685   6.130   0.500  12.102 -0.7596 -1.3673  1.8168
 5090TIP3    H236686   6.137   0.350  12.118  0.7698 -1.7703 -1.9884
 5091TIP3   OH236687   0.227   0.146   2.046 -0.3452  0.1345  0.1691
 5091TIP3    H136688   0.153   0.085   2.056  0.6882 -1.4827 -1.6283
 5091TIP3    H236689   0.186   0.232   2.037 -1.9531 -0.5724  0.5603
 5092TIP3   OH236690   3.963   6.159  14.423 -0.9717 -0.2217  0.5290
 5092TIP3    H136691   3.964   6.154  14.327  0.7702 -0.0840  0.5275
 5092TIP3    H236692   3.876   6.128  14.447 -0.9625 -1.5425 -1.0234
 5093TIP3   OH236693   6.731   4.641   2.517  0.3284 -0.2062  0.0837
 5093TIP3    H136694   6.718   4.725   2.562 -1.6219 -1.1400  1.3103
 5093TIP3    H236695   6.820   4.615   2.541 -0.3066 -0.1639  2.5809
 5094TIP3   OH236696   1.579   6.100   5.765 -0.7257 -0.9055  0.1679
 5094TIP3    H136697   1.581   6.051   5.847  1.2955  0.1297  0.7689
 5094TIP3    H236698   1.671   6.117   5.745 -1.2099 -0.9772 -2.2139
 5095TIP3   OH236699   4.525   1.921  10.916 -0.1207 -0.2375  0.7708
 5095TIP3    H136700   4.466   1.862  10.870 -0.6672  0.1956  0.9171
 5095TIP3    H236701   4.587   1.950  10.850  0.4589 -1.3766  0.8120
 5096TIP3   OH236702   2.393   2.078  11.600 -0.9796  0.1830  0.4046
 5096TIP3    H136703   2.479   2.038  11.589 -0.5765  1.1372  0.0336
 5096TIP3    H236704   2.332   2.016  11.558 -0.4268 -0.2601  0.2536
 5097TIP3   OH236705   4.572   5.154   5.964  0.0209  0.5391 -0.3750
 5097TIP3    H136706   4.630   5.078   5.955  0.4626  0.5218  2.2245
 5097TIP3    H236707   4.632   5.229   5.967 -0.2344  0.7253  0.0485
 5098TIP3   OH236708   1.386   2.868   1.747  0.2824  0.3714 -0.1545
 5098TIP3    H136709   1.398   2.833   1.659 -0.6307 -0.5459  0.0684
 5098TIP3    H236710   1.450   2.939   1.755  0.7678  0.0650 -1.3404
 5099TIP3   OH236711   2.192   4.527   4.641 -0.3406 -0.4444  0.0223
 5099TIP3    H136712   2.175   4.569   4.725  1.5917 -0.0389  0.2355
 5099TIP3    H236713   2.191   4.598   4.577  0.7459 -0.3684  0.0762
 5100TIP3   OH236714   3.268   3.375   5.897  0.4149 -0.2274  0.1337
 5100TIP3    H136715   3.277   3.459   5.941 -0.3010 -0.6508  1.1022
 5100TIP3    H236716   3.220   3.396   5.816  0.8853  0.3988  0.0134
 5101TIP3   OH236717   2.145   2.331  13.620 -0.0631 -0.2240  0.0746
 5101TIP3    H136718   2.163   2.399  13.685 -0.4407  0.8887 -0.9548
 5101TIP3    H236719   2.104   2.261  13.670 -0.1622  0.5188  1.0670
 5102TIP3   OH236720   4.509   4.220  10.986 -0.3152 -0.5182 -0.2691
 5102TIP3    H136721   4.460   4.184  10.912 -0.5650 -0.4387 -0.1440
 5102TIP3    H236722   4.483   4.312  10.989 -1.1294 -0.7645  0.5827
 5103TIP3   OH236723   2.262   3.247   0.753  0.0557 -0.9209  1.0957
 5103TIP3    H136724   2.315   3.296   0.816  0.5135 -0.9440  0.7348
 5103TIP3    H236725   2.252   3.308   0.679 -1.1555 -0.5909  1.5185
 5104TIP3   OH236726   2.706   0.163   0.465  0.0418 -0.1209  0.3245
 5104TIP3    H136727   2.728   0.255   0.451  0.7957 -0.0926  1.5856
 5104TIP3    H236728   2.610   0.160   0.462  0.0916  0.0279 -3.6534
 5105TIP3   OH236729   5.585   0.988   2.441  0.4212 -0.2155  0.3256
 5105TIP3    H136730   5.604   0.972   2.534  0.2157  0.4206  0.4754
 5105TIP3    H236731   5.515   1.052   2.442  0.4773 -0.1507 -0.2753
 5106TIP3   OH236732   1.684   6.353   2.101 -0.2780  0.2224 -0.7614
 5106TIP3    H136733   1.640   6.269   2.096  0.3778 -0.1493 -0.4253
 5106TIP3    H236734   1.654   6.401   2.024 -1.9374  0.3152 -0.0605
 5107TIP3   OH236735   5.229   5.758  11.801  0.1429 -0.1653 -0.3723
 5107TIP3    H136736   5.268   5.730  11.885 -1.4258 -1.3756 -0.0274
 5107TIP3    H236737   5.269   5.699  11.736  0.6047  0.1146 -0.3489
 5108TIP3   OH236738   0.999   6.650  12.662 -0.4076  0.0868  0.2160
 5108TIP3    H136739   0.968   6.564  12.632 -0.6443 -0.0429  0.8153
 5108TIP3    H236740   1.057   6.680  12.592  0.8308 -1.2216  0.6417
 5109TIP3   OH236741   0.749   3.281   2.328 -0.3746 -0.0351 -0.1041
 5109TIP3    H136742   0.735   3.223   2.403  0.9865 -0.7524 -0.4087
 5109TIP3    H236743   0.763   3.223   2.254  1.0272  0.6745 -0.4044
 5110TIP3   OH236744   1.943   1.172   0.865  0.7120 -0.3532  0.3177
 5110TIP3    H136745   1.856   1.137   0.848  0.0050 -0.8189  4.4601
 5110TIP3    H236746   1.994   1.146   0.788 -2.6908 -0.2461 -2.1032
 5111TIP3   OH236747   0.035   0.528  11.164 -0.7131  0.7854 -0.8118
 5111TIP3    H136748   0.084   0.610  11.157 -0.6306  0.8412  0.3392
 5111TIP3    H236749   0.028   0.513  11.258  1.4880 -1.8747 -1.0301
 5112TIP3   OH236750   1.215   0.842   6.216 -0.5996  0.0486  0.1972
 5112TIP3    H136751   1.301   0.851   6.256  0.0782  1.9873 -1.6213
 5112TIP3    H236752   1.215   0.753   6.179  0.2713 -0.2631  0.9282
 5113TIP3   OH236753   3.560   3.640  16.662  0.0554 -0.3209  0.0158
 5113TIP3    H136754   3.559   3.707  16.730  1.3317 -0.9465  0.6614
 5113TIP3    H236755   3.471   3.642  16.626 -0.0600  1.3945  0.3273
 5114TIP3   OH236756   2.142   1.146  15.037  0.4910  0.1723 -0.7180
 5114TIP3    H136757   2.123   1.220  15.094  1.1487  0.2085 -0.5436
 5114TIP3    H236758   2.199   1.181  14.969 -0.5691  0.2018 -1.5868
 5115TIP3   OH236759   2.424   5.428   5.376 -0.1428  0.8667 -0.0617
 5115TIP3    H136760   2.437   5.454   5.285 -1.0964  2.7443  0.3063
 5115TIP3    H236761   2.497   5.467   5.423 -0.3227  0.9444  0.1565
 5116TIP3   OH236762   3.931   6.615  14.488  0.3625  0.0975  0.5150
 5116TIP3    H136763   4.026   6.608  14.498  0.8016  0.8207 -2.7274
 5116TIP3    H236764   3.898   6.528  14.512  1.6073  0.3604  3.4441
 5117TIP3   OH236765   0.297   2.081   4.089  0.0262  0.0664  0.0171
 5117TIP3    H136766   0.290   2.168   4.128  4.0026 -0.9182  3.3793
 5117TIP3    H236767   0.374   2.086   4.033 -0.2309 -1.0475 -0.4544
 5118TIP3   OH236768   1.362   1.781   3.955  0.0559 -0.5907  0.8116
 5118TIP3    H136769   1.355   1.790   4.050 -0.7058  0.4259  0.6700
 5118TIP3    H236770   1.380   1.870   3.924 -2.4802 -0.3758 -0.2133
 5119TIP3   OH236771   4.609   1.454  15.672  0.1666 -0.0113 -0.0484
 5119TIP3    H136772   4.598   1.547  15.691 -0.3507  0.0715 -0.7599
 5119TIP3    H236773   4.598   1.411  15.757 -0.2145  0.5256  0.1736
 5120TIP3   OH236774   2.471   2.286  15.645 -0.9436  0.0250  0.2119
 5120TIP3    H136775   2.495   2.232  15.570  2.7194 -0.2656  1.5153
 5120TIP3    H236776   2.549   2.339  15.663 -2.5671  1.7992  2.3695
 5121TIP3   OH236777   5.464   4.186  12.532 -0.4388  0.2173  0.4088
 5121TIP3    H136778   5.386   4.243  12.527 -0.2413  0.4631  0.1107
 5121TIP3    H236779   5.537   4.245  12.512 -0.4856 -0.7527 -2.7694
 5122TIP3   OH236780   4.920   5.799   2.172 -0.1604 -0.2433  0.5060
 5122TIP3    H136781   5.010   5.766   2.171 -0.7046 -1.8371 -2.0633
 5122TIP3    H236782   4.910   5.845   2.088 -1.5431  0.4104  1.0093
 5123TIP3   OH236783   3.699   1.094   3.625 -0.4292 -0.0048  0.0980
 5123TIP3    H136784   3.725   1.147   3.701  0.3105 -0.8277  0.4305
 5123TIP3    H236785   3.762   1.118   3.557 -0.6794  0.2368 -0.0498
 5124TIP3   OH236786   1.279   6.607   5.505  0.1852 -0.1642 -0.4614
 5124TIP3    H136787   1.205   6.662   5.481 -0.4036 -0.1387  1.3486
 5124TIP3    H236788   1.355   6.650   5.465 -0.4583  1.1625 -0.2679
 5125TIP3   OH236789   1.973   0.514  11.686  0.1353  0.2555  0.1642
 5125TIP3    H136790   1.995   0.421  11.687 -3.6593 -0.7224  1.2142
 5125TIP3    H236791   2.023   0.550  11.759  0.9954 -1.1287  0.2878
 5126TIP3   OH236792   3.632   3.945  15.753  0.0075  0.3584  0.4299
 5126TIP3    H136793   3.630   4.040  15.760 -0.4208  0.3985 -0.1863
 5126TIP3    H236794   3.635   3.928  15.658 -1.9651 -0.2649  0.4609
 5127TIP3   OH236795   2.068   1.065   6.381  0.5096  0.0289 -0.6720
 5127TIP3    H136796   2.135   1.042   6.444 -1.3034 -2.8899  0.2677
 5127TIP3    H236797   2.116   1.089   6.302  2.7439  2.1763  1.2539
 5128TIP3   OH236798   2.010   6.438  11.932  0.1080  0.4878 -0.2863
 5128TIP3    H136799   2.089   6.415  11.883 -0.7703  0.2731 -1.6475
 5128TIP3    H236800   2.042   6.465  12.018  1.4869 -2.1357  0.0833
 5129TIP3   OH236801   3.685   2.438   5.984  0.2032  0.3228  0.2854
 5129TIP3    H136802   3.671   2.345   5.968 -2.6332  0.7145  0.2643
 5129TIP3    H236803   3.732   2.442   6.067  0.8311 -1.1219  0.0071
 5130TIP3   OH236804   6.758   4.300   4.306  0.2024  0.1613 -0.2746
 5130TIP3    H136805   6.818   4.278   4.377  1.7163  0.2256 -1.5115
 5130TIP3    H236806   6.708   4.375   4.339  0.2335 -0.4054  1.0786
 5131TIP3   OH236807   6.775   1.094  15.224 -0.4213  1.1259 -0.3752
 5131TIP3    H136808   6.817   1.088  15.310 -1.3991  0.6654  0.0895
 5131TIP3    H236809   6.797   1.181  15.191  1.6354  0.5561 -0.5465
 5132TIP3   OH236810   0.600   1.960   3.250 -0.4064 -0.0677  0.3170
 5132TIP3    H136811   0.622   1.924   3.336  0.1567 -0.9611 -0.1973
 5132TIP3    H236812   0.571   1.885   3.199 -0.5674  0.4332 -0.3346
 5133TIP3   OH236813   2.219   4.290   2.879  0.0752 -0.0988 -0.5287
 5133TIP3    H136814   2.242   4.249   2.962  1.5849  2.7859  0.5567
 5133TIP3    H236815   2.238   4.224   2.812  2.5656 -1.1032  1.1213
 5134TIP3   OH236816   1.917   1.861   0.328  0.0476  0.2063  0.0219
 5134TIP3    H136817   1.933   1.915   0.250  0.9460 -0.0623  0.0174
 5134TIP3    H236818   1.830   1.824   0.313 -0.4424  1.3700 -0.1359
 5135TIP3   OH236819   0.634   2.606  15.469 -0.1208 -0.2103 -0.3913
 5135TIP3    H136820   0.702   2.542  15.447  0.4962  0.0104  0.8087
 5135TIP3    H236821   0.552   2.563  15.446  0.4008 -0.6965 -1.3454
 5136TIP3   OH236822   5.225   1.615   5.593 -0.0029  0.0298  0.0842
 5136TIP3    H136823   5.178   1.609   5.676  0.4955 -0.4399  0.3371
 5136TIP3    H236824   5.235   1.524   5.564 -1.1522  0.2559 -1.0425
 5137TIP3   OH236825   3.880   5.045  15.962  0.6699 -0.5256 -0.2350
 5137TIP3    H136826   3.883   4.993  16.042 -0.7219 -0.3867 -0.0899
 5137TIP3    H236827   3.787   5.052  15.941  0.9066  1.0820 -0.7967
 5138TIP3   OH236828   2.687   1.433   4.348  0.1931 -0.4502  0.3829
 5138TIP3    H136829   2.614   1.473   4.395 -0.3171 -1.3292  0.3705
 5138TIP3    H236830   2.652   1.418   4.259  0.8904  0.5026 -0.0532
 5139TIP3   OH236831   2.749   0.817  14.133 -0.1973  0.2507 -0.1215
 5139TIP3    H136832   2.714   0.828  14.222  0.4266 -1.3219  0.3355
 5139TIP3    H236833   2.743   0.723  14.116  3.0713  0.0174 -0.3047
 5140TIP3   OH236834   3.674   6.456   4.244 -0.1187 -0.4731 -0.0647
 5140TIP3    H136835   3.697   6.449   4.336  0.3540  0.0462 -0.1376
 5140TIP3    H236836   3.603   6.393   4.232 -0.8154  0.1171  0.8667
 5141TIP3   OH236837   2.611   1.856   4.961  0.1106  0.0041 -0.4969
 5141TIP3    H136838   2.610   1.805   5.043 -0.5384 -0.5941 -0.8717
 5141TIP3    H236839   2.702   1.851   4.932  0.0251 -1.0988 -0.6149
 5142TIP3   OH236840   3.835   3.471  12.050  0.2125 -0.0479  0.8280
 5142TIP3    H136841   3.815   3.441  12.139  0.9489  2.7886  2.0011
 5142TIP3    H236842   3.900   3.409  12.018  0.6418 -0.5533  2.6287
 5143TIP3   OH236843   0.720   6.402  12.011  0.1337 -0.1534  0.0709
 5143TIP3    H136844   0.636   6.364  12.036  0.4124 -0.8997 -0.1157
 5143TIP3    H236845   0.703   6.445  11.928 -0.2263  0.2862  0.3682
 5144TIP3   OH236846   0.304   0.315  11.229 -0.3731 -0.6863 -0.2980
 5144TIP3    H136847   0.374   0.293  11.168 -0.3039  0.3535 -0.5895
 5144TIP3    H236848   0.224   0.295  11.182 -0.3219  0.2504 -0.7766
 5145TIP3   OH236849   1.379   6.591  12.217  0.2696  0.4931 -0.0189
 5145TIP3    H136850   1.351   6.679  12.191 -0.6608  0.7451  1.7500
 5145TIP3    H236851   1.326   6.533  12.164  2.2351  0.9779 -2.5841
 5146TIP3   OH236852   0.759   0.136   2.510  0.1453 -0.3205  0.0094
 5146TIP3    H136853   0.725   0.205   2.567 -0.3103 -1.9836  1.8266
 5146TIP3    H236854   0.831   0.177   2.462 -0.5628  1.5870  0.5572
 5147TIP3   OH236855   3.105   4.718  12.802  0.2905 -0.2534  0.2573
 5147TIP3    H136856   3.063   4.804  12.808  0.9566  0.2333 -1.7486
 5147TIP3    H236857   3.197   4.735  12.824  0.6314 -0.2568 -1.1382
 5148TIP3   OH236858   2.355   1.471  11.833 -0.5960 -0.8406  0.2321
 5148TIP3    H136859   2.289   1.443  11.771 -0.5475 -0.4898  0.0241
 5148TIP3    H236860   2.378   1.391  11.881  0.2968 -1.3830 -1.0658
 5149TIP3   OH236861   3.653   3.476  12.403 -0.0839  0.3672  0.1756
 5149TIP3    H136862   3.574   3.426  12.381  0.1624  0.9461 -2.0429
 5149TIP3    H236863   3.707   3.414  12.451 -0.4343 -1.0574 -1.2391
 5150TIP3   OH236864   2.627   5.603   2.019  0.5496 -0.4747 -0.8043
 5150TIP3    H136865   2.659   5.618   2.108  1.6053 -2.3265 -0.8442
 5150TIP3    H236866   2.694   5.642   1.962  1.4264 -1.9622 -0.8272
 5151TIP3   OH236867   6.696   6.716   1.682  0.6926 -0.6021 -0.1773
 5151TIP3    H136868   6.642   6.688   1.608  0.3952 -0.3068 -0.0761
 5151TIP3    H236869   6.679   6.652   1.750 -0.0525 -0.1344  0.0840
 5152TIP3   OH236870   5.758   2.861  14.133  0.1344 -0.9235 -0.0221
 5152TIP3    H136871   5.687   2.798  14.148  0.4078 -1.3359 -0.4441
 5152TIP3    H236872   5.834   2.807  14.110  0.1991 -0.4039 -1.0551
 5153TIP3   OH236873   4.887   6.561  16.728 -0.1568 -0.3600 -0.3419
 5153TIP3    H136874   4.852   6.554  16.817  0.3648  1.1408  0.0003
 5153TIP3    H236875   4.912   6.471  16.705 -0.7456 -0.8421  0.8354
 5154TIP3   OH236876   4.835   4.122  15.339 -0.0462  0.6839 -0.2079
 5154TIP3    H136877   4.786   4.093  15.263 -1.5186 -0.6710  1.2096
 5154TIP3    H236878   4.855   4.041  15.387  1.3904  1.4532  0.5356
 5155TIP3   OH236879   6.587   3.279   1.073  0.1927 -0.0704  0.5331
 5155TIP3    H136880   6.517   3.219   1.098 -0.1746  0.0010 -0.3144
 5155TIP3    H236881   6.645   3.281   1.149 -0.5019 -0.4538  1.0791
 5156TIP3   OH236882   6.215   0.415   5.761 -0.3658  0.0022  0.2917
 5156TIP3    H136883   6.271   0.337   5.766  1.2774  1.1747  0.6210
 5156TIP3    H236884   6.250   0.464   5.687 -2.1253 -0.1030 -0.6380
 5157TIP3   OH236885   0.684   6.028   3.316 -0.3325 -0.2059 -0.2888
 5157TIP3    H136886   0.741   6.003   3.243 -0.7915  0.1613 -0.7879
 5157TIP3    H236887   0.613   6.077   3.274 -2.2777 -2.6550  0.0224
 5158TIP3   OH236888   2.407   0.798   2.710  0.3645  0.0745 -0.0842
 5158TIP3    H136889   2.415   0.710   2.748 -0.7179  1.1628  2.7158
 5158TIP3    H236890   2.326   0.794   2.658 -2.6108  0.8629  4.2566
 5159TIP3   OH236891   0.528   0.247   6.410  0.5041  0.2653  0.5048
 5159TIP3    H136892   0.456   0.304   6.438  0.1588  0.4353 -0.7150
 5159TIP3    H236893   0.488   0.161   6.401  0.3557  0.4584 -0.6399
 5160TIP3   OH236894   1.888   5.951   2.974 -0.1566 -0.0658 -0.1099
 5160TIP3    H136895   1.890   5.865   3.017 -0.9321  0.4411  0.9865
 5160TIP3    H236896   1.969   5.993   3.000  0.6759 -0.8284 -1.4387
 5161TIP3   OH236897   6.594   1.916  14.960 -0.5748  0.7707 -0.1778
 5161TIP3    H136898   6.680   1.938  14.922 -0.7575  1.1733 -0.3671
 5161TIP3    H236899   6.539   1.897  14.885 -0.8831  1.3635 -0.1057
 5162TIP3   OH236900   2.281   6.431  16.724 -0.2409  0.4700  0.0072
 5162TIP3    H136901   2.286   6.448  16.630 -0.0328 -0.2873 -0.1227
 5162TIP3    H236902   2.199   6.471  16.752 -0.8534 -0.2690 -0.7075
 5163TIP3   OH236903   3.877   0.351  12.235  0.3742 -0.0166  0.4341
 5163TIP3    H136904   3.869   0.354  12.331  0.9657  1.5437  0.4612
 5163TIP3    H236905   3.951   0.292  12.219 -0.0676 -0.7058  0.9090
 5164TIP3   OH236906   0.982   1.938  16.047 -0.2041 -0.1032 -0.4737
 5164TIP3    H136907   0.930   2.017  16.031  0.8896  0.5991 -0.6715
 5164TIP3    H236908   1.068   1.958  16.009  0.6111 -0.7114  1.0083
 5165TIP3   OH236909   0.704   5.206   0.195  0.2010 -0.0947  0.3325
 5165TIP3    H136910   0.737   5.192   0.107 -0.1451  1.0200  0.0098
 5165TIP3    H236911   0.779   5.190   0.253  0.7003  0.1959 -0.2334
 5166TIP3   OH236912   5.317   3.408   4.400  0.1286 -0.4023 -0.0305
 5166TIP3    H136913   5.229   3.405   4.361  0.5657 -1.4228 -0.9680
 5166TIP3    H236914   5.309   3.354   4.479 -0.4443  0.6711  0.6616
 5167TIP3   OH236915   2.244   5.205  15.702  0.0521  0.3327  0.7018
 5167TIP3    H136916   2.326   5.172  15.666  1.2323  3.2598  0.5718
 5167TIP3    H236917   2.180   5.193  15.632  1.2119  1.3974 -0.5627
 5168TIP3   OH236918   1.071   5.600  11.294 -0.6071 -0.3035 -0.3895
 5168TIP3    H136919   1.051   5.684  11.255  0.0376  0.4871  0.9153
 5168TIP3    H236920   0.992   5.547  11.282 -0.4461 -0.0525 -2.6168
 5169TIP3   OH236921   1.810   2.198  14.288 -0.3719 -0.8117  0.2058
 5169TIP3    H136922   1.833   2.116  14.332  0.1125 -0.8517 -0.1154
 5169TIP3    H236923   1.886   2.218  14.233  0.4657  1.0221  1.9656
 5170TIP3   OH236924   1.487   2.449  13.671 -0.5377 -0.7068 -0.0764
 5170TIP3    H136925   1.456   2.417  13.756 -2.2290  1.4134  0.1605
 5170TIP3    H236926   1.560   2.507  13.693 -1.3030  0.2454  0.0005
 5171TIP3   OH236927   2.085   3.070  12.987  0.1898 -0.0773 -0.2163
 5171TIP3    H136928   2.057   2.980  12.973  0.9149 -0.3441 -0.0004
 5171TIP3    H236929   2.006   3.122  12.974 -0.0149 -0.6529 -1.3478
 5172TIP3   OH236930   2.252   5.443   3.260  0.0719  0.3805 -0.0698
 5172TIP3    H136931   2.220   5.498   3.332  0.5076 -0.3314  0.6743
 5172TIP3    H236932   2.230   5.492   3.181 -1.5299  0.5934  0.4911
 5173TIP3   OH236933   3.513   2.760   4.724 -0.0266  0.2141  0.3878
 5173TIP3    H136934   3.575   2.827   4.693 -1.0326  1.2809  0.6375
 5173TIP3    H236935   3.469   2.801   4.798  0.2205 -1.2068  1.3408
 5174TIP3   OH236936   0.425   2.829   4.571 -0.5868 -0.5440  0.0544
 5174TIP3    H136937   0.378   2.906   4.539 -0.5966 -0.5057  0.1622
 5174TIP3    H236938   0.517   2.856   4.569 -0.8250  0.7496  3.5315
 5175TIP3   OH236939   4.176   3.630  12.847 -0.2628 -0.7562  0.3172
 5175TIP3    H136940   4.250   3.570  12.835 -2.0132 -2.8362 -0.2922
 5175TIP3    H236941   4.112   3.581  12.898 -1.6441  0.6486 -0.0105
 5176TIP3   OH236942   6.665   5.238   0.557  0.2442  0.6423  0.3897
 5176TIP3    H136943   6.734   5.215   0.495 -0.4895  2.6786 -1.2564
 5176TIP3    H236944   6.587   5.251   0.502 -1.2815 -0.7969  2.1188
 5177TIP3   OH236945   5.165   2.094   3.918  0.1939 -0.1566 -0.3114
 5177TIP3    H136946   5.226   2.103   3.991 -1.7106  0.2028  1.2885
 5177TIP3    H236947   5.188   2.165   3.858 -0.6080  1.8926  1.7339
 5178TIP3   OH236948   6.182   4.423   4.029 -0.0775  0.7053 -0.2913
 5178TIP3    H136949   6.182   4.483   4.103  0.6881  0.8103 -0.3794
 5178TIP3    H236950   6.241   4.463   3.965  1.2848 -0.6709  0.0833
 5179TIP3   OH236951   1.087   1.963   0.280 -0.1110  0.0990  0.4634
 5179TIP3    H136952   1.050   1.922   0.358 -0.1164  0.9786  0.9332
 5179TIP3    H236953   1.182   1.959   0.293 -0.0513 -1.4950 -0.3969
 5180TIP3   OH236954   5.814   0.190   3.191  0.0041 -0.2699  0.2813
 5180TIP3    H136955   5.854   0.244   3.122 -0.2995 -2.0913 -1.3482
 5180TIP3    H236956   5.721   0.186   3.168  0.0127 -1.4194  0.4215
 5181TIP3   OH236957   3.588   4.692   0.354 -0.4963 -0.1321 -0.1596
 5181TIP3    H136958   3.598   4.713   0.446 -0.7889 -0.9976  0.0700
 5181TIP3    H236959   3.677   4.691   0.319 -0.3888  0.2123  0.1066
 5182TIP3   OH236960   2.582   3.056  14.896  0.0587 -0.3966 -0.1210
 5182TIP3    H136961   2.563   3.032  14.986  0.7830  1.0786  0.4441
 5182TIP3    H236962   2.497   3.081  14.859 -0.5887 -3.0015 -0.5098
 5183TIP3   OH236963   6.582   3.747  17.157  0.1989  0.1196  0.2071
 5183TIP3    H136964   6.535   3.753  17.240 -0.1032 -1.2548  0.1531
 5183TIP3    H236965   6.663   3.796  17.172  1.2570 -2.0806  2.1471
 5184TIP3   OH236966   5.239   2.073  12.194  0.5250 -0.2282 -0.3663
 5184TIP3    H136967   5.223   2.021  12.115  0.8336  0.0986 -0.6481
 5184TIP3    H236968   5.334   2.070  12.206  0.9781  3.0088 -2.3211
 5185TIP3   OH236969   1.590   1.360   3.414  0.4740  0.7609 -0.0103
 5185TIP3    H136970   1.639   1.308   3.477  0.8739 -0.1997 -1.0930
 5185TIP3    H236971   1.620   1.450   3.428 -0.8026  0.8413  2.4192
 5186TIP3   OH236972   0.225   2.489   0.761 -0.0154 -0.1834 -0.1004
 5186TIP3    H136973   0.148   2.537   0.729  1.7006  1.4461 -1.8524
 5186TIP3    H236974   0.282   2.557   0.798  1.1877 -1.2123 -0.0368
 5187TIP3   OH236975   5.651   5.962  14.641  0.2212  0.1761 -0.2327
 5187TIP3    H136976   5.718   5.893  14.647 -0.5952 -0.6520 -0.5366
 5187TIP3    H236977   5.575   5.925  14.685 -0.0499  1.1123  0.0805
 5188TIP3   OH236978   3.366   1.864   5.365 -0.1740  0.5822  0.0501
 5188TIP3    H136979   3.438   1.841   5.307  0.2616  0.0359  0.8061
 5188TIP3    H236980   3.406   1.914   5.436 -0.6346  0.8455  0.1302
 5189TIP3   OH236981   1.402   2.290   3.383  0.3168  0.0604  0.2154
 5189TIP3    H136982   1.374   2.334   3.463 -0.8719  2.5508 -1.5206
 5189TIP3    H236983   1.488   2.328   3.364 -1.0501  2.2902 -1.7095
 5190TIP3   OH236984   4.378   5.452   0.152  0.2307 -0.1305  0.0223
 5190TIP3    H136985   4.428   5.430   0.230 -2.1117 -1.0475  1.3109
 5190TIP3    H236986   4.431   5.417   0.080  1.1640 -1.6016  1.3817
 5191TIP3   OH236987   1.951   6.302   2.226 -0.0705  0.1334  0.1950
 5191TIP3    H136988   1.948   6.263   2.313  0.3098 -0.4072 -0.0304
 5191TIP3    H236989   1.860   6.327   2.207 -0.4862 -1.5314 -0.0594
 5192TIP3   OH236990   6.653   6.687   1.005  0.0165  0.2742  0.1528
 5192TIP3    H136991   6.597   6.622   0.963  1.6003 -0.5257 -0.7806
 5192TIP3    H236992   6.610   6.771   0.987  0.1003 -0.1437 -2.1781
 5193TIP3   OH236993   6.698   5.119   0.072 -0.0150  0.0869 -0.8223
 5193TIP3    H136994   6.696   5.171  -0.009 -0.8855  1.5894  0.1490
 5193TIP3    H236995   6.645   5.042   0.052 -1.5318  1.2005 -1.2015
 5194TIP3   OH236996   4.942   5.060   1.684 -0.1048 -0.0910  0.1289
 5194TIP3    H136997   4.871   5.070   1.621 -0.2377 -0.2726  0.2473
 5194TIP3    H236998   4.981   5.147   1.691 -0.0975 -0.0688 -0.1957
 5195TIP3   OH236999   3.308   1.271  16.094  0.7966  0.1956 -0.1398
 5195TIP3    H137000   3.398   1.303  16.091  1.8842 -2.1310  3.7543
 5195TIP3    H237001   3.310   1.189  16.044  0.8130  0.2509 -0.2293
 5196TIP3   OH237002   2.733   3.283  14.581  0.5383  0.3307 -0.4758
 5196TIP3    H137003   2.785   3.318  14.653 -0.6882  0.9698  0.1184
 5196TIP3    H237004   2.669   3.352  14.562 -0.0316 -0.4009 -1.2425
 5197TIP3   OH237005   5.452   0.323  13.900 -0.1199  0.2826  0.4457
 5197TIP3    H137006   5.491   0.253  13.952 -1.0109  0.1722  0.9922
 5197TIP3    H237007   5.506   0.329  13.821  1.6941  0.9116  1.6818
 5198TIP3   OH237008   2.709   5.611  13.256  0.0306  0.5329 -0.0852
 5198TIP3    H137009   2.737   5.648  13.339 -1.3287  0.8868  0.2323
 5198TIP3    H237010   2.790   5.592  13.208  0.9406 -2.1732  2.3758
 5199TIP3   OH237011   4.837   5.053  15.601 -0.6700  0.2572  0.3924
 5199TIP3    H137012   4.860   5.133  15.647 -2.8363  1.5952 -0.7457
 5199TIP3    H237013   4.883   5.059  15.517  0.0517 -0.2272  0.7532
 5200TIP3   OH237014   3.803   3.939  11.888 -0.5010  0.7356  0.1159
 5200TIP3    H137015   3.710   3.939  11.910 -0.1761 -0.9200  1.5822
 5200TIP3    H237016   3.822   3.849  11.863  0.5681  1.2200 -0.8815
 5201TIP3   OH237017   5.840   3.921   4.435 -0.0383 -1.3720  0.3254
 5201TIP3    H137018   5.761   3.928   4.381  0.1903 -0.4637  0.0996
 5201TIP3    H237019   5.808   3.913   4.525 -0.3706  2.1127  0.5742
 5202TIP3   OH237020   3.834   0.566  16.049 -0.1512  0.6731  0.1861
 5202TIP3    H137021   3.745   0.539  16.028 -0.3261  1.0535  0.4411
 5202TIP3    H237022   3.844   0.545  16.141 -0.5240  2.1086  0.5676
 5203TIP3   OH237023   5.439   0.425   5.292 -0.5331  0.0989 -0.5724
 5203TIP3    H137024   5.415   0.456   5.205 -1.3507 -1.9388 -1.0872
 5203TIP3    H237025   5.499   0.492   5.325 -0.5457  1.1069 -2.5177
 5204TIP3   OH237026   0.455   4.115  13.162 -0.4272 -0.2587  0.2114
 5204TIP3    H137027   0.505   4.035  13.150 -0.4449 -0.2828  0.3007
 5204TIP3    H237028   0.500   4.180  13.109  0.0162 -0.1487  0.7213
 5205TIP3   OH237029   1.360   5.237   0.216 -0.1402 -0.3231 -0.1817
 5205TIP3    H137030   1.268   5.212   0.203 -0.5937  1.7090 -1.1177
 5205TIP3    H237031   1.401   5.225   0.131 -0.0647  0.8076 -0.3158
 5206TIP3   OH237032   2.706   3.080  12.855 -0.8677  0.2269 -0.0735
 5206TIP3    H137033   2.768   3.087  12.782 -0.1779  0.3604  0.5146
 5206TIP3    H237034   2.643   3.150  12.839 -0.0970  0.9595  0.0327
 5207TIP3   OH237035   1.901   2.081   1.044  0.2086 -0.2495  0.0466
 5207TIP3    H137036   1.828   2.141   1.062  0.7933  0.3373  0.4915
 5207TIP3    H237037   1.972   2.138   1.014  0.1029 -0.9487 -1.5410
 5208TIP3   OH237038   5.369   4.740   4.197  0.1115  0.6004  0.3807
 5208TIP3    H137039   5.352   4.725   4.290 -0.7262 -0.1246  0.1267
 5208TIP3    H237040   5.292   4.702   4.153 -0.0103  1.8882 -0.5364
 5209TIP3   OH237041   5.821   5.656  10.723  0.0296 -0.1244  0.3657
 5209TIP3    H137042   5.881   5.729  10.710  0.7369 -0.0365  3.8830
 5209TIP3    H237043   5.738   5.697  10.747 -0.3307 -0.4235 -0.3255
 5210TIP3   OH237044   3.164   1.104  10.765  0.4235 -0.0418 -0.0469
 5210TIP3    H137045   3.094   1.120  10.701 -0.2800  0.4573  0.8318
 5210TIP3    H237046   3.135   1.028  10.815  0.0922  0.6602  0.8620
 5211TIP3   OH237047   3.108   3.499  15.075 -0.0078 -0.0567  0.3224
 5211TIP3    H137048   3.112   3.409  15.042  1.4270  0.1784 -0.1645
 5211TIP3    H237049   3.197   3.517  15.106 -0.2496  1.2587  0.2726
 5212TIP3   OH237050   4.716   6.175   4.064  0.1076 -0.3040 -0.3133
 5212TIP3    H137051   4.636   6.201   4.018 -1.2020 -3.3061  0.1189
 5212TIP3    H237052   4.696   6.190   4.157  0.9851  1.2713 -0.3678
 5213TIP3   OH237053   4.683   1.447   2.728  0.0333 -0.3415 -0.1679
 5213TIP3    H137054   4.674   1.371   2.671  0.1334  0.2973 -1.0537
 5213TIP3    H237055   4.777   1.459   2.739  0.0104 -0.5661  0.2702
 5214TIP3   OH237056   4.001   5.981   1.974  0.1902 -0.7251 -0.2125
 5214TIP3    H137057   3.954   5.897   1.975  2.5039 -2.0584 -0.1395
 5214TIP3    H237058   4.075   5.968   2.032  2.1856  0.4072 -2.4153
 5215TIP3   OH237059   4.124   4.549  15.650 -0.2034 -0.4644 -0.2895
 5215TIP3    H137060   4.150   4.478  15.591 -0.1068  0.1019 -0.9268
 5215TIP3    H237061   4.173   4.532  15.731  0.8402 -0.3739 -0.8908
 5216TIP3   OH237062   2.039   5.083  16.131 -0.1316  0.0018  0.3083
 5216TIP3    H137063   2.086   5.148  16.078  1.4662 -0.5144  1.0584
 5216TIP3    H237064   2.106   5.019  16.155 -1.1629 -0.5620  1.7232
 5217TIP3   OH237065   3.565   3.509   1.803 -0.5294 -0.6193  0.6655
 5217TIP3    H137066   3.611   3.429   1.831 -1.9553 -1.4974  0.5351
 5217TIP3    H237067   3.564   3.502   1.707 -0.8954 -0.5768  0.6685
 5218TIP3   OH237068   2.596   4.246   8.555 -0.0123  0.0626 -0.3129
 5218TIP3    H137069   2.537   4.248   8.630  0.1812 -0.5681 -0.1448
 5218TIP3    H237070   2.625   4.155   8.549  2.0473  0.6436  0.4571
 5219TIP3   OH237071   2.680   3.269  11.280 -0.8299  0.6659 -0.2081
 5219TIP3    H137072   2.659   3.232  11.194  2.2372 -0.2046 -0.6285
 5219TIP3    H237073   2.595   3.291  11.318 -2.2290  1.3188 -3.5598
 5220TIP3   OH237074   1.851   2.442  16.854  0.9232  0.3251  0.7165
 5220TIP3    H137075   1.782   2.444  16.787  1.0281 -1.5467  0.5212
 5220TIP3    H237076   1.865   2.534  16.878  0.0389  0.9059 -0.9659
 5221TIP3   OH237077   0.872   1.128   2.532 -0.3186 -0.0723  0.3777
 5221TIP3    H137078   0.946   1.072   2.509 -0.1312 -0.1168  1.0719
 5221TIP3    H237079   0.863   1.117   2.627 -1.1487  0.0107  0.3097
 5222TIP3   OH237080   3.535   2.463  15.530  0.4593  0.3496 -0.3122
 5222TIP3    H137081   3.514   2.377  15.492  0.6093 -0.3166  1.0826
 5222TIP3    H237082   3.618   2.487  15.490  2.8311 -2.3536  2.7402
 5223TIP3   OH237083   4.702   5.794   3.588 -0.1270  0.2858 -0.3531
 5223TIP3    H137084   4.670   5.755   3.669 -2.9644 -0.2334 -1.6935
 5223TIP3    H237085   4.757   5.726   3.549 -0.6693 -0.3313 -0.0450
 5224TIP3   OH237086   4.250   2.291  15.285 -0.0417  0.3529 -0.1179
 5224TIP3    H137087   4.162   2.291  15.323 -0.1968 -1.3019 -0.4086
 5224TIP3    H237088   4.308   2.318  15.356 -0.4862 -1.3382  0.9072
 5225TIP3   OH237089   3.595   2.623  12.009 -0.3400 -1.0583  0.4241
 5225TIP3    H137090   3.505   2.649  12.030  0.3734 -0.5739  3.1514
 5225TIP3    H237091   3.640   2.706  11.995  0.5882 -1.0581  3.1887
 5226TIP3   OH237092   3.822   4.850   6.156  0.3064  0.6364  0.0922
 5226TIP3    H137093   3.760   4.777   6.153  0.7605  0.2826 -1.5372
 5226TIP3    H237094   3.770   4.926   6.126  0.6716  0.3153 -1.3944
 5227TIP3   OH237095   3.320   6.362   1.596  0.4317 -0.6748 -0.4109
 5227TIP3    H137096   3.387   6.398   1.538  1.3468 -0.7602  0.5672
 5227TIP3    H237097   3.369   6.305   1.656 -0.7303 -1.9324 -0.6439
 5228TIP3   OH237098   3.159   5.478   2.242  0.5445  0.6800  0.2259
 5228TIP3    H137099   3.172   5.386   2.264  1.9089  0.4779 -1.2844
 5228TIP3    H237100   3.197   5.526   2.315 -1.3674  0.0650  1.6561
 5229TIP3   OH237101   4.342   4.925  10.445 -0.4023  0.2227  0.4488
 5229TIP3    H137102   4.330   4.929  10.350  0.3222  1.6941  0.4155
 5229TIP3    H237103   4.261   4.962  10.481 -0.2467  0.6205  0.3901
 5230TIP3   OH237104   4.837   0.291   2.199  1.0941  0.2887 -0.6029
 5230TIP3    H137105   4.881   0.372   2.227  0.5812  1.0814 -2.0786
 5230TIP3    H237106   4.859   0.228   2.268  1.6398  1.6309  0.4831
 5231TIP3   OH237107   5.379   0.451   2.390 -0.3319 -0.2445 -0.4214
 5231TIP3    H137108   5.327   0.435   2.311  2.0884  1.9885 -2.5280
 5231TIP3    H237109   5.392   0.546   2.393  0.0591 -0.3321  2.3934
 5232TIP3   OH237110   4.447   3.077   5.339  0.5637 -0.0684  0.1024
 5232TIP3    H137111   4.453   3.019   5.263  0.4747  1.1346 -0.8295
 5232TIP3    H237112   4.531   3.066   5.384  2.3846  2.4472 -2.5472
 5233TIP3   OH237113   4.174   3.567  14.766 -0.9971 -0.3254 -0.3669
 5233TIP3    H137114   4.179   3.589  14.859 -0.5854 -0.5928 -0.3233
 5233TIP3    H237115   4.085   3.533  14.755 -0.6089 -1.6001  0.2320
 5234TIP3   OH237116   3.332   3.922   6.115  0.1169  0.1941 -0.3813
 5234TIP3    H137117   3.281   3.891   6.190  2.2418  0.9492  1.4067
 5234TIP3    H237118   3.269   3.972   6.063 -0.7842  1.9158  2.2712
 5235TIP3   OH237119   6.048   0.886  14.630 -0.2748 -0.2723  0.2392
 5235TIP3    H137120   6.035   0.858  14.721  1.3720 -0.7069  0.3593
 5235TIP3    H237121   5.974   0.847  14.583  0.1683 -2.1051  0.9872
 5236TIP3   OH237122   0.758   3.402   4.698 -0.0400  0.7850 -0.2519
 5236TIP3    H137123   0.722   3.488   4.720  0.4832  0.8115  0.5108
 5236TIP3    H237124   0.838   3.395   4.750  0.3686  0.1837 -0.9535
 5237TIP3   OH237125   1.613   0.243  15.953 -0.0680 -0.3277 -0.5433
 5237TIP3    H137126   1.547   0.210  15.892  0.5582 -0.2561 -1.2584
 5237TIP3    H237127   1.619   0.336  15.934 -0.2590 -0.2019 -0.0009
 5238TIP3   OH237128   1.822   0.173   6.207  0.4955  0.2112  0.0402
 5238TIP3    H137129   1.892   0.194   6.145 -0.4991  2.0806 -0.4873
 5238TIP3    H237130   1.770   0.253   6.212 -1.3283 -0.9989  0.7768
 5239TIP3   OH237131   1.409   6.144  16.035 -0.0598  0.4394 -0.8796
 5239TIP3    H137132   1.400   6.063  15.985 -0.5958  0.3430 -0.6240
 5239TIP3    H237133   1.322   6.160  16.071 -0.0632  1.3606 -1.2771
 5240TIP3   OH237134   5.758   5.422  12.248 -0.0531  0.0236  0.0963
 5240TIP3    H137135   5.834   5.402  12.301 -0.4065  0.7356  0.8816
 5240TIP3    H237136   5.714   5.494  12.294  0.1106  1.2396 -1.5944
 5241TIP3   OH237137   0.280   4.977   0.945  0.0512  0.6670  0.4330
 5241TIP3    H137138   0.227   4.897   0.946  0.4546  0.3935 -0.0221
 5241TIP3    H237139   0.274   5.009   0.855  1.0809  0.3507  0.2441
 5242TIP3   OH237140   2.910   4.925   1.776  0.4825  0.3268 -0.3545
 5242TIP3    H137141   2.932   4.901   1.686  1.2039  0.4246 -0.2051
 5242TIP3    H237142   2.932   5.018   1.783 -0.1111  0.4621 -0.2441
 5243TIP3   OH237143   0.285   2.278   2.045 -0.3758 -0.2897  0.0784
 5243TIP3    H137144   0.324   2.264   1.958  0.4394 -0.4183  0.4633
 5243TIP3    H237145   0.191   2.263   2.031 -0.2058 -0.7033 -0.7001
 5244TIP3   OH237146   2.000   6.258  16.811 -0.3244 -0.6443 -0.3084
 5244TIP3    H137147   1.997   6.202  16.733  0.5085 -2.7006  1.1001
 5244TIP3    H237148   1.920   6.236  16.859  0.9358 -2.0868  1.1937
 5245TIP3   OH237149   2.051   3.819  16.793  0.2934 -0.4371 -0.1898
 5245TIP3    H137150   2.126   3.871  16.822 -0.3836  0.2679  0.2741
 5245TIP3    H237151   1.997   3.809  16.871 -1.5356  1.4706 -1.1978
 5246TIP3   OH237152   5.077   1.275   1.774 -0.2517  0.5979  0.1704
 5246TIP3    H137153   5.036   1.295   1.689  0.4390  0.0080 -0.2987
 5246TIP3    H237154   5.086   1.361   1.816 -1.3757  0.8101  0.0156
 5247TIP3   OH237155   0.415   6.708  14.347  0.3254 -0.0848 -0.2113
 5247TIP3    H137156   0.330   6.671  14.324  0.7995 -1.8365  0.7163
 5247TIP3    H237157   0.395   6.774  14.413 -0.4688  0.7781 -1.3072
 5248TIP3   OH237158   2.222   2.378   0.624 -0.5155 -0.0545 -0.0900
 5248TIP3    H137159   2.245   2.350   0.536  1.6394  1.1001  0.0720
 5248TIP3    H237160   2.306   2.391   0.668 -1.5348 -1.0803  2.2990
 5249TIP3   OH237161   3.605   4.145   1.339  0.4748  0.0068  0.0627
 5249TIP3    H137162   3.515   4.171   1.315 -0.2918 -3.3778 -1.0025
 5249TIP3    H237163   3.640   4.222   1.384 -1.8604  2.6014 -2.2652
 5250TIP3   OH237164   5.584   1.204  11.819 -0.2087  0.4038  0.5377
 5250TIP3    H137165   5.623   1.204  11.732 -1.0926 -0.1363  0.1412
 5250TIP3    H237166   5.492   1.224  11.805  0.2403  3.5389  1.6492
 5251TIP3   OH237167   5.084   5.143  15.082  0.1469 -0.0804 -0.5619
 5251TIP3    H137168   5.023   5.186  15.143 -0.3880  0.6826 -1.6098
 5251TIP3    H237169   5.140   5.214  15.051  2.4222 -0.9917  1.3493
 5252TIP3   OH237170   3.998   5.980  17.063 -0.0009 -0.2104  0.3791
 5252TIP3    H137171   3.931   6.025  17.115 -0.4951  0.0974 -0.5259
 5252TIP3    H237172   4.079   6.027  17.083 -0.2217  0.0192  0.7379
 5253TIP3   OH237173   6.083   3.427   2.979  0.5592 -0.1258 -0.2069
 5253TIP3    H137174   6.052   3.351   3.029 -0.1304  0.5989  0.4703
 5253TIP3    H237175   6.169   3.446   3.016  0.9882 -0.9109 -0.7587
 5254TIP3   OH237176   4.261   1.456   6.202 -0.2300 -0.3529 -0.1727
 5254TIP3    H137177   4.260   1.549   6.179 -0.1937  0.0622  1.4547
 5254TIP3    H237178   4.332   1.418   6.148 -1.6741  0.1118 -2.4508
 5255TIP3   OH237179   0.989   3.264   5.906  0.2803 -0.1215  0.0073
 5255TIP3    H137180   0.918   3.255   5.843 -0.0591 -1.0572  0.5219
 5255TIP3    H237181   1.027   3.177   5.913  0.0664 -0.1267  1.3858
 5256TIP3   OH237182   6.566   3.530  14.349  0.0519 -0.0000  0.0228
 5256TIP3    H137183   6.504   3.461  14.323  1.4064 -1.4037  0.4371
 5256TIP3    H237184   6.574   3.586  14.272 -1.6893  0.1735 -0.0525
 5257TIP3   OH237185   5.868   1.953  11.735  0.1857  0.2620  0.0335
 5257TIP3    H137186   5.785   1.907  11.732  0.8960 -1.1297  1.2070
 5257TIP3    H237187   5.927   1.901  11.682  0.8625  0.0839  0.9484
 5258TIP3   OH237188   3.082   5.741   6.338  0.7997  0.6258 -0.2416
 5258TIP3    H137189   3.042   5.682   6.402 -2.3183  1.7038 -1.1205
 5258TIP3    H237190   3.112   5.683   6.267 -1.1060 -0.0623 -0.5170
 5259TIP3   OH237191   2.450   3.874   5.135 -0.0782 -0.3085 -0.0431
 5259TIP3    H137192   2.486   3.918   5.212  0.0233  0.9667 -0.8029
 5259TIP3    H237193   2.526   3.846   5.085 -0.1372 -1.8913  0.7189
 5260TIP3   OH237194   4.313   4.158   4.944  0.0266 -0.5237  0.2065
 5260TIP3    H137195   4.256   4.189   4.874  1.9990 -1.9831 -2.1514
 5260TIP3    H237196   4.401   4.180   4.914  0.9540 -1.7200  1.9624
 5261TIP3   OH237197   1.653   0.124   5.073 -0.3273  0.5423  0.0957
 5261TIP3    H137198   1.689   0.089   5.155 -1.4261 -1.0650 -0.0782
 5261TIP3    H237199   1.728   0.162   5.028  0.6774 -0.4203  0.9202
 5262TIP3   OH237200   3.503   6.108  11.926 -0.5977  0.2869 -0.0435
 5262TIP3    H137201   3.410   6.094  11.946 -0.3254 -0.9669  0.3425
 5262TIP3    H237202   3.518   6.058  11.846 -0.3362  0.7969 -0.3161
 5263TIP3   OH237203   5.160   6.021   2.095  0.1565  0.2376  0.5415
 5263TIP3    H137204   5.166   5.927   2.074  3.2085  0.4865  0.1412
 5263TIP3    H237205   5.182   6.065   2.012 -0.1827  1.3243  1.0192
 5264TIP3   OH237206   3.097   2.969   4.528 -0.1004  0.7038  0.0145
 5264TIP3    H137207   3.034   2.942   4.595  1.1916 -0.0063  0.9425
 5264TIP3    H237208   3.179   2.928   4.553  0.6646  1.3205 -1.4073
 5265TIP3   OH237209   1.976   0.007   4.140  0.0820 -0.0911 -0.1155
 5265TIP3    H137210   1.886  -0.002   4.173 -0.0101 -2.3972 -0.9325
 5265TIP3    H237211   2.030  -0.031   4.208  0.4964  1.5065  0.4785
 5266TIP3   OH237212   4.303   6.718   0.674 -0.8656 -0.3134 -0.1098
 5266TIP3    H137213   4.261   6.763   0.601 -0.5856  2.4320  1.3349
 5266TIP3    H237214   4.388   6.691   0.640 -1.4838 -0.7381 -1.3374
 5267TIP3   OH237215   1.016   2.798  13.130 -0.3827 -0.0107 -0.0817
 5267TIP3    H137216   1.073   2.777  13.056  0.3945 -0.0458  0.5300
 5267TIP3    H237217   0.963   2.718  13.142 -0.7478  0.1147 -0.8061
 5268TIP3   OH237218   1.280   6.693  13.967 -0.2819  0.2536 -0.5102
 5268TIP3    H137219   1.287   6.781  14.003 -0.5899 -0.2471  0.8178
 5268TIP3    H237220   1.350   6.643  14.010 -0.8471 -0.4297 -0.3608
 5269TIP3   OH237221   2.399   1.929  15.709  0.2842 -0.0379  0.3602
 5269TIP3    H137222   2.384   1.982  15.631 -0.5876  2.1417  1.9540
 5269TIP3    H237223   2.494   1.930  15.721  0.4701 -0.8751 -0.9838
 5270TIP3   OH237224   2.094   3.860  16.199  0.6267  0.1259  0.2658
 5270TIP3    H137225   2.000   3.858  16.217  0.5356  2.4541  0.2682
 5270TIP3    H237226   2.135   3.852  16.285  0.4612 -2.0982  0.1458
 5271TIP3   OH237227   2.556   1.276  15.011 -0.1777  0.8816  0.6063
 5271TIP3    H137228   2.615   1.326  14.954 -0.9589 -0.8346 -1.7941
 5271TIP3    H237229   2.591   1.187  15.010 -2.5989 -0.1039 -0.6533
 5272TIP3   OH237230   1.901   0.526  15.934  0.4966 -0.2500 -0.0479
 5272TIP3    H137231   1.944   0.450  15.973 -0.1769 -0.7054 -0.1731
 5272TIP3    H237232   1.913   0.597  15.997 -1.5090 -1.2503  1.5168
 5273TIP3   OH237233   3.446   0.228  13.529 -0.4757  0.1930 -0.6877
 5273TIP3    H137234   3.510   0.285  13.572 -1.3739  0.9868 -0.3935
 5273TIP3    H237235   3.402   0.183  13.601  1.5099 -2.3400 -0.9529
 5274TIP3   OH237236   4.067   0.571   2.554 -0.1142  0.1407  0.0823
 5274TIP3    H137237   4.009   0.644   2.534  2.3165  1.8004 -1.0984
 5274TIP3    H237238   4.059   0.513   2.478 -0.2593  0.3224 -0.0405
 5275TIP3   OH237239   0.667   5.742   1.128  0.3048  0.0725  0.6575
 5275TIP3    H137240   0.623   5.677   1.074  0.9411  1.2807 -1.3436
 5275TIP3    H237241   0.615   5.746   1.208 -0.7325 -1.6171  0.0896
 5276TIP3   OH237242   2.378   3.685  14.313  0.1128 -0.1114 -0.1932
 5276TIP3    H137243   2.351   3.699  14.403  0.7523 -0.2488  0.0218
 5276TIP3    H237244   2.318   3.739  14.261  0.7631  1.2213  0.4210
 5277TIP3   OH237245   5.943   5.552  16.639 -0.4468  0.3290  0.3505
 5277TIP3    H137246   5.853   5.545  16.669 -0.3471  1.0670  0.8181
 5277TIP3    H237247   5.953   5.480  16.577 -1.2651  0.0648  0.5259
 5278TIP3   OH237248   2.609   3.440   5.166 -0.1457  0.0780 -0.4095
 5278TIP3    H137249   2.586   3.392   5.087  2.0148 -0.4661 -0.7531
 5278TIP3    H237250   2.539   3.504   5.177 -1.2672 -0.8650 -1.8868
 5279TIP3   OH237251   4.683   2.990  15.336 -0.1837 -0.0280 -0.3735
 5279TIP3    H137252   4.715   2.928  15.402 -0.3080  1.1434  0.8080
 5279TIP3    H237253   4.723   2.961  15.254  0.1304 -1.3863  0.2464
 5280TIP3   OH237254   5.466   1.662  12.080 -1.1524 -0.0271 -0.4471
 5280TIP3    H137255   5.548   1.680  12.033 -0.3317  0.1146  1.0130
 5280TIP3    H237256   5.472   1.569  12.103 -0.6348  0.3746  1.0986
 5281TIP3   OH237257   2.561   4.631  16.107  0.0890 -0.1535 -0.3037
 5281TIP3    H137258   2.612   4.694  16.158 -0.6250 -0.7058  1.1344
 5281TIP3    H237259   2.627   4.575  16.065  0.6930  0.4013 -0.0969
 5282TIP3   OH237260   0.247   6.243  13.481  0.0283 -0.0180 -0.1011
 5282TIP3    H137261   0.188   6.317  13.469  0.0280  0.4100  2.3162
 5282TIP3    H237262   0.205   6.189  13.548  0.7084 -1.5159 -0.8446
 5283TIP3   OH237263   0.557   1.001  12.234  0.4880  0.4024 -0.3893
 5283TIP3    H137264   0.558   1.053  12.154 -1.6616 -0.5669 -1.0518
 5283TIP3    H237265   0.583   0.913  12.207 -0.7568 -0.0548 -0.1365
 5284TIP3   OH237266   2.818   2.382   5.287  0.1041 -0.1185 -0.0294
 5284TIP3    H137267   2.909   2.353   5.281  0.3355  0.9166 -1.6552
 5284TIP3    H237268   2.768   2.314   5.243  0.0241 -0.9367  1.3012
 5285TIP3   OH237269   5.915   0.996  11.854  0.3514  0.0012  0.5251
 5285TIP3    H137270   5.859   0.920  11.868 -0.7086  0.6337 -0.2191
 5285TIP3    H237271   6.002   0.959  11.839  0.2466 -0.9620  2.1498
 5286TIP3   OH237272   0.315   5.834   0.565 -0.2066 -0.4031 -0.2222
 5286TIP3    H137273   0.225   5.805   0.584  0.6348 -2.9381  0.0909
 5286TIP3    H237274   0.310   5.870   0.476 -1.8349  0.9709  0.3785
 5287TIP3   OH237275   3.835   6.288   2.614  0.6011 -0.6819  0.2059
 5287TIP3    H137276   3.924   6.254   2.611  0.3765 -1.1260 -2.4826
 5287TIP3    H237277   3.781   6.218   2.577 -0.5150  0.5771 -0.6072
 5288TIP3   OH237278   0.002   4.490  14.369 -0.1318  0.0018  0.0510
 5288TIP3    H137279   0.097   4.500  14.375 -0.0183 -0.4233 -0.9800
 5288TIP3    H237280  -0.016   4.408  14.415  0.1573 -0.6176 -0.9278
 5289TIP3   OH237281   3.314   5.028  15.577  0.3377 -0.5691  0.7732
 5289TIP3    H137282   3.334   4.975  15.500 -0.7212 -0.1739  0.2166
 5289TIP3    H237283   3.294   4.964  15.646 -0.0198 -0.9069  0.3596
 5290TIP3   OH237284   5.233   0.129   5.754 -0.2540 -0.6681  0.4342
 5290TIP3    H137285   5.328   0.121   5.752 -0.2800 -0.7676 -4.3526
 5290TIP3    H237286   5.212   0.144   5.847  4.4363  0.1038  1.4538
 5291TIP3   OH237287   4.543   1.886  17.065 -0.3455  0.5802 -0.2188
 5291TIP3    H137288   4.451   1.892  17.090 -0.7202 -2.0024 -0.8503
 5291TIP3    H237289   4.557   1.960  17.006 -2.4149  0.1397 -1.2909
 5292TIP3   OH237290   6.365   3.302  13.210  0.2616 -0.8818  0.2936
 5292TIP3    H137291   6.317   3.235  13.259  0.5663 -0.7288  0.8082
 5292TIP3    H237292   6.320   3.384  13.232  0.4112 -0.8099  0.3291
 5293TIP3   OH237293   5.404   2.763   1.733 -0.1031 -0.6248  1.2497
 5293TIP3    H137294   5.336   2.722   1.786 -2.1444  1.7326  0.5873
 5293TIP3    H237295   5.366   2.769   1.646  1.0201  0.5909  0.8241
 5294TIP3   OH237296   4.593   2.379  15.329 -0.5239  0.4268  0.0356
 5294TIP3    H137297   4.521   2.373  15.267 -1.6180  0.9682  1.2339
 5294TIP3    H237298   4.558   2.343  15.411  1.5706 -2.3214 -0.1962
 5295TIP3   OH237299   6.628   2.916  12.101 -0.0647  0.2601 -0.3497
 5295TIP3    H137300   6.560   2.935  12.036  1.1537  0.5636 -1.5505
 5295TIP3    H237301   6.582   2.868  12.170 -0.9701 -1.9210 -2.4104
 5296TIP3   OH237302   0.486   6.411  14.502  0.0854  0.1608 -0.0933
 5296TIP3    H137303   0.509   6.454  14.420  1.6114 -0.7321 -0.1518
 5296TIP3    H237304   0.397   6.380  14.489  0.5614 -0.5798 -1.6754
 5297TIP3   OH237305   0.984   6.201   3.519  0.2200 -0.1502 -0.3881
 5297TIP3    H137306   1.032   6.247   3.588  2.4809 -1.3327 -1.1104
 5297TIP3    H237307   0.928   6.139   3.565  0.0558  0.6013  0.4384
 5298TIP3   OH237308   5.604   2.163   3.201 -0.4690 -0.1729  0.2598
 5298TIP3    H137309   5.693   2.194   3.184  0.2772 -2.0368  0.6495
 5298TIP3    H237310   5.550   2.206   3.135  0.7671  0.7541 -0.1611
 5299TIP3   OH237311   3.869   4.568  14.632 -0.9164  0.3035 -0.3476
 5299TIP3    H137312   3.854   4.647  14.684  1.8500  0.0074  0.9823
 5299TIP3    H237313   3.782   4.542  14.602 -2.3253  1.6621  2.3901
 5300TIP3   OH237314   0.794   3.547   0.575  0.8967  0.5045  0.5163
 5300TIP3    H137315   0.837   3.599   0.643  2.5619 -0.2650  0.0645
 5300TIP3    H237316   0.796   3.457   0.609  2.4004  0.0029 -0.8620
 5301TIP3   OH237317   4.935   2.698   2.756 -0.2875 -0.1635 -0.3093
 5301TIP3    H137318   5.020   2.700   2.801 -0.3681 -0.6394 -0.1369
 5301TIP3    H237319   4.889   2.624   2.795  0.0716 -1.2734 -1.9695
 5302TIP3   OH237320   6.679   3.017   4.483  0.0070 -0.2455  0.1828
 5302TIP3    H137321   6.759   2.976   4.516  0.2070 -0.7689 -0.8968
 5302TIP3    H237322   6.701   3.110   4.473  0.4684 -0.3803 -0.0558
 5303TIP3   OH237323   5.821   0.400   3.652 -0.0939 -0.1014 -0.2363
 5303TIP3    H137324   5.787   0.414   3.741 -0.1610 -2.0251  0.0702
 5303TIP3    H237325   5.913   0.425   3.658 -0.6960  2.2552 -0.3065
 5304TIP3   OH237326   0.269   1.736   2.327 -0.4520  0.7833  0.2354
 5304TIP3    H137327   0.230   1.706   2.409 -1.4239 -0.5446 -0.6885
 5304TIP3    H237328   0.361   1.711   2.334 -0.4771  0.8916  1.0192
 5305TIP3   OH237329   6.311   0.097  14.014 -0.2351  0.0443  0.3288
 5305TIP3    H137330   6.236   0.108  14.073  0.6899 -0.8351  1.7176
 5305TIP3    H237331   6.384   0.080  14.073  0.5179 -1.9636 -1.1432
 5306TIP3   OH237332   3.474   3.798   0.149 -0.2615  0.7667  0.0233
 5306TIP3    H137333   3.499   3.888   0.168 -0.8775  0.7113  1.1366
 5306TIP3    H237334   3.382   3.793   0.172 -0.5946  0.2069 -1.3543
 5307TIP3   OH237335   5.408   6.590   1.317 -0.1692  0.0867 -0.3645
 5307TIP3    H137336   5.490   6.588   1.366 -0.0980 -1.7831 -0.5331
 5307TIP3    H237337   5.353   6.653   1.365  0.6658 -0.1157  0.8689
 5308TIP3   OH237338   6.222   1.581  12.056  0.2863  0.6808 -0.7272
 5308TIP3    H137339   6.200   1.614  11.968 -0.7760  0.9610 -0.3611
 5308TIP3    H237340   6.229   1.486  12.045 -0.8932  0.6105 -0.8966
 5309TIP3   OH237341   0.379   4.433  16.850 -0.6183 -0.3361 -0.0158
 5309TIP3    H137342   0.436   4.499  16.889  0.5681 -2.5616  2.1516
 5309TIP3    H237343   0.341   4.476  16.774  3.0052  1.6584 -0.8362
 5310TIP3   OH237344   6.618   2.711   4.471  0.1624 -0.3636 -0.4626
 5310TIP3    H137345   6.606   2.801   4.501  1.0206  0.1960 -1.7906
 5310TIP3    H237346   6.712   2.703   4.455 -0.0250 -1.2427 -1.1653
 5311TIP3   OH237347   5.407   2.692  15.121  0.3631  0.1711  0.0293
 5311TIP3    H137348   5.474   2.728  15.180  0.1714 -0.1414  0.4389
 5311TIP3    H237349   5.409   2.598  15.138 -0.5612  0.2247  0.4357
 5312TIP3   OH237350   0.832   5.639   2.021 -1.0568  0.1649 -0.1861
 5312TIP3    H137351   0.787   5.701   1.964  2.1612  0.0627 -2.9542
 5312TIP3    H237352   0.905   5.688   2.058  0.0554 -1.2376 -0.4617
 5313TIP3   OH237353   3.711   3.470  13.002  0.4557 -0.0878  0.0558
 5313TIP3    H137354   3.798   3.454  13.039  0.4350  0.2949  0.2750
 5313TIP3    H237355   3.723   3.461  12.908  0.8109  0.2973  0.0587
 5314TIP3   OH237356   4.995   0.978  15.839  0.1457  0.0919  0.0887
 5314TIP3    H137357   4.964   0.887  15.841 -0.2438  0.1957 -0.9156
 5314TIP3    H237358   4.943   1.022  15.906 -1.3779  0.0942 -1.0560
 5315TIP3   OH237359   2.526   4.719   3.621 -0.2796 -0.3806  0.1939
 5315TIP3    H137360   2.561   4.630   3.617 -0.7917 -0.5334 -0.9236
 5315TIP3    H237361   2.438   4.709   3.657 -0.8721 -0.4929 -1.2450
 5316TIP3   OH237362   0.114   6.013  16.058  0.2305 -0.0423  0.0973
 5316TIP3    H137363   0.206   6.036  16.056  0.4020 -0.7515 -0.4175
 5316TIP3    H237364   0.071   6.088  16.099  0.7364  1.2938 -1.7666
 5317TIP3   OH237365   1.868   1.434  12.714  0.0683 -0.0029  0.2040
 5317TIP3    H137366   1.879   1.374  12.641 -1.4697  0.9892 -0.8727
 5317TIP3    H237367   1.846   1.378  12.789 -0.1532 -0.8802 -0.5183
 5318TIP3   OH237368   5.155   3.741  11.425  0.5906 -0.3980  0.1806
 5318TIP3    H137369   5.149   3.787  11.341  0.3462 -0.5690  0.1034
 5318TIP3    H237370   5.197   3.658  11.403  0.1989 -0.5958  0.1633
 5319TIP3   OH237371   1.012   3.907  17.169 -0.3138  0.2290  0.0513
 5319TIP3    H137372   0.930   3.953  17.156 -0.2760  0.3410  0.2053
 5319TIP3    H237373   1.002   3.864  17.254 -1.9162 -3.3190 -1.7745
 5320TIP3   OH237374   2.385   4.489  12.435 -0.3147 -0.1271 -0.6180
 5320TIP3    H137375   2.330   4.419  12.470  0.6884 -0.6168  0.0058
 5320TIP3    H237376   2.330   4.533  12.370 -1.3546 -0.7525 -0.1703
 5321TIP3   OH237377   4.982   2.429   3.325  0.0968  0.2426  0.4316
 5321TIP3    H137378   4.997   2.336   3.343 -1.8480 -0.3301 -0.7905
 5321TIP3    H237379   5.068   2.469   3.337  0.6137 -1.4165  2.6910
 5322TIP3   OH237380   3.727   4.343  13.124  0.2231 -0.1468  0.2063
 5322TIP3    H137381   3.768   4.272  13.075  0.0089 -0.1016 -0.0402
 5322TIP3    H237382   3.800   4.390  13.165  0.3884 -0.3011  0.0890
 5323TIP3   OH237383   4.352   0.230   2.077 -0.2342 -0.4703  0.1733
 5323TIP3    H137384   4.309   0.314   2.089  1.1893  0.5044 -1.2153
 5323TIP3    H237385   4.403   0.217   2.157 -1.7866 -0.8283  1.1019
 5324TIP3   OH237386   0.801   3.272   1.740  0.8249  0.6470 -0.0577
 5324TIP3    H137387   0.848   3.351   1.711  1.4382  0.3617  0.1511
 5324TIP3    H237388   0.711   3.301   1.751  1.2543  1.5944  1.0972
 5325TIP3   OH237389   0.387   0.417   3.918 -0.0870  0.2015 -0.2285
 5325TIP3    H137390   0.432   0.366   3.985 -1.0051 -0.0089  0.2466
 5325TIP3    H237391   0.300   0.433   3.955 -0.3257  0.7903 -1.0270
 5326TIP3   OH237392   5.058   5.234  11.389  0.0152  0.2078 -0.1106
 5326TIP3    H137393   5.136   5.279  11.357  1.4649 -2.3277 -0.2587
 5326TIP3    H237394   5.052   5.155  11.335 -2.1592 -0.0853  0.4994
 5327TIP3   OH237395   4.679   5.511  11.641 -0.1479  0.2119 -0.4548
 5327TIP3    H137396   4.602   5.521  11.585 -1.9068 -1.0359  1.6931
 5327TIP3    H237397   4.665   5.429  11.687  1.5983  0.8882  1.3467
 5328TIP3   OH237398   1.946   2.370  15.646  0.0175 -0.0915 -0.5625
 5328TIP3    H137399   2.005   2.412  15.708 -2.3717 -1.2773  2.6884
 5328TIP3    H237400   1.996   2.296  15.611  0.8439 -0.4127  1.2518
 5329TIP3   OH237401   1.199   2.539  12.728  0.3749 -0.1607 -0.2592
 5329TIP3    H137402   1.289   2.506  12.728  0.1171 -0.8695  0.7311
 5329TIP3    H237403   1.145   2.460  12.734 -0.2734  0.3802  1.1411
 5330TIP3   OH237404   6.461   4.855  12.244  0.3724 -0.0623 -0.0208
 5330TIP3    H137405   6.462   4.873  12.339  0.8929  0.0117 -0.0365
 5330TIP3    H237406   6.550   4.826  12.225  0.7665  1.6027 -0.7973
 5331TIP3   OH237407   1.477   6.728  14.430  0.5079 -0.3835 -0.2664
 5331TIP3    H137408   1.567   6.733  14.397  0.8890 -1.1305  0.6038
 5331TIP3    H237409   1.444   6.818  14.426  0.6036 -0.4202 -2.4395
 5332TIP3   OH237410   0.341   1.990   4.579  0.5177 -0.3068  0.2636
 5332TIP3    H137411   0.351   2.072   4.627  0.4961 -0.5731  0.7301
 5332TIP3    H237412   0.279   2.010   4.509  0.7263  0.1427  0.2069
 5333TIP3   OH237413   0.643   0.850   0.917  0.1686 -0.2674  0.4435
 5333TIP3    H137414   0.675   0.907   0.847  1.0997 -0.3661  0.7857
 5333TIP3    H237415   0.590   0.784   0.872  1.2688 -0.6907 -0.2368
 5334TIP3   OH237416   1.423   3.565   4.716  0.1681  0.5269  0.0181
 5334TIP3    H137417   1.371   3.517   4.781  2.7762 -0.5762  1.3902
 5334TIP3    H237418   1.479   3.623   4.768  2.0528 -0.1215 -1.2278
 5335TIP3   OH237419   4.965   6.228   2.126 -0.0568 -0.2491  0.3814
 5335TIP3    H137420   5.028   6.177   2.074 -3.4441 -1.3718 -2.7988
 5335TIP3    H237421   4.899   6.164   2.153 -1.5659  1.5098  0.9192
 5336TIP3   OH237422   4.632   3.165   1.873  0.0387  0.7616  0.5463
 5336TIP3    H137423   4.546   3.204   1.888 -0.0647  1.1875 -1.0354
 5336TIP3    H237424   4.692   3.222   1.921 -0.4429  1.0755  0.7925
 5337TIP3   OH237425   0.494   5.503   5.418  0.3308 -0.3489 -0.4746
 5337TIP3    H137426   0.549   5.435   5.379 -0.5151 -0.6977 -1.0629
 5337TIP3    H237427   0.556   5.571   5.445  1.0761 -0.8504 -0.8963
 5338TIP3   OH237428   5.236   1.071   1.661 -0.0482  0.0890  0.0366
 5338TIP3    H137429   5.185   1.148   1.684  0.5356  0.2749  0.7244
 5338TIP3    H237430   5.319   1.082   1.709 -0.3576 -1.4624  0.9557
 5339TIP3   OH237431   4.333   1.735  17.140  0.1896 -0.0522  0.4172
 5339TIP3    H137432   4.414   1.684  17.130  1.1879  1.5656 -0.0733
 5339TIP3    H237433   4.265   1.670  17.156  1.5533 -1.4683  0.5908
 5340TIP3   OH237434   1.201   0.647   1.908 -0.1247  0.3741 -0.5513
 5340TIP3    H137435   1.147   0.614   1.836 -1.5164 -0.4011  0.8126
 5340TIP3    H237436   1.254   0.571   1.934 -0.8675  0.1609  0.3583
 5341TIP3   OH237437   2.868   2.754  14.421  0.5475  0.0287 -0.1790
 5341TIP3    H137438   2.933   2.728  14.357 -0.2722 -3.0929  0.1972
 5341TIP3    H237439   2.916   2.760  14.504  1.0568  1.3743 -0.5574
 5342TIP3   OH237440   5.565   4.134   0.535 -0.3997 -0.0436  0.4178
 5342TIP3    H137441   5.555   4.099   0.623 -1.5335 -0.1265  0.2603
 5342TIP3    H237442   5.634   4.080   0.495  1.9115  1.5815  2.0595
 5343TIP3   OH237443   6.456   0.347  11.229  0.0004  0.4047  0.3271
 5343TIP3    H137444   6.399   0.270  11.223 -1.0014  1.1651 -0.1524
 5343TIP3    H237445   6.542   0.315  11.202 -0.6872 -0.2803 -1.1617
 5344TIP3   OH237446   0.033   6.195  11.733 -0.5221  0.0996 -0.7173
 5344TIP3    H137447  -0.034   6.151  11.786  0.3098 -0.3950 -0.0653
 5344TIP3    H237448   0.103   6.130  11.724  1.3600  1.7243  1.4891
 5345TIP3   OH237449   2.301   2.725   1.825 -0.3324  0.4812  0.3040
 5345TIP3    H137450   2.215   2.730   1.782 -0.3810 -3.2268 -0.1656
 5345TIP3    H237451   2.350   2.798   1.788 -2.3233  0.9239 -1.6151
 5346TIP3   OH237452   5.658   5.431   1.109 -0.3206  0.0221 -0.2110
 5346TIP3    H137453   5.645   5.523   1.131  3.5832 -0.0928  3.0254
 5346TIP3    H237454   5.742   5.428   1.065 -1.5565 -1.7482 -2.5961
 5347TIP3   OH237455   4.318   4.881  15.538 -0.1692  0.1008 -0.1869
 5347TIP3    H137456   4.236   4.852  15.497 -0.5716  0.1192  0.5955
 5347TIP3    H237457   4.385   4.829  15.494 -0.5075  0.6731 -1.4082
 5348TIP3   OH237458   1.382   5.447   0.810  0.5872 -0.2070 -0.2462
 5348TIP3    H137459   1.395   5.403   0.726  1.2095  2.7634 -1.7335
 5348TIP3    H237460   1.292   5.479   0.808  0.5347 -0.3036  0.3249
 5349TIP3   OH237461   0.185   2.886  14.739 -0.2569  0.1291 -0.3778
 5349TIP3    H137462   0.201   2.800  14.698  0.5871  0.6108 -1.0787
 5349TIP3    H237463   0.240   2.885  14.817  0.9027  0.5943 -1.1699
 5350TIP3   OH237464   6.383   3.136   5.772  0.3346  0.0718  0.7519
 5350TIP3    H137465   6.412   3.049   5.799  0.1998  0.3600  1.8384
 5350TIP3    H237466   6.433   3.196   5.827  1.8158  0.7544 -1.2830
 5351TIP3   OH237467   2.651   5.853   2.572  0.5681  0.0359  0.1326
 5351TIP3    H137468   2.579   5.844   2.634  0.3335  0.5246 -0.0718
 5351TIP3    H237469   2.655   5.946   2.553 -0.3946 -0.3023 -1.8435
 5352TIP3   OH237470   1.268   4.044   5.629  0.4974  0.2263 -0.8174
 5352TIP3    H137471   1.248   3.969   5.574  1.7485 -1.7184  1.2821
 5352TIP3    H237472   1.214   4.031   5.707 -0.5991  2.4636 -1.1823
 5353TIP3   OH237473   5.583   3.380   1.930  0.2104  0.1348 -0.3337
 5353TIP3    H137474   5.531   3.397   1.852  0.4108 -0.8384 -0.6796
 5353TIP3    H237475   5.674   3.381   1.899  0.2630 -0.8064 -0.2165
 5354TIP3   OH237476   4.159   2.940   2.351 -0.1411  0.5732 -0.0816
 5354TIP3    H137477   4.238   2.962   2.302 -0.8553  1.8743 -0.6769
 5354TIP3    H237478   4.169   2.986   2.434 -0.0637  0.3723  0.0200
 5355TIP3   OH237479   1.531   6.262   3.912 -0.0640  0.5017 -0.0813
 5355TIP3    H137480   1.576   6.190   3.956 -0.2241  0.6732  0.3659
 5355TIP3    H237481   1.501   6.319   3.983  0.4531  1.2485 -0.4535
 5356TIP3   OH237482   5.781   4.753  11.214 -0.3451  0.0494 -0.3509
 5356TIP3    H137483   5.729   4.771  11.136 -1.7658 -0.9130  0.3554
 5356TIP3    H237484   5.827   4.672  11.193 -0.4615 -0.0232 -0.3270
 5357TIP3   OH237485   5.145   4.574   3.627  0.2229  0.1030  0.5665
 5357TIP3    H137486   5.154   4.605   3.536 -2.2509  0.6461  0.4613
 5357TIP3    H237487   5.167   4.481   3.623  0.8233  0.2819 -0.4634
 5358TIP3   OH237488   2.510   3.369  13.352  0.1522 -0.2940  0.0010
 5358TIP3    H137489   2.525   3.409  13.437 -0.9946  0.7590 -0.2725
 5358TIP3    H237490   2.597   3.361  13.313  1.0788 -3.8101  2.5771
 5359TIP3   OH237491   6.078   3.000   0.902  1.1649  0.1009 -0.2944
 5359TIP3    H137492   5.987   2.975   0.916  2.5707 -3.6556  2.8531
 5359TIP3    H237493   6.085   3.087   0.942 -0.6572 -0.2556  0.8723
 5360TIP3   OH237494   2.152   3.485  16.136  0.2266 -0.0490  0.3576
 5360TIP3    H137495   2.110   3.522  16.059  0.8153  1.7366  0.8593
 5360TIP3    H237496   2.243   3.469  16.109  0.1342 -0.5157  0.3278
 5361TIP3   OH237497   0.087   3.999  16.314 -0.5660 -0.6584  0.1067
 5361TIP3    H137498   0.053   3.916  16.281  0.4122 -0.8168 -0.5134
 5361TIP3    H237499   0.016   4.062  16.299 -0.4526 -0.9079 -1.5446
 5362TIP3   OH237500   1.340   6.375   2.249 -0.5147  0.4160  0.0015
 5362TIP3    H137501   1.435   6.378   2.233 -0.0483  1.5983  2.6682
 5362TIP3    H237502   1.320   6.282   2.259  0.7604  0.2740  1.4409
 5363TIP3   OH237503   2.633   5.204   4.983 -0.1586  0.1951 -0.0285
 5363TIP3    H137504   2.551   5.234   4.944 -0.1348  1.4985  0.8880
 5363TIP3    H237505   2.677   5.156   4.913 -1.1000  0.6301 -0.9279
 5364TIP3   OH237506   2.246   2.949   0.234  0.0094  0.0435  0.6599
 5364TIP3    H137507   2.305   2.874   0.237 -0.1964 -0.1886 -0.9081
 5364TIP3    H237508   2.168   2.920   0.281  0.4901 -0.2049  1.3261
 5365TIP3   OH237509   0.316   4.372   1.494 -0.0294 -0.1442  0.3251
 5365TIP3    H137510   0.289   4.281   1.497 -1.1576 -0.0387 -3.5403
 5365TIP3    H237511   0.238   4.419   1.464  0.4658  2.1275  2.4398
 5366TIP3   OH237512   2.938   4.902   5.037  0.0198 -0.2651 -0.0826
 5366TIP3    H137513   2.847   4.917   5.061 -0.4800 -2.2573 -0.5806
 5366TIP3    H237514   2.959   4.817   5.076  1.4252 -0.1591 -0.5934
 5367TIP3   OH237515   3.156   3.482  11.832 -0.5855 -0.2628 -0.6714
 5367TIP3    H137516   3.212   3.523  11.898 -0.3186 -0.4294 -0.7904
 5367TIP3    H237517   3.152   3.546  11.761 -1.5402  0.2585 -0.1466
 5368TIP3   OH237518   4.600   0.711  16.161  0.3734  0.4311 -0.2898
 5368TIP3    H137519   4.598   0.630  16.110 -0.9870  0.4133 -0.2335
 5368TIP3    H237520   4.635   0.776  16.100 -1.1287  0.3863 -1.2479
 5369TIP3   OH237521   6.472   1.541  13.253  0.5846  0.3152 -0.5683
 5369TIP3    H137522   6.544   1.479  13.245  1.0040  0.4718  1.7872
 5369TIP3    H237523   6.400   1.490  13.291  0.1783  0.6969 -0.8119
 5370TIP3   OH237524   1.573   4.192  15.677  0.0334  0.2808 -0.0403
 5370TIP3    H137525   1.581   4.285  15.701 -0.6311  0.4926 -0.6309
 5370TIP3    H237526   1.653   4.152  15.711 -0.6121  0.6814  1.9905
 5371TIP3   OH237527   1.065   1.063  11.984 -0.1774 -0.0381 -0.8373
 5371TIP3    H137528   1.040   1.093  11.897  1.3047  0.7755 -1.0049
 5371TIP3    H237529   1.052   1.139  12.040 -3.0055 -1.1103  0.0606
 5372TIP3   OH237530   3.647   0.013  16.463 -0.2777 -0.2054  0.0840
 5372TIP3    H137531   3.673   0.018  16.555  0.3403 -1.0021 -0.0367
 5372TIP3    H237532   3.555   0.036  16.462  0.3546  2.5239  0.5544
 5373TIP3   OH237533   4.698   5.470   5.308 -0.1305 -0.5752  0.2016
 5373TIP3    H137534   4.749   5.429   5.238 -0.2241  1.0122 -0.8189
 5373TIP3    H237535   4.678   5.558   5.275 -1.7065 -0.4298  1.4753
 5374TIP3   OH237536   2.006   2.437   3.790  0.1922  0.1912  0.5659
 5374TIP3    H137537   2.014   2.515   3.846  1.2659 -1.9208  3.4840
 5374TIP3    H237538   1.916   2.408   3.802 -0.2303  1.0059 -0.5825
 5375TIP3   OH237539   6.145   0.045  15.732  0.1990 -0.3913  0.1243
 5375TIP3    H137540   6.110  -0.027  15.785  1.1304 -1.8572 -1.2275
 5375TIP3    H237541   6.183   0.105  15.796 -0.2693 -1.2663  1.2491
 5376TIP3   OH237542   0.621   1.686  13.548 -0.6102  0.9636 -0.7258
 5376TIP3    H137543   0.681   1.649  13.613  0.4394 -0.0758 -2.2595
 5376TIP3    H237544   0.592   1.769  13.586 -0.4873  0.0810  1.3320
 5377TIP3   OH237545   6.015   6.230   1.817  0.1777  0.1947 -0.2430
 5377TIP3    H137546   5.921   6.249   1.818  0.3017  0.7855  0.3620
 5377TIP3    H237547   6.045   6.265   1.732 -0.2997 -0.7704 -0.8158
 5378TIP3   OH237548   0.544   0.520   1.211 -0.1145  0.2216 -0.0948
 5378TIP3    H137549   0.468   0.493   1.160 -0.8547  3.1107 -0.6378
 5378TIP3    H237550   0.507   0.566   1.287  1.0455 -0.7774  1.1064
 5379TIP3   OH237551   1.182   4.992  16.512  0.0559  0.6329 -0.0395
 5379TIP3    H137552   1.121   5.013  16.443  1.8795  1.1037 -1.5545
 5379TIP3    H237553   1.233   4.918  16.478  1.0192  0.9151  0.7527
 5380TIP3   OH237554   1.808   2.650  16.418 -0.2077 -0.2787 -0.5206
 5380TIP3    H137555   1.852   2.601  16.488  0.4136 -0.1596 -0.8217
 5380TIP3    H237556   1.715   2.628  16.428 -0.0760 -0.5726  0.0942
 5381TIP3   OH237557   5.372   4.932  15.975 -0.3624 -0.3990 -0.0866
 5381TIP3    H137558   5.413   5.015  15.952 -1.3055 -0.2371 -1.2203
 5381TIP3    H237559   5.424   4.899  16.049  0.6417  0.6942 -0.2922
 5382TIP3   OH237560   6.026   6.657   0.416 -0.0261 -0.2898 -0.4673
 5382TIP3    H137561   6.016   6.577   0.468  0.6888 -0.3478 -0.4070
 5382TIP3    H237562   5.937   6.689   0.402 -0.2589 -0.6299  0.2418
 5383TIP3   OH237563   0.716   5.448   0.693 -0.4414 -0.5330  0.0044
 5383TIP3    H137564   0.630   5.463   0.653 -0.1460  0.2252 -0.3592
 5383TIP3    H237565   0.730   5.354   0.685 -0.8896 -0.5442 -0.6588
 5384TIP3   OH237566   2.520   5.634  13.058  0.5134 -0.1390  0.5040
 5384TIP3    H137567   2.487   5.705  13.113  1.3103 -1.1866  2.3951
 5384TIP3    H237568   2.583   5.587  13.114  0.6452 -1.8149 -0.9821
 5385TIP3   OH237569   1.648   2.746   3.710 -0.1694  0.4934 -0.0055
 5385TIP3    H137570   1.608   2.676   3.659  1.1083  1.2293 -2.0512
 5385TIP3    H237571   1.587   2.819   3.701  0.2591  0.7483 -0.7967
 5386TIP3   OH237572   5.132   5.454  16.017 -0.1536 -0.3774 -0.0270
 5386TIP3    H137573   5.182   5.414  16.088 -1.5162 -0.4267  0.9226
 5386TIP3    H237574   5.195   5.464  15.946  1.3742  0.2222  1.3886
 5387TIP3   OH237575   6.746   2.339   2.319 -0.6443  0.4578  0.3780
 5387TIP3    H137576   6.682   2.295   2.262  0.5391  0.5618 -1.0662
 5387TIP3    H237577   6.797   2.394   2.259  0.9817  0.1424  1.4543
 5388TIP3   OH237578   0.176   1.664  17.070 -0.2768 -0.5202 -0.2156
 5388TIP3    H137579   0.150   1.608  17.144  2.0871 -1.4920 -0.0821
 5388TIP3    H237580   0.163   1.609  16.993 -0.2283 -0.4152 -0.2979
 5389TIP3   OH237581   5.310   6.689  16.582 -0.4984 -0.0404 -0.5143
 5389TIP3    H137582   5.324   6.601  16.548  0.6157 -0.2835  0.5615
 5389TIP3    H237583   5.216   6.693  16.601 -0.5152 -1.0699 -0.3599
 5390TIP3   OH237584   0.957   0.395   4.848 -0.4190  0.4119 -0.3590
 5390TIP3    H137585   1.042   0.437   4.856 -1.5934  3.0168 -0.9828
 5390TIP3    H237586   0.921   0.395   4.937  0.2950 -0.8486 -0.0665
 5391TIP3   OH237587   2.567   4.877  11.425  0.1391  0.1941  0.1383
 5391TIP3    H137588   2.617   4.928  11.361  1.0298  0.4370  1.0038
 5391TIP3    H237589   2.625   4.871  11.501 -0.4297 -1.1108  0.4822
 5392TIP3   OH237590   1.649   2.353   5.504 -0.2205  0.7938 -0.6903
 5392TIP3    H137591   1.606   2.275   5.469  3.8685 -1.3591 -1.2541
 5392TIP3    H237592   1.599   2.375   5.582 -1.3462 -2.5719 -0.3899
 5393TIP3   OH237593   2.396   0.670   2.170 -0.3563 -0.1414  0.2424
 5393TIP3    H137594   2.386   0.738   2.103 -0.6756 -0.4086  0.0204
 5393TIP3    H237595   2.451   0.604   2.128 -0.6402 -0.3563  0.2061
 5394TIP3   OH237596   2.621   0.111  14.266 -0.3746  0.4479 -0.0552
 5394TIP3    H137597   2.538   0.066  14.280 -0.2267  0.8130  2.2155
 5394TIP3    H237598   2.643   0.093  14.174 -1.3063 -2.3860  0.2278
 5395TIP3   OH237599   1.412   6.335   2.813  0.6969 -0.2532 -0.0051
 5395TIP3    H137600   1.442   6.381   2.892  1.3188 -1.9252  0.7564
 5395TIP3    H237601   1.489   6.331   2.757  0.3020  0.7703 -0.6348
 5396TIP3   OH237602   3.207   3.571   5.070 -0.6618  0.9779  0.0412
 5396TIP3    H137603   3.201   3.600   5.161  0.0907 -0.0176  0.4241
 5396TIP3    H237604   3.192   3.476   5.075  1.5720  0.5714 -0.5974
 5397TIP3   OH237605   6.774   4.734  16.247  0.8243  0.0255 -0.0626
 5397TIP3    H137606   6.848   4.793  16.260 -0.6442  1.5606  1.7471
 5397TIP3    H237607   6.774   4.678  16.324 -0.4610  0.6985  0.4423
 5398TIP3   OH237608   1.835   6.508  13.120  0.0712  0.2532 -0.0910
 5398TIP3    H137609   1.777   6.569  13.073 -1.2545 -0.3797  0.6832
 5398TIP3    H237610   1.883   6.563  13.181 -1.0563  0.5542  0.5447
 5399TIP3   OH237611   2.297   3.123   3.064 -0.4133 -0.1616  0.1445
 5399TIP3    H137612   2.214   3.145   3.022 -0.3187 -0.5144 -0.2314
 5399TIP3    H237613   2.316   3.034   3.034 -0.2018 -0.3046  0.7083
 5400TIP3   OH237614   5.198   1.302  12.065 -0.9730 -0.1067  0.6669
 5400TIP3    H137615   5.110   1.324  12.094  0.1723  3.4103  1.7622
 5400TIP3    H237616   5.218   1.365  11.996 -0.1135 -2.3162 -1.1672
 5401TIP3   OH237617   2.423   6.766   1.178  0.4097  0.4499 -0.7154
 5401TIP3    H137618   2.389   6.750   1.265  0.9258 -2.6325 -1.0401
 5401TIP3    H237619   2.350   6.805   1.130 -1.2367 -1.8390 -0.1227
 5402TIP3   OH237620   0.973   5.947   3.911  0.2764  0.0493 -0.0593
 5402TIP3    H137621   0.975   5.930   4.005 -0.1670 -0.3958 -0.1275
 5402TIP3    H237622   0.890   5.992   3.896  0.0973 -0.3670 -0.3174
 5403TIP3   OH237623   4.954   0.360   5.549  0.5361  0.6164 -0.0585
 5403TIP3    H137624   4.919   0.309   5.476 -1.5020  1.7691  0.0453
 5403TIP3    H237625   5.027   0.309   5.582  1.0008 -0.2944 -2.4212
 5404TIP3   OH237626   3.062   2.987   5.568 -0.3776 -0.4578  1.1008
 5404TIP3    H137627   3.059   2.923   5.497  0.9788  0.1420  0.4874
 5404TIP3    H237628   3.123   2.949   5.631  0.7524  0.4299  0.5413
 5405TIP3   OH237629   0.728   1.279  15.728 -0.1065  0.2379 -0.2359
 5405TIP3    H137630   0.762   1.252  15.814  1.8041  1.6511 -0.5102
 5405TIP3    H237631   0.786   1.237  15.665  0.3301  1.5885 -0.7526
 5406TIP3   OH237632   4.101   6.426  11.272  0.0711 -0.2312  0.8086
 5406TIP3    H137633   4.142   6.352  11.316 -0.9225 -0.8167  0.7699
 5406TIP3    H237634   4.118   6.412  11.179  1.8188  0.7883  0.9653
 5407TIP3   OH237635   0.600   6.151   4.970 -0.1741 -0.1404  0.4867
 5407TIP3    H137636   0.588   6.180   4.880  3.3816  1.4584  0.4672
 5407TIP3    H237637   0.651   6.220   5.011  1.5904 -2.6664  2.6829
 5408TIP3   OH237638   5.625   2.328   4.438 -0.1815  0.1151 -0.2876
 5408TIP3    H137639   5.573   2.270   4.493 -0.1350  0.6783  0.3624
 5408TIP3    H237640   5.664   2.391   4.500  2.1452 -0.9390 -0.6235
 5409TIP3   OH237641   4.316   3.465  12.047 -0.4183  0.5250  0.1572
 5409TIP3    H137642   4.302   3.494  11.957 -1.0357 -1.3144 -0.3611
 5409TIP3    H237643   4.361   3.538  12.089  0.5911  1.1005 -1.8580
 5410TIP3   OH237644   6.604   0.498  15.351  0.4428 -1.1948  0.6314
 5410TIP3    H137645   6.567   0.440  15.284 -1.3111 -0.5994  1.0394
 5410TIP3    H237646   6.574   0.461  15.434 -2.4909  1.4066  0.8301
 5411TIP3   OH237647   4.126   5.567   4.765  0.2549 -0.2373 -0.1710
 5411TIP3    H137648   4.185   5.596   4.835  1.0962 -0.0158 -0.9695
 5411TIP3    H237649   4.184   5.539   4.695 -0.5254 -2.7410  0.1159
 5412TIP3   OH237650   1.099   0.474  13.155  0.0749  0.2438  0.0775
 5412TIP3    H137651   1.005   0.465  13.139  0.2494  0.2003 -0.9483
 5412TIP3    H237652   1.132   0.384  13.156  0.4093  0.3298 -1.5018
 5413TIP3   OH237653   2.593   2.177  15.407  0.2137 -0.0056  0.1518
 5413TIP3    H137654   2.656   2.106  15.402 -1.1012 -1.2471  0.8407
 5413TIP3    H237655   2.645   2.256  15.391  1.5598 -1.1583 -1.3864
 5414TIP3   OH237656   1.811   1.783  16.006 -0.7296  0.2665 -0.6971
 5414TIP3    H137657   1.857   1.730  15.941 -1.3278 -1.9765  0.6887
 5414TIP3    H237658   1.876   1.798  16.075 -1.3169 -0.8188  0.0991
 5415TIP3   OH237659   2.205   1.417   3.422 -0.2087 -0.0097 -0.2732
 5415TIP3    H137660   2.146   1.343   3.411 -0.5118  0.2246 -0.2064
 5415TIP3    H237661   2.292   1.382   3.399 -0.1935 -0.6517  0.7517
 5416TIP3   OH237662   0.360   1.919   0.991 -0.1438  0.6232 -0.7080
 5416TIP3    H137663   0.286   1.980   0.993 -1.3136 -0.7869  0.3252
 5416TIP3    H237664   0.424   1.957   1.051 -1.7717 -0.2060  1.6718
 5417TIP3   OH237665   0.766   5.944   4.295  0.0897 -0.0628 -0.0527
 5417TIP3    H137666   0.738   5.858   4.327  1.2098 -0.5808 -0.4338
 5417TIP3    H237667   0.745   5.943   4.202 -0.9898  0.5422  0.1735
 5418TIP3   OH237668   4.033   0.219   2.674  0.1221  0.1747 -0.1467
 5418TIP3    H137669   4.003   0.207   2.584 -0.3958  0.2533  0.0111
 5418TIP3    H237670   3.952   0.219   2.726  0.5027 -1.2450  0.4730
 5419TIP3   OH237671   3.911   2.843   2.314  1.0955 -0.0733 -0.6623
 5419TIP3    H137672   4.003   2.868   2.302  1.1181 -0.6215 -1.6802
 5419TIP3    H237673   3.915   2.760   2.360  1.0801  0.5068  0.3900
 5420TIP3   OH237674   1.037   0.429  11.783  0.4478  0.6078  0.8208
 5420TIP3    H137675   0.945   0.444  11.760  0.3187 -1.2260  0.0399
 5420TIP3    H237676   1.034   0.372  11.860  0.9003 -1.8837 -0.9473
 5421TIP3   OH237677   5.746   3.837  11.572 -0.3607  0.5802 -0.2154
 5421TIP3    H137678   5.705   3.854  11.657 -0.8257  0.5413 -0.4342
 5421TIP3    H237679   5.721   3.912  11.518 -0.5184  0.3321 -0.4849
 5422TIP3   OH237680   5.969   1.430  15.190 -0.8140 -0.1980 -0.5465
 5422TIP3    H137681   5.876   1.436  15.166 -0.2552 -0.9469 -3.0670
 5422TIP3    H237682   6.012   1.396  15.111  1.5627 -0.1843  0.6969
 5423TIP3   OH237683   4.343   6.466  12.581  0.3894  0.0897 -0.0260
 5423TIP3    H137684   4.410   6.432  12.641 -1.2892 -1.1378  1.2268
 5423TIP3    H237685   4.277   6.505  12.639 -0.5723  0.1578 -1.1507
 5424TIP3   OH237686   4.189   4.286  10.762  0.2989  0.0324  0.0965
 5424TIP3    H137687   4.280   4.286  10.733  0.0730 -1.8793 -0.7167
 5424TIP3    H237688   4.149   4.361  10.717  1.1778  0.1353 -0.5189
 5425TIP3   OH237689   1.621   5.910  13.678 -0.2543 -0.5213  0.2871
 5425TIP3    H137690   1.636   5.821  13.646 -1.7795 -0.9077  0.5804
 5425TIP3    H237691   1.570   5.898  13.759 -0.5323  0.6189  0.2918
 5426TIP3   OH237692   3.336   3.663  16.398 -0.2826 -0.0008  0.4077
 5426TIP3    H137693   3.281   3.731  16.360 -0.4761 -0.8473 -0.8360
 5426TIP3    H237694   3.422   3.677  16.359 -0.2639 -0.3274  0.3273
 5427TIP3   OH237695   2.198   6.529   2.023  0.1332  0.2304 -0.3782
 5427TIP3    H137696   2.227   6.446   2.062  0.8730 -0.0230 -1.4291
 5427TIP3    H237697   2.200   6.513   1.928 -0.5162  1.1947 -0.5677
 5428TIP3   OH237698   3.302   4.802  15.726 -0.0980  0.3980  0.3077
 5428TIP3    H137699   3.224   4.749  15.745 -2.0805  3.0811 -0.1055
 5428TIP3    H237700   3.361   4.783  15.799 -1.9770 -0.1606  1.7452
 5429TIP3   OH237701   1.655   1.521  14.661  0.1378  0.3947 -0.1979
 5429TIP3    H137702   1.731   1.567  14.697 -0.1845  0.9945 -0.2580
 5429TIP3    H237703   1.594   1.592  14.640 -0.8346 -0.1403  0.7798
 5430TIP3   OH237704   2.731   2.421  15.663 -0.5092 -0.1039 -0.6511
 5430TIP3    H137705   2.814   2.413  15.616 -1.3949 -2.3336 -1.9022
 5430TIP3    H237706   2.749   2.384  15.750 -0.0841 -0.2075 -0.7805
 5431TIP3   OH237707   2.047   2.562   4.368 -0.6287  0.3545  0.1327
 5431TIP3    H137708   2.070   2.651   4.340 -1.1919  0.3259 -0.4276
 5431TIP3    H237709   2.126   2.530   4.412 -0.3190  1.0232  0.0705
 5432TIP3   OH237710   0.729   0.268   4.738  0.1789 -0.1183 -0.0959
 5432TIP3    H137711   0.661   0.274   4.806  1.0508  0.0312  0.7753
 5432TIP3    H237712   0.803   0.315   4.775 -0.1826  2.2275 -2.2430
 5433TIP3   OH237713   1.759   4.450  15.347  0.2600  0.0790  0.1931
 5433TIP3    H137714   1.680   4.432  15.296  1.9497 -0.3563 -2.4049
 5433TIP3    H237715   1.804   4.519  15.298  2.1109 -0.5770  0.9057
 5434TIP3   OH237716   3.219   1.832   2.662  0.0803  0.3707 -0.2608
 5434TIP3    H137717   3.198   1.908   2.607 -0.0365  1.6312  1.5041
 5434TIP3    H237718   3.171   1.760   2.621  0.6817  1.0988 -2.3139
 5435TIP3   OH237719   4.698   2.713   4.855  0.1379 -0.4466  0.4810
 5435TIP3    H137720   4.767   2.755   4.804 -1.5712  1.3957 -0.3787
 5435TIP3    H237721   4.687   2.627   4.814  1.3770 -0.4553  0.1428
 5436TIP3   OH237722   6.291   0.107  11.199 -0.4004 -0.0840 -0.1784
 5436TIP3    H137723   6.213   0.052  11.205 -0.4462 -0.1047 -0.9505
 5436TIP3    H237724   6.340   0.072  11.125  1.2140 -1.1653  1.3489
 5437TIP3   OH237725   4.698   3.106  13.737  0.1724 -0.2716  0.3766
 5437TIP3    H137726   4.789   3.080  13.747 -0.2307 -1.2307  1.7241
 5437TIP3    H237727   4.655   3.028  13.701 -0.3632 -0.2604  0.9973
 5438TIP3   OH237728   6.033   5.647  11.215 -0.3006  0.4045  0.7528
 5438TIP3    H137729   6.043   5.678  11.125 -1.4815  0.7996  0.7503
 5438TIP3    H237730   5.949   5.683  11.243  0.6696  1.3775  2.4585
 5439TIP3   OH237731   4.020   3.765   6.302 -0.6053  0.2885  0.7552
 5439TIP3    H137732   3.930   3.741   6.281  0.0213  0.2606 -2.0751
 5439TIP3    H237733   4.072   3.687   6.280  0.4535  1.3531 -0.6749
 5440TIP3   OH237734   1.191   6.601  14.508  0.0138  0.3455  0.1496
 5440TIP3    H137735   1.199   6.515  14.550 -0.2620  0.1957 -0.1046
 5440TIP3    H237736   1.282   6.631  14.499  0.1079  0.1117  0.3017
 5441TIP3   OH237737   0.279   2.026  11.162 -0.1831 -0.2005 -0.0411
 5441TIP3    H137738   0.295   2.109  11.208 -2.0430  1.4717 -2.2888
 5441TIP3    H237739   0.344   2.025  11.092 -1.7384  0.5857 -1.5281
 5442TIP3   OH237740   0.210   6.433  14.786  0.3834  0.3725 -0.3042
 5442TIP3    H137741   0.135   6.381  14.818  1.8242 -1.0843  0.7760
 5442TIP3    H237742   0.181   6.467  14.702 -1.4398 -0.3223  0.0209
 5443TIP3   OH237743   5.773   1.652  16.338 -0.0646 -0.0382  0.4696
 5443TIP3    H137744   5.805   1.651  16.428 -0.8012  3.2232  0.8358
 5443TIP3    H237745   5.824   1.721  16.295 -0.5893 -0.7106 -1.2838
 5444TIP3   OH237746   6.067   5.169  14.498  0.2329  0.0070 -0.6838
 5444TIP3    H137747   6.091   5.144  14.587 -2.1194  1.9781  0.5672
 5444TIP3    H237748   6.007   5.101  14.469 -1.2025  0.8253  0.3220
 5445TIP3   OH237749   4.278   5.555   1.479  0.4627  0.1544  0.0937
 5445TIP3    H137750   4.310   5.607   1.405 -2.0073  0.9851 -0.4391
 5445TIP3    H237751   4.266   5.618   1.549  0.2123 -0.1932  0.3623
 5446TIP3   OH237752   5.824   5.787   1.896 -0.5161  0.1225  0.0209
 5446TIP3    H137753   5.893   5.745   1.845  0.0674  3.2178 -1.8972
 5446TIP3    H237754   5.854   5.782   1.987  0.8112 -1.1467 -0.4817
 5447TIP3   OH237755   2.865   6.592  14.366 -0.2724  0.1426 -0.3572
 5447TIP3    H137756   2.935   6.650  14.397 -0.0108 -0.8170  0.8704
 5447TIP3    H237757   2.911   6.514  14.334 -0.7063  0.0467 -0.7459
 5448TIP3   OH237758   4.301   6.220  17.101 -0.2624  0.2484  0.1962
 5448TIP3    H137759   4.326   6.159  17.032 -3.6335  0.3222 -1.1671
 5448TIP3    H237760   4.340   6.304  17.075 -0.5088 -0.0039 -1.0137
 5449TIP3   OH237761   3.318   5.200  12.705 -0.2692 -0.1565 -0.3253
 5449TIP3    H137762   3.290   5.282  12.664 -0.4530 -0.8809 -1.6823
 5449TIP3    H237763   3.413   5.207  12.711 -0.3413  0.4237  0.1500
 5450TIP3   OH237764   2.064   3.252   2.983 -0.4632  0.0528 -0.1511
 5450TIP3    H137765   2.044   3.221   2.895 -1.0431 -1.4237  0.4728
 5450TIP3    H237766   2.090   3.343   2.972 -0.7691 -0.0530 -1.8142
 5451TIP3   OH237767   3.996   6.434   3.820  0.1655 -0.3845  0.1944
 5451TIP3    H137768   3.926   6.478   3.772  2.5112  0.0074 -2.9895
 5451TIP3    H237769   3.967   6.343   3.828 -1.1456 -0.0082 -0.1526
 5452TIP3   OH237770   6.782   1.726   3.344 -0.0679  0.7922  0.2030
 5452TIP3    H137771   6.859   1.685   3.304 -0.5460  0.5136 -0.4370
 5452TIP3    H237772   6.712   1.661   3.334  0.2635 -0.1262  3.2392
 5453TIP3   OH237773   0.712   3.720  11.481  0.0766 -0.4572  0.2164
 5453TIP3    H137774   0.757   3.653  11.429 -0.4524  1.2337 -2.4760
 5453TIP3    H237775   0.620   3.696  11.477  0.1268 -0.8458  1.1938
 5454TIP3   OH237776   4.624   5.424   2.080 -0.7013  1.2303 -0.0351
 5454TIP3    H137777   4.652   5.500   2.130 -3.8191  1.9821  0.6975
 5454TIP3    H237778   4.566   5.376   2.139 -2.7657  1.0012 -2.1332
 5455TIP3   OH237779   3.214   3.539   1.403  0.0972 -0.0098  0.1205
 5455TIP3    H137780   3.226   3.448   1.376  1.8126  0.1020  0.4383
 5455TIP3    H237781   3.210   3.588   1.320 -1.0973 -0.3999 -0.0544
 5456TIP3   OH237782   0.876   6.665   3.362  0.3380  0.1209  0.2080
 5456TIP3    H137783   0.844   6.599   3.424  0.8159 -0.5273 -0.2297
 5456TIP3    H237784   0.797   6.695   3.317  0.2340 -0.9879 -0.3877
 5457TIP3   OH237785   2.587   0.475   1.742  0.4476  0.1719 -0.0397
 5457TIP3    H137786   2.501   0.506   1.712  0.1524  0.1872  0.8029
 5457TIP3    H237787   2.649   0.536   1.704  0.1089 -0.0129 -0.9037
 5458TIP3   OH237788   0.123   6.631   0.941 -0.2036  0.0588 -0.2519
 5458TIP3    H137789   0.032   6.653   0.963 -0.1223 -1.4201  1.6252
 5458TIP3    H237790   0.146   6.561   1.001  2.0226  0.0366 -1.0970
 5459TIP3   OH237791   4.379   2.334   5.901 -0.5585 -0.1882  0.1342
 5459TIP3    H137792   4.387   2.242   5.876 -1.1489 -0.2464  0.1622
 5459TIP3    H237793   4.287   2.345   5.925 -0.3746  0.2816  0.6412
 5460TIP3   OH237794   5.366   3.475  15.449  0.5965 -0.1388  0.1132
 5460TIP3    H137795   5.285   3.493  15.498 -0.6462  0.1330 -1.9873
 5460TIP3    H237796   5.419   3.422  15.509 -1.5562 -1.1498  1.1812
 5461TIP3   OH237797   6.711   0.635   3.217 -0.2540  0.1418 -0.8396
 5461TIP3    H137798   6.777   0.608   3.154 -0.6093 -1.6319 -0.4733
 5461TIP3    H237799   6.756   0.632   3.301 -0.5007 -0.0416 -0.7131
 5462TIP3   OH237800   1.585   6.146   3.525  0.1501 -0.0442 -0.3444
 5462TIP3    H137801   1.505   6.131   3.574  0.0358 -1.1855 -0.8810
 5462TIP3    H237802   1.641   6.071   3.545 -0.3529 -1.1524 -2.8548
 5463TIP3   OH237803   6.381   4.426  13.025  0.0816 -0.6681  0.3931
 5463TIP3    H137804   6.351   4.340  12.998  0.9816 -1.8603  3.0111
 5463TIP3    H237805   6.361   4.430  13.119 -0.2091  2.0922  0.2663
 5464TIP3   OH237806   2.590   1.704  14.603 -0.3284 -0.3852  0.2891
 5464TIP3    H137807   2.648   1.642  14.647 -0.8305 -0.3072  1.0921
 5464TIP3    H237808   2.516   1.713  14.663 -0.9930 -0.2085 -0.5506
 5465TIP3   OH237809   6.298   1.149  16.339  0.0823  0.2072  0.0397
 5465TIP3    H137810   6.392   1.167  16.340  0.4094 -1.3386 -1.1467
 5465TIP3    H237811   6.258   1.232  16.313  1.2120  0.5016 -0.7687
 5466TIP3   OH237812   3.841   4.642   0.260  0.2055 -0.0190  0.1435
 5466TIP3    H137813   3.860   4.563   0.309 -1.5119  0.7708  2.1536
 5466TIP3    H237814   3.915   4.652   0.201  0.2476 -3.3276 -0.4378
 5467TIP3   OH237815   3.690   0.035   2.117  0.2623  0.0515 -0.2431
 5467TIP3    H137816   3.669   0.059   2.208  1.0660 -0.3263  0.0476
 5467TIP3    H237817   3.758  -0.031   2.125  1.3400  1.0326 -1.1570
 5468TIP3   OH237818   1.401   2.924  12.118  0.2154 -0.0926 -0.4817
 5468TIP3    H137819   1.400   3.020  12.121 -1.9402 -0.1171  0.3113
 5468TIP3    H237820   1.460   2.899  12.189  1.6637  0.6440 -1.3984
 5469TIP3   OH237821   6.211   5.253  11.769 -0.1780 -0.7073 -0.1513
 5469TIP3    H137822   6.267   5.312  11.718  0.3666 -1.2551 -0.1901
 5469TIP3    H237823   6.148   5.311  11.812 -1.8052 -0.4100 -2.8982
 5470TIP3   OH237824   4.019   2.540   6.157 -0.1132  0.4619  0.0019
 5470TIP3    H137825   4.066   2.504   6.232  1.3119 -0.9677 -1.5290
 5470TIP3    H237826   4.040   2.634   6.158  0.1065  0.4092  1.2137
 5471TIP3   OH237827   4.155   3.298   1.873  0.0690  0.1272 -0.0654
 5471TIP3    H137828   4.160   3.365   1.804  1.3731  1.0658  0.8959
 5471TIP3    H237829   4.087   3.329   1.932 -1.2913 -0.8547 -1.0905
 5472TIP3   OH237830   3.045   3.679  12.967  0.5470  0.0344 -0.3113
 5472TIP3    H137831   3.121   3.658  13.021 -0.2308  0.4126  0.9340
 5472TIP3    H237832   3.065   3.765  12.931  1.4888 -0.6224 -1.4177
 5473TIP3   OH237833   1.909   4.983  17.004  0.0678  0.3284  0.0498
 5473TIP3    H137834   1.875   4.903  16.965  0.1494  0.7284 -0.8423
 5473TIP3    H237835   1.902   4.968  17.099 -1.5884 -0.0115 -0.1252
 5474TIP3   OH237836   1.556   4.970  16.275  0.3131  0.2441  0.1716
 5474TIP3    H137837   1.508   4.931  16.202 -0.5333  0.7590  0.4365
 5474TIP3    H237838   1.645   4.981  16.242  0.4685 -1.5666 -0.0187
 5475TIP3   OH237839   2.392   2.084   3.770  0.1757  0.1423  0.2746
 5475TIP3    H137840   2.299   2.101   3.757 -0.2051 -0.9884  1.4522
 5475TIP3    H237841   2.418   2.146   3.838  0.9301  2.3295 -1.9417
 5476TIP3   OH237842   1.969   5.116   3.021 -0.0455  0.7043 -0.1875
 5476TIP3    H137843   1.972   5.062   2.942  0.0088  1.8656 -0.9849
 5476TIP3    H237844   1.952   5.053   3.092  0.8713 -0.4736 -0.9862
 5477TIP3   OH237845   0.772   0.428  14.692  0.0083 -0.1277  0.1309
 5477TIP3    H137846   0.821   0.467  14.764  0.2847  0.8983 -0.6000
 5477TIP3    H237847   0.837   0.374  14.646 -0.1869 -0.8433  0.6885
 5478TIP3   OH237848   3.986   1.478   3.651 -0.2073 -0.1418  0.1779
 5478TIP3    H137849   4.033   1.418   3.593 -1.4803 -0.7613 -0.2458
 5478TIP3    H237850   3.908   1.504   3.600  0.2117  1.7182  0.4256
 5479TIP3   OH237851   4.579   5.100  15.665 -0.1795 -0.5435 -0.1417
 5479TIP3    H137852   4.576   5.057  15.751 -0.4747  1.7245  1.0206
 5479TIP3    H237853   4.655   5.062  15.622 -0.5239 -2.3391  0.7683
 5480TIP3   OH237854   0.991   0.973  10.687 -0.3560 -0.2529 -0.3698
 5480TIP3    H137855   1.078   0.949  10.655 -0.7008 -2.4697  0.2384
 5480TIP3    H237856   0.934   0.900  10.658 -1.5664  0.0630  1.1679
 5481TIP3   OH237857   4.132   6.431  12.108 -0.9178 -0.3855  0.5772
 5481TIP3    H137858   4.039   6.407  12.103 -1.0720 -0.1447  1.9683
 5481TIP3    H237859   4.178   6.347  12.114 -1.1742 -0.4627  1.5661
 5482TIP3   OH237860   1.102   1.450   2.957 -0.4199  0.0555 -0.1041
 5482TIP3    H137861   1.062   1.502   3.027  1.0571 -0.4561  1.1714
 5482TIP3    H237862   1.140   1.374   3.003  1.1819  0.0676 -1.3509
 5483TIP3   OH237863   2.721   1.242   4.059 -0.0671  0.4748 -0.8328
 5483TIP3    H137864   2.644   1.295   4.036 -1.0646 -0.2445  0.7578
 5483TIP3    H237865   2.737   1.189   3.981 -0.1015  1.8584 -1.8203
 5484TIP3   OH237866   5.536   5.853  15.625  0.0632 -0.1146 -0.6741
 5484TIP3    H137867   5.522   5.767  15.584  0.6212 -0.7995  0.5509
 5484TIP3    H237868   5.447   5.888  15.638 -0.2366 -1.1288  0.1139
 5485TIP3   OH237869   2.122   3.509  13.378 -0.7199 -0.9061  0.3759
 5485TIP3    H137870   2.209   3.547  13.366 -1.0350 -0.3100 -0.0855
 5485TIP3    H237871   2.082   3.562  13.447 -0.5579 -1.4600  0.8974
 5486TIP3   OH237872   0.507   0.524  16.765 -0.0411 -0.4643  0.0438
 5486TIP3    H137873   0.481   0.591  16.703  0.6284  0.8384  1.1458
 5486TIP3    H237874   0.583   0.482  16.724 -1.0371 -1.2063 -1.0788
 5487TIP3   OH237875   0.045   3.285   4.492  0.2066 -0.3116 -0.4560
 5487TIP3    H137876   0.078   3.375   4.490  0.4100 -0.3557  0.6754
 5487TIP3    H237877   0.032   3.266   4.585 -0.4582 -1.2291 -0.7254
 5488TIP3   OH237878   3.209   5.694  16.840  0.2524  0.2471  0.6941
 5488TIP3    H137879   3.301   5.675  16.821  0.2549  0.5614  0.3900
 5488TIP3    H237880   3.187   5.766  16.781  0.2358  1.1717  1.8196
 5489TIP3   OH237881   3.923   2.609   2.461  0.1056 -0.2328  0.3511
 5489TIP3    H137882   3.969   2.527   2.441 -0.1880 -0.5105  0.8170
 5489TIP3    H237883   3.936   2.622   2.555 -1.5653 -0.8141  0.6799
 5490TIP3   OH237884   5.289   5.164  11.728  0.1878 -0.3865 -0.2031
 5490TIP3    H137885   5.382   5.142  11.729 -0.0046 -1.2531 -0.1796
 5490TIP3    H237886   5.282   5.245  11.779  0.7116 -1.2302  1.2451
 5491TIP3   OH237887   6.644   3.138   2.008 -0.6835 -0.1189 -0.2105
 5491TIP3    H137888   6.672   3.219   2.050  0.6940 -0.4893 -0.3891
 5491TIP3    H237889   6.551   3.129   2.031 -1.7802  3.2106 -2.8393
 5492TIP3   OH237890   2.260   1.693   0.809  0.8195  0.2879  0.2233
 5492TIP3    H137891   2.244   1.695   0.903 -1.8125 -0.1238 -0.1658
 5492TIP3    H237892   2.252   1.600   0.785  1.2612  0.4147 -0.4545
 5493TIP3   OH237893   5.263   0.362  12.822  0.2992  0.1870  0.8242
 5493TIP3    H137894   5.339   0.325  12.776 -1.2442 -1.5743 -0.4218
 5493TIP3    H237895   5.287   0.358  12.914  1.1231 -1.8702  0.5664
 5494TIP3   OH237896   3.138   4.157   0.776  0.3234  0.3530  0.4670
 5494TIP3    H137897   3.068   4.168   0.712 -0.6249 -2.9268  0.8461
 5494TIP3    H237898   3.150   4.244   0.814 -1.5118  1.5860 -1.6724
 5495TIP3   OH237899   4.783   5.878  13.632 -0.2111 -0.0154  0.0456
 5495TIP3    H137900   4.815   5.827  13.558 -1.3643 -0.4489 -0.1444
 5495TIP3    H237901   4.793   5.820  13.708  0.4772  0.2453  0.1665
 5496TIP3   OH237902   3.978   6.114   3.519 -0.4867 -0.5773 -0.1048
 5496TIP3    H137903   3.960   6.199   3.481 -0.7579  0.0019  1.2898
 5496TIP3    H237904   3.987   6.130   3.613  0.5747 -1.9048  0.0506
 5497TIP3   OH237905   4.706   4.410   5.391  0.4523  0.0403  0.2367
 5497TIP3    H137906   4.663   4.396   5.475  0.0057 -0.2585 -0.0394
 5497TIP3    H237907   4.700   4.326   5.346  0.6138  0.2210 -0.1272
 5498TIP3   OH237908   4.115   1.946  15.372 -0.7179  1.0231 -0.4041
 5498TIP3    H137909   4.085   2.015  15.432  1.0094  0.7490  0.8273
 5498TIP3    H237910   4.040   1.930  15.315 -2.5924  1.0294  1.9459
 5499TIP3   OH237911   0.085   3.487  12.563  0.0630  0.0516  0.0764
 5499TIP3    H137912   0.133   3.541  12.626  0.7435 -0.2530 -0.1775
 5499TIP3    H237913   0.003   3.535  12.548 -0.0608  0.1770  1.1161
 5500TIP3   OH237914   0.304   3.309  16.274 -0.0778 -0.4628 -0.7482
 5500TIP3    H137915   0.289   3.244  16.206 -1.5954 -0.5405 -0.3639
 5500TIP3    H237916   0.399   3.310  16.286  0.1188 -1.1338 -2.1836
 5501TIP3   OH237917   0.583   1.485  15.644  0.2636 -0.3096  0.4338
 5501TIP3    H137918   0.567   1.494  15.550 -2.3200 -0.5486  0.8182
 5501TIP3    H237919   0.638   1.407  15.652  1.0948  0.1231 -0.9166
 5502TIP3   OH237920   2.348   3.464  16.594  0.0271  0.1479 -0.3090
 5502TIP3    H137921   2.352   3.517  16.673  0.0209  0.2396 -0.3717
 5502TIP3    H237922   2.354   3.373  16.626  0.8088  0.2127 -0.2664
 5503TIP3   OH237923   4.556   5.387  13.571  0.0900  0.1165 -0.6252
 5503TIP3    H137924   4.565   5.346  13.657 -1.8422  1.8480  0.4279
 5503TIP3    H237925   4.509   5.322  13.519  1.0642 -0.8431 -0.3421
 5504TIP3   OH237926   0.972   0.334  11.171 -0.1845 -0.2310  0.4814
 5504TIP3    H137927   0.933   0.257  11.132 -1.6404 -0.6562  2.6784
 5504TIP3    H237928   0.915   0.406  11.144 -1.3572 -0.5638  1.9914
 5505TIP3   OH237929   2.980   0.629  15.653 -0.0250  0.4656  0.1773
 5505TIP3    H137930   2.890   0.635  15.685 -0.1768 -0.4575 -0.0796
 5505TIP3    H237931   2.994   0.536  15.637  0.5563  0.7474 -0.9788
 5506TIP3   OH237932   0.445   5.900  12.727 -0.5138  0.3157 -0.1688
 5506TIP3    H137933   0.533   5.867  12.746 -0.6375 -0.5875 -1.1097
 5506TIP3    H237934   0.459   5.985  12.686  0.0283 -0.8620 -2.4745
 5507TIP3   OH237935   3.260   3.479  14.752 -0.2160 -0.5557 -0.3910
 5507TIP3    H137936   3.206   3.547  14.793 -1.2914 -1.8662  0.4186
 5507TIP3    H237937   3.202   3.435  14.691  0.7424 -0.1495 -1.6212
 5508TIP3   OH237938   1.206   6.331  12.423  0.1774 -0.3884 -0.1755
 5508TIP3    H137939   1.214   6.356  12.331 -0.4077  0.1892 -0.0795
 5508TIP3    H237940   1.113   6.343  12.443  0.7070  1.8763  1.1496
 5509TIP3   OH237941   3.796   1.915  15.536 -0.1424  0.6350 -0.1010
 5509TIP3    H137942   3.719   1.910  15.593  0.0441 -0.7270  0.0385
 5509TIP3    H237943   3.815   1.824  15.513  1.1866  0.9965 -0.4726
 5510TIP3   OH237944   6.288   0.371  15.793 -0.2529  0.7994 -0.1670
 5510TIP3    H137945   6.223   0.421  15.742 -1.4127  0.3957  0.9015
 5510TIP3    H237946   6.267   0.391  15.884 -0.3943 -1.2280  0.2538
 5511TIP3   OH237947   3.607   0.815  14.036 -0.3442 -0.0299 -0.2081
 5511TIP3    H137948   3.657   0.804  14.117 -0.2928  1.6353  0.0003
 5511TIP3    H237949   3.568   0.902  14.043 -0.5073  0.0518 -1.8919
 5512TIP3   OH237950   5.156   3.430   0.460  0.2369  0.3638  0.2265
 5512TIP3    H137951   5.085   3.482   0.497 -0.3318 -0.1136 -0.1625
 5512TIP3    H237952   5.215   3.494   0.420 -1.8061  0.6265 -2.5848
 5513TIP3   OH237953   4.254   1.595  13.702  0.3878  0.2298 -0.0955
 5513TIP3    H137954   4.216   1.507  13.700 -0.0742  0.4407 -0.9204
 5513TIP3    H237955   4.333   1.586  13.755  0.8137 -0.8680 -0.9086
 5514TIP3   OH237956   3.894   0.675  14.020  0.9565 -0.5287  0.2439
 5514TIP3    H137957   3.820   0.626  13.985 -1.5245  1.6404  2.2761
 5514TIP3    H237958   3.889   0.761  13.978  3.2815 -0.8633 -0.7868
 5515TIP3   OH237959   1.840   2.716  16.742 -0.2959  0.0272 -0.4224
 5515TIP3    H137960   1.892   2.658  16.686 -1.4266 -2.4344  1.0140
 5515TIP3    H237961   1.755   2.723  16.699  0.8955  3.5077 -2.4102
 5516TIP3   OH237962   0.313   2.524  10.869 -0.4318 -0.1168 -1.0871
 5516TIP3    H137963   0.362   2.606  10.878 -0.8789  0.1092 -0.7570
 5516TIP3    H237964   0.377   2.456  10.890 -0.5845  0.2371  0.5562
 5517TIP3   OH237965   3.686   6.711   1.025 -0.3636  0.9622 -0.6521
 5517TIP3    H137966   3.702   6.740   0.936  2.8158 -1.1285 -0.8422
 5517TIP3    H237967   3.744   6.635   1.037 -1.7033  0.3503  2.7324
 5518TIP3   OH237968   3.365   3.001  13.159  0.0197 -0.1243  0.0306
 5518TIP3    H137969   3.340   2.944  13.086  0.1712  0.7094 -0.6852
 5518TIP3    H237970   3.460   3.007  13.153  0.0812 -0.4756  0.6229
 5519TIP3   OH237971   0.006   1.164   2.329  0.2596 -0.2162  0.7784
 5519TIP3    H137972  -0.018   1.162   2.237 -1.3027  2.1290  1.0976
 5519TIP3    H237973   0.102   1.155   2.329  0.0283 -3.2086 -0.8605
 5520TIP3   OH237974   0.171   1.769   5.161 -0.1078 -0.0994  0.1111
 5520TIP3    H137975   0.094   1.713   5.152  0.7411 -1.1394 -0.9500
 5520TIP3    H237976   0.245   1.708   5.165  0.6793  0.8808  0.9665
 5521TIP3   OH237977   4.879   1.098  11.947 -0.1732  0.4587  0.1464
 5521TIP3    H137978   4.896   1.076  12.038 -0.0837  2.5505  0.6579
 5521TIP3    H237979   4.939   1.042  11.897 -0.6458 -1.1226  1.3265
 5522TIP3   OH237980   6.738   6.146  16.353 -0.5843 -0.0519  0.4184
 5522TIP3    H137981   6.794   6.181  16.422 -1.3161  0.1773  0.9024
 5522TIP3    H237982   6.660   6.114  16.400 -0.5021 -1.1114 -0.1535
 5523TIP3   OH237983   4.039   4.264   5.854  0.9263 -0.0200  0.3703
 5523TIP3    H137984   4.092   4.223   5.921  0.4907  0.2630  0.8935
 5523TIP3    H237985   4.102   4.292   5.787  1.8168  2.9204  2.3064
 5524TIP3   OH237986   1.121   5.413   2.305 -0.7950  0.5027  0.5939
 5524TIP3    H137987   1.076   5.491   2.273  1.6584  1.0282 -1.7964
 5524TIP3    H237988   1.126   5.355   2.229  2.5756  0.5345  0.7012
 5525TIP3   OH237989   3.614   0.067   4.605  0.7126  0.3649  0.3546
 5525TIP3    H137990   3.558   0.060   4.682  1.5100  0.1776  0.9299
 5525TIP3    H237991   3.693   0.017   4.629  1.7885  1.9511  0.1784
 5526TIP3   OH237992   5.633   3.484  13.144  0.3682  0.2697  0.3252
 5526TIP3    H137993   5.604   3.459  13.056 -2.1274 -1.6504  1.6210
 5526TIP3    H237994   5.578   3.559  13.166  0.8709  0.6396  0.3081
 5527TIP3   OH237995   5.947   6.365  11.107 -0.0577  0.2034  0.3301
 5527TIP3    H137996   5.982   6.370  11.018  2.3960  0.9957  1.2909
 5527TIP3    H237997   5.856   6.393  11.099 -0.1315 -0.6344 -2.0680
 5528TIP3   OH237998   1.095   5.813  12.605 -0.0896  0.2806  0.6105
 5528TIP3    H137999   1.134   5.900  12.604  0.2819  0.1121 -1.0830
 5528TIP3    H238000   1.057   5.805  12.692  0.6765  1.7748  1.1033
 5529TIP3   OH238001   4.395   4.627   4.793 -0.0953 -0.2143  0.0028
 5529TIP3    H138002   4.426   4.714   4.768  1.3237 -0.8434 -0.4797
 5529TIP3    H238003   4.470   4.587   4.837 -0.3397 -1.6359 -0.8726
 5530TIP3   OH238004   3.404   1.407  12.410 -0.5091  0.8710 -0.1677
 5530TIP3    H138005   3.498   1.415  12.423 -0.5393  0.7265  0.1387
 5530TIP3    H238006   3.373   1.497  12.403 -0.2924  0.9088 -0.6806
 5531TIP3   OH238007   2.103   3.180   0.166  0.0588 -0.1231  0.1904
 5531TIP3    H138008   2.158   3.102   0.159  0.7277  0.3572  0.0364
 5531TIP3    H238009   2.080   3.203   0.076 -0.1638 -0.1538  0.2372
 5532TIP3   OH238010   2.740   3.134  17.084  0.1416  0.7445 -0.2733
 5532TIP3    H138011   2.778   3.046  17.084 -1.7152 -0.0684  0.0982
 5532TIP3    H238012   2.681   3.135  17.159  0.2983  2.3773 -0.1621
 5533TIP3   OH238013   1.497   3.858  15.591  0.1298 -0.2502  0.2798
 5533TIP3    H138014   1.501   3.929  15.526 -3.0166 -0.2355  0.0302
 5533TIP3    H238015   1.433   3.888  15.655  1.7855 -1.1266  2.4145
 5534TIP3   OH238016   0.066   2.968  15.646 -0.3600  0.7440 -0.0404
 5534TIP3    H138017   0.061   3.000  15.556 -2.3571  1.6332  0.3689
 5534TIP3    H238018   0.040   2.876  15.640 -2.1208  1.2340 -0.1613
 5535TIP3   OH238019   1.465   5.874  13.901  0.2864  0.9315  0.0214
 5535TIP3    H138020   1.397   5.849  13.838  1.9457  2.1589 -2.3449
 5535TIP3    H238021   1.424   5.940  13.956 -0.7163  0.9862 -0.7783
 5536TIP3   OH238022   4.832   4.620  13.073 -0.5802  0.2514  0.2128
 5536TIP3    H138023   4.860   4.529  13.084 -0.5977  0.3432  1.0610
 5536TIP3    H238024   4.812   4.628  12.980  0.0809 -0.4254  0.0102
 5537TIP3   OH238025   0.943   3.302  13.667 -1.2183 -0.2796  0.1815
 5537TIP3    H138026   1.001   3.322  13.594 -0.2866  1.0880  1.2645
 5537TIP3    H238027   0.921   3.210  13.656 -0.8510 -0.1621 -1.6465
 5538TIP3   OH238028   1.467   1.584  13.188  0.0209 -0.0768 -0.0798
 5538TIP3    H138029   1.449   1.675  13.163  1.9825  0.0448 -1.1800
 5538TIP3    H238030   1.561   1.582  13.205 -0.1026 -1.7873  0.4813
 5539TIP3   OH238031   2.807   1.322  13.714 -0.5082 -0.1843  0.5191
 5539TIP3    H138032   2.850   1.245  13.677 -0.7376  0.3562 -0.9056
 5539TIP3    H238033   2.776   1.294  13.800 -1.8660 -2.0871 -0.5787
 5540TIP3   OH238034   2.887   3.341  16.691 -0.2089 -0.5786  0.2675
 5540TIP3    H138035   2.845   3.423  16.664  2.4976  1.4150  1.8029
 5540TIP3    H238036   2.870   3.335  16.785  0.7064 -1.0923  0.4107
 5541TIP3   OH238037   0.153   5.639  13.918 -0.8813 -0.4085  0.2244
 5541TIP3    H138038   0.244   5.640  13.888 -1.0802  0.1493 -0.3629
 5541TIP3    H238039   0.127   5.547  13.914 -0.8713 -0.3663 -1.2317
 5542TIP3   OH238040   3.485   5.837  15.810  0.3937 -0.0934  0.2418
 5542TIP3    H138041   3.562   5.783  15.794 -0.5335 -0.7021 -2.4565
 5542TIP3    H238042   3.459   5.868  15.723 -2.4669 -0.0049  1.0769
 5543TIP3   OH238043   4.698   5.262  14.714  0.2910  0.3427  0.0865
 5543TIP3    H138044   4.768   5.302  14.763 -0.5028  0.7275  0.9161
 5543TIP3    H238045   4.719   5.279  14.622  1.5819 -0.0703  0.2992
 5544TIP3   OH238046   3.789   1.067  16.909  0.1356 -0.2579 -0.3044
 5544TIP3    H138047   3.809   1.150  16.954  0.2698  0.2969 -1.3778
 5544TIP3    H238048   3.694   1.060  16.913  0.2099 -0.7038  0.9284
 5545TIP3   OH238049   5.377   1.250  16.562 -0.0401 -0.2211 -0.0285
 5545TIP3    H138050   5.290   1.250  16.601 -0.2365  0.0541 -0.4601
 5545TIP3    H238051   5.389   1.339  16.530  0.4527 -0.2251  0.1439
 5546TIP3   OH238052   3.905   0.232   4.005 -0.8558 -0.8641  0.4221
 5546TIP3    H138053   3.925   0.186   3.923  1.6107  1.5214 -0.3856
 5546TIP3    H238054   3.859   0.311   3.978  2.0310  1.1173  1.0589
 5547TIP3   OH238055   0.915   6.034   5.634 -0.1501  0.9623 -0.2351
 5547TIP3    H138056   0.869   6.019   5.716  0.3129 -0.2815 -0.1983
 5547TIP3    H238057   0.973   6.108   5.652 -1.4064  1.8918  0.0008
 5548TIP3   OH238058   1.194   5.617  12.442  1.0178 -0.3650  0.0845
 5548TIP3    H138059   1.161   5.682  12.504 -0.2744 -0.4670 -0.4644
 5548TIP3    H238060   1.286   5.638  12.431  0.6696  1.2249  0.1086
 5549TIP3   OH238061   3.149   2.535  13.499 -0.6607  0.3187 -0.3174
 5549TIP3    H138062   3.080   2.548  13.435 -0.3411  0.5701 -0.6166
 5549TIP3    H238063   3.104   2.536  13.584 -1.0301  0.3954 -0.5138
 5550TIP3   OH238064   1.675   5.910   3.609  0.6435 -0.0804 -0.5420
 5550TIP3    H138065   1.593   5.861   3.611  0.8506 -0.4435 -0.8121
 5550TIP3    H238066   1.700   5.919   3.700 -0.4080  1.2415 -0.3629
 5551TIP3   OH238067   0.264   2.249  12.060 -0.0733 -0.0975  0.0035
 5551TIP3    H138068   0.258   2.208  12.147  1.2034  0.2475  0.2699
 5551TIP3    H238069   0.187   2.217  12.013 -1.1690  0.2750  1.5002
 5552TIP3   OH238070   3.277   3.054   1.784  0.1721  0.4449  0.1075
 5552TIP3    H138071   3.216   3.031   1.854  1.8424 -0.5936  1.2560
 5552TIP3    H238072   3.326   3.129   1.819  1.1629 -0.2187  0.1844
 5553TIP3   OH238073   6.785   5.955  12.307 -0.3892 -0.7127  0.6810
 5553TIP3    H138074   6.735   5.998  12.238  0.0433 -1.2400  0.0274
 5553TIP3    H238075   6.859   6.015  12.323  0.5091 -1.4527 -0.6104
 5554TIP3   OH238076   6.629   5.526   0.358  0.4311  0.0596 -0.1126
 5554TIP3    H138077   6.706   5.484   0.318  1.2263 -0.2504  1.7078
 5554TIP3    H238078   6.565   5.455   0.367  0.0781  0.2229 -1.2112
 5555TIP3   OH238079   6.046   3.579   5.548  0.1057 -0.1177 -0.4618
 5555TIP3    H138080   6.009   3.519   5.613 -1.4527  0.9647 -0.3324
 5555TIP3    H238081   6.083   3.651   5.599 -1.6809  1.0486 -0.7727
 5556TIP3   OH238082   4.941   3.412   3.908 -0.4029 -0.4113 -0.7286
 5556TIP3    H138083   5.021   3.440   3.863  0.8798 -1.0781  1.0387
 5556TIP3    H238084   4.928   3.321   3.880 -0.4334 -0.3572 -0.8871
 5557TIP3   OH238085   0.787   5.956  11.140 -0.2085  0.3218  0.8171
 5557TIP3    H138086   0.765   5.901  11.065 -0.4424  2.0692 -0.4206
 5557TIP3    H238087   0.876   5.929  11.165  0.2804  0.4555 -0.7531
 5558TIP3   OH238088   6.396   1.909  11.796  0.3406  0.0355  0.1652
 5558TIP3    H138089   6.305   1.907  11.826  0.0744  3.3827 -0.2336
 5558TIP3    H238090   6.392   1.878  11.706 -0.8767  2.7330 -0.7703
 5559TIP3   OH238091   4.878   0.319  11.040  0.3807  0.0554  0.7038
 5559TIP3    H138092   4.903   0.230  11.064 -0.2017 -0.3513 -0.1931
 5559TIP3    H238093   4.849   0.313  10.949 -0.3859  1.0279  0.8724
 5560TIP3   OH238094   4.296   5.687  11.658  0.0798  0.8183 -0.4830
 5560TIP3    H138095   4.217   5.720  11.616 -0.3090  1.7767  0.9449
 5560TIP3    H238096   4.269   5.668  11.748  1.1873  0.0088 -0.3098
 5561TIP3   OH238097   1.986   6.483   5.543  0.1167 -0.0666  0.2277
 5561TIP3    H138098   1.985   6.480   5.639 -1.6307  2.0204  0.3088
 5561TIP3    H238099   1.913   6.541   5.520 -0.1154 -1.3188 -2.4070
 5562TIP3   OH238100   5.161   1.193  15.773 -0.6887 -0.4014  0.4363
 5562TIP3    H138101   5.145   1.252  15.847 -0.9552 -1.1602  0.9820
 5562TIP3    H238102   5.100   1.121  15.786 -2.1826  0.4224 -1.6026
 5563TIP3   OH238103   5.407   2.955  14.989 -0.3259  0.1603 -0.0179
 5563TIP3    H138104   5.492   2.973  14.949 -0.8652  0.1397 -1.1895
 5563TIP3    H238105   5.414   2.866  15.022 -0.4233 -0.4091 -1.5148
 5564TIP3   OH238106   0.989   1.409  11.989  0.4136  0.6963  0.1603
 5564TIP3    H138107   1.057   1.439  11.928 -0.3969  3.4678  0.5703
 5564TIP3    H238108   0.907   1.431  11.946 -0.2061 -0.1406  0.9018
 5565TIP3   OH238109   3.265   1.171  14.437  0.7592 -0.0432  0.1252
 5565TIP3    H138110   3.242   1.259  14.407  1.4349  0.8913  2.2267
 5565TIP3    H238111   3.182   1.133  14.467  0.5867  0.1820 -0.0666
 5566TIP3   OH238112   6.690   4.092   2.660  0.2439 -0.7158  0.2681
 5566TIP3    H138113   6.754   4.066   2.726  0.9017 -0.6421 -0.3392
 5566TIP3    H238114   6.610   4.047   2.686  0.0060  0.7508  2.1404
 5567TIP3   OH238115   0.585   6.260   3.728  0.2908 -0.0500 -0.2890
 5567TIP3    H138116   0.499   6.219   3.722 -0.3289  1.1838  0.0222
 5567TIP3    H238117   0.571   6.350   3.699  0.6720  1.2678  3.4597
 5568TIP3   OH238118   0.609   6.275  11.426 -0.9530 -0.2350 -0.6849
 5568TIP3    H138119   0.521   6.286  11.389 -1.4204 -1.2020  0.1170
 5568TIP3    H238120   0.662   6.243  11.354 -1.4802 -0.5294 -0.9412
 5569TIP3   OH238121   5.770   1.894   4.945 -0.3609 -0.0765  0.0563
 5569TIP3    H138122   5.819   1.976   4.948  0.5789 -0.5931 -0.8499
 5569TIP3    H238123   5.836   1.826   4.957 -0.6971 -0.8336 -2.1445
 5570TIP3   OH238124   4.118   3.267  11.724  0.2736  0.1993 -0.6944
 5570TIP3    H138125   4.047   3.230  11.776  0.9652 -0.8636 -0.4950
 5570TIP3    H238126   4.122   3.212  11.646  0.4462  0.6676 -1.0192
 5571TIP3   OH238127   2.817   4.159   6.109 -0.5608 -0.0944 -0.3255
 5571TIP3    H138128   2.888   4.212   6.144 -0.5907 -0.2956  0.0429
 5571TIP3    H238129   2.747   4.222   6.090 -1.5079 -0.2541  2.3958
 5572TIP3   OH238130   1.525   2.781  11.089 -0.1805  0.2710 -0.5686
 5572TIP3    H138131   1.478   2.862  11.105 -0.3817  0.4086 -1.8080
 5572TIP3    H238132   1.614   2.798  11.120 -0.3429  0.7993 -0.3850
 5573TIP3   OH238133   4.067   0.596  15.356 -0.5952 -0.5668 -0.0448
 5573TIP3    H138134   4.022   0.606  15.440  0.1335 -0.5451  0.3527
 5573TIP3    H238135   4.027   0.661  15.299 -0.3089  0.2003  0.6207
 5574TIP3   OH238136   4.050   3.842   0.344  0.2235 -0.3174 -0.5649
 5574TIP3    H138137   4.077   3.751   0.329  0.7366  0.1774 -2.8253
 5574TIP3    H238138   4.009   3.868   0.261 -3.6697  0.2146  1.4069
 5575TIP3   OH238139   0.330   2.955   5.745  0.1385  0.5898  0.8389
 5575TIP3    H138140   0.299   2.967   5.835 -0.3658 -3.2047  1.2169
 5575TIP3    H238141   0.424   2.972   5.750  0.1043  0.4872  2.0525
 5576TIP3   OH238142   0.547   0.111   5.177  0.6035  0.0415 -0.1331
 5576TIP3    H138143   0.497   0.179   5.222  0.0186  0.2747 -1.1384
 5576TIP3    H238144   0.603   0.074   5.246 -1.1914 -0.4673  1.0849
 5577TIP3   OH238145   2.641   3.844   3.054  0.0816 -0.6518 -0.3288
 5577TIP3    H138146   2.548   3.849   3.032 -0.1417  0.3231  0.8170
 5577TIP3    H238147   2.661   3.750   3.049 -0.8944 -0.8476 -0.8202
 5578TIP3   OH238148   0.414   0.454  11.888 -0.2767 -0.4403  0.1841
 5578TIP3    H138149   0.430   0.547  11.871  0.4468 -0.1233  2.5098
 5578TIP3    H238150   0.489   0.426  11.940 -1.2512 -1.9667  0.7819
 5579TIP3   OH238151   1.224   0.630  12.959 -0.4224 -0.6321  0.4152
 5579TIP3    H138152   1.241   0.574  12.883 -0.4342  1.2739 -1.0273
 5579TIP3    H238153   1.182   0.572  13.022 -0.2416 -2.3025 -0.9534
 5580TIP3   OH238154   5.217   6.659   4.141 -0.1595 -0.6517  0.0482
 5580TIP3    H138155   5.252   6.733   4.092 -0.0194 -0.2546  0.7556
 5580TIP3    H238156   5.137   6.636   4.094 -0.9645  0.8485  0.6689
 5581TIP3   OH238157   2.415   6.349   3.893 -0.4320  0.2128  0.3886
 5581TIP3    H138158   2.427   6.431   3.845 -2.3041 -0.6870 -1.6825
 5581TIP3    H238159   2.437   6.281   3.829  2.1360 -0.9275  2.3898
 5582TIP3   OH238160   6.170   4.934  10.468 -0.0262  0.8380  0.0161
 5582TIP3    H138161   6.078   4.935  10.493 -0.0995 -0.2147 -0.1853
 5582TIP3    H238162   6.209   5.005  10.518 -0.8841  1.0747  0.3590
 5583TIP3   OH238163   5.601   6.712  12.189  0.2531  0.4560  0.9355
 5583TIP3    H138164   5.556   6.737  12.109  1.5245 -2.2686 -0.7012
 5583TIP3    H238165   5.644   6.793  12.218 -1.5586  1.8781 -0.1720
 5584TIP3   OH238166   1.312   3.479   5.761  0.5214  0.1151 -0.0392
 5584TIP3    H138167   1.240   3.535   5.729 -1.0368 -1.1759  1.1410
 5584TIP3    H238168   1.305   3.482   5.856  0.0153 -2.5570  0.0547
 5585TIP3   OH238169   3.116   3.448  12.274  0.0329 -0.7347  0.0692
 5585TIP3    H138170   3.171   3.450  12.352  0.1919  0.1653 -0.0619
 5585TIP3    H238171   3.027   3.450  12.307  0.0996 -0.4910  0.2280
 5586TIP3   OH238172   3.739   1.821  16.074  0.0477  0.2763  0.0979
 5586TIP3    H138173   3.680   1.893  16.098  2.8350  2.5467  0.3596
 5586TIP3    H238174   3.791   1.855  16.002  1.2748 -1.5797  0.0703
 5587TIP3   OH238175   0.251   4.707   4.835 -0.3250  0.3486 -0.4865
 5587TIP3    H138176   0.188   4.645   4.799 -0.3923  0.3427 -0.3566
 5587TIP3    H238177   0.336   4.664   4.824 -0.4815 -0.2653  0.6782
 5588TIP3   OH238178   0.888   1.200   1.759 -0.0181  0.7538  0.1627
 5588TIP3    H138179   0.883   1.244   1.673 -1.5663  1.1699  0.4518
 5588TIP3    H238180   0.806   1.224   1.803 -0.9026 -2.4366  0.3464
 5589TIP3   OH238181   0.637   4.697  11.294  0.2712 -0.2934  0.0852
 5589TIP3    H138182   0.625   4.625  11.356  0.0335 -0.2125  0.1342
 5589TIP3    H238183   0.727   4.725  11.308  0.1467 -0.1226  0.5545
 5590TIP3   OH238184   4.013   1.181  15.766 -0.4592 -0.0235 -0.1050
 5590TIP3    H138185   3.969   1.183  15.851 -0.3345 -2.8862  0.0804
 5590TIP3    H238186   3.943   1.182  15.702 -0.8802 -4.1878  0.1809
 5591TIP3   OH238187   6.216   3.423   1.159 -0.5519  0.1093 -0.4170
 5591TIP3    H138188   6.279   3.472   1.211 -2.1703  1.1020  0.6454
 5591TIP3    H238189   6.233   3.450   1.069  1.3004 -0.5275 -0.2927
 5592TIP3   OH238190   2.937   2.509  15.502 -0.1081 -0.2230  0.4074
 5592TIP3    H138191   3.028   2.530  15.523  0.0788 -0.3790 -0.2175
 5592TIP3    H238192   2.919   2.561  15.424 -0.4657 -0.4102  0.3671
 5593TIP3   OH238193   4.121   6.120  13.115  0.0507  0.2078 -0.5780
 5593TIP3    H138194   4.066   6.167  13.052 -0.2770  0.7701  0.1107
 5593TIP3    H238195   4.112   6.171  13.196  0.9551 -0.1523 -0.2461
 5594TIP3   OH238196   3.571   1.165  15.754 -0.1884 -0.4136  0.7916
 5594TIP3    H138197   3.516   1.159  15.676  0.2082  1.6915  0.3228
 5594TIP3    H238198   3.637   1.230  15.732  1.9508 -2.2250  1.6962
 5595TIP3   OH238199   2.631   2.777  13.462  0.1224  0.1023  0.2865
 5595TIP3    H138200   2.638   2.684  13.441 -1.1622 -0.0289  0.4148
 5595TIP3    H238201   2.624   2.820  13.377 -0.6619 -0.0512  0.2641
 5596TIP3   OH238202   4.201   1.555   2.826 -0.1281 -0.4936 -0.2013
 5596TIP3    H138203   4.183   1.476   2.878 -1.2109 -0.3944 -0.4132
 5596TIP3    H238204   4.123   1.609   2.837  1.6253  1.7012  2.0179
 5597TIP3   OH238205   2.646   3.397  15.099 -0.1389  0.3944  0.9104
 5597TIP3    H138206   2.696   3.318  15.119  1.7187  1.1304 -0.6863
 5597TIP3    H238207   2.612   3.383  15.011 -0.1820  1.1966  0.7919
 5598TIP3   OH238208   0.934   1.498   6.702  0.0655  0.4717  0.2291
 5598TIP3    H138209   0.923   1.530   6.792 -0.6809 -0.1028  0.3479
 5598TIP3    H238210   1.028   1.499   6.688  0.2479 -0.2098  1.3124
 5599TIP3   OH238211   6.743   3.762   1.244 -0.0942  0.2589  0.2752
 5599TIP3    H138212   6.782   3.688   1.198  1.1329  0.8013  0.4224
 5599TIP3    H238213   6.777   3.756   1.333  1.4757  2.0193 -0.1689
 5600TIP3   OH238214   6.237   2.272   3.063  0.1745 -0.1522 -0.0096
 5600TIP3    H138215   6.310   2.214   3.043 -0.8722 -2.0605  1.5580
 5600TIP3    H238216   6.253   2.303   3.152 -1.3990 -1.3622  0.7204
 5601TIP3   OH238217   6.248   4.132  13.012 -0.6065  0.3923 -0.3426
 5601TIP3    H138218   6.210   4.157  13.096 -2.1988  1.1685 -1.2723
 5601TIP3    H238219   6.332   4.092  13.034 -1.4399 -0.2892  1.6854
 5602TIP3   OH238220   4.649   3.482  16.044  0.2188 -0.2179 -0.0036
 5602TIP3    H138221   4.670   3.432  16.123  2.0792  0.5876  0.0327
 5602TIP3    H238222   4.664   3.421  15.972 -1.7342 -1.0370  0.2456
 5603TIP3   OH238223   6.486   4.744   4.237 -0.1897  0.5677  0.2942
 5603TIP3    H138224   6.510   4.698   4.157 -1.4667 -1.1670  0.8847
 5603TIP3    H238225   6.419   4.807   4.209 -0.7565 -0.1516  0.0151
 5604TIP3   OH238226   2.803   5.630  16.286  0.2318 -0.6991  0.1115
 5604TIP3    H138227   2.799   5.594  16.375 -1.1705  0.7138  0.6387
 5604TIP3    H238228   2.747   5.707  16.289  1.2446  0.1304 -1.6563
 5605TIP3   OH238229   3.264   4.987  12.873  0.1413  0.2596 -0.5460
 5605TIP3    H138230   3.189   5.004  12.931  1.1584 -0.7104  1.0811
 5605TIP3    H238231   3.264   5.061  12.813 -2.3329  0.1147 -0.7798
 5606TIP3   OH238232   0.162   3.072   5.280 -0.4366 -0.0588  0.2101
 5606TIP3    H138233   0.195   3.078   5.369 -1.9828  2.4033  0.6886
 5606TIP3    H238234   0.068   3.060   5.290 -0.6430  0.3529 -1.0626
 5607TIP3   OH238235   1.885   5.077   4.737  0.1354 -0.4077 -0.2042
 5607TIP3    H138236   1.937   5.039   4.666 -0.5114 -0.9976 -0.3660
 5607TIP3    H238237   1.807   5.111   4.694 -0.1308 -0.5200  0.1901
 5608TIP3   OH238238   3.710   5.949  13.683  0.3315 -0.4860  0.1261
 5608TIP3    H138239   3.801   5.950  13.715  0.6377 -2.8150 -0.6056
 5608TIP3    H238240   3.710   5.886  13.611 -1.2376  1.7050 -1.8763
 5609TIP3   OH238241   6.301   0.996   2.656  0.3696  0.3677 -0.3410
 5609TIP3    H138242   6.380   1.048   2.673  0.2766  0.4346 -0.1034
 5609TIP3    H238243   6.229   1.057   2.671  0.2953  0.6385 -1.7368
 5610TIP3   OH238244   4.933   5.884   1.900 -0.3371 -0.3751  0.5774
 5610TIP3    H138245   4.960   5.828   1.828 -0.3122 -0.9271  1.0129
 5610TIP3    H238246   4.855   5.929   1.868  1.0832  1.2660 -0.7131
 5611TIP3   OH238247   1.153   6.062   5.393  0.6377 -0.0053 -0.3426
 5611TIP3    H138248   1.230   6.079   5.447 -0.8248  2.5505  1.0804
 5611TIP3    H238249   1.147   6.139   5.335 -0.3802 -0.5540 -0.9858
 5612TIP3   OH238250   6.055   1.545   2.473 -0.5422  0.2171 -0.7088
 5612TIP3    H138251   6.035   1.637   2.491 -1.2041  0.2354 -1.5225
 5612TIP3    H238252   6.133   1.549   2.418 -2.0983  0.4105 -2.9477
 5613TIP3   OH238253   6.620   6.434  15.810 -0.5586 -0.4151  0.0124
 5613TIP3    H138254   6.643   6.341  15.818  1.5217 -0.0235 -0.9559
 5613TIP3    H238255   6.572   6.441  15.728 -3.2835 -1.0646  1.4971
 5614TIP3   OH238256   6.109   6.539   2.163  0.5826  0.4965 -0.5980
 5614TIP3    H138257   6.084   6.567   2.251 -1.0970 -1.2862 -0.4624
 5614TIP3    H238258   6.085   6.612   2.107  3.3792  2.4130  0.6080
 5615TIP3   OH238259   6.080   1.841  11.903  0.1080  0.1994 -0.0887
 5615TIP3    H138260   6.124   1.814  11.823 -0.1537 -2.5001  0.6303
 5615TIP3    H238261   5.990   1.861  11.876  0.5966  1.5288 -0.8117
 5616TIP3   OH238262   1.194   3.756   5.821 -0.2584  0.0060  0.0015
 5616TIP3    H138263   1.118   3.811   5.802 -0.0079  0.1071 -0.7330
 5616TIP3    H238264   1.226   3.787   5.905  0.5048  1.6927 -0.8836
 5617TIP3   OH238265   0.420   2.495   3.013 -0.0301 -0.0962 -0.1828
 5617TIP3    H138266   0.430   2.586   3.039  1.8603 -0.4752  0.5164
 5617TIP3    H238267   0.381   2.499   2.926  1.3404  1.4384 -0.7597
 5618TIP3   OH238268   2.750   4.715  16.565 -0.1811 -0.0312 -0.0410
 5618TIP3    H138269   2.751   4.805  16.598  1.1985 -0.0206 -0.1035
 5618TIP3    H238270   2.810   4.667  16.622  0.2596 -0.5690 -0.9401
 5619TIP3   OH238271   6.779   3.894  11.055  0.1972  0.0906  0.3519
 5619TIP3    H138272   6.874   3.890  11.043  0.2030  1.2053  0.0063
 5619TIP3    H238273   6.744   3.900  10.966 -0.2266 -0.8267  0.4532
 5620TIP3   OH238274   1.144   0.955   4.713 -0.2550  0.3169 -0.0362
 5620TIP3    H138275   1.235   0.936   4.691 -0.0643  1.6605 -0.4155
 5620TIP3    H238276   1.121   0.888   4.778  0.8146 -0.3816 -0.3609
 5621TIP3   OH238277   6.652   4.123  12.690 -0.3328 -0.4638  0.2323
 5621TIP3    H138278   6.642   4.208  12.732 -0.5184  0.0931 -0.9266
 5621TIP3    H238279   6.563   4.097  12.668 -0.2654 -0.9119  0.4701
 5622TIP3   OH238280   3.414   1.625   3.564  0.4532  0.2163 -0.6753
 5622TIP3    H138281   3.346   1.566   3.595  0.8130  0.5911  0.8815
 5622TIP3    H238282   3.418   1.610   3.469 -0.3410 -1.3179 -0.4837
 5623TIP3   OH238283   5.159   5.811   5.054 -0.6907 -0.4486 -0.6183
 5623TIP3    H138284   5.180   5.888   5.001  0.7472 -1.2897 -1.2915
 5623TIP3    H238285   5.064   5.813   5.062 -0.7599  0.7549 -1.5998
 5624TIP3   OH238286   0.048   0.177   1.710 -0.4885 -0.0024 -0.2761
 5624TIP3    H138287   0.013   0.092   1.684 -0.4214 -0.5981  1.4991
 5624TIP3    H238288   0.141   0.172   1.691 -0.5373 -0.1986 -0.4698
 5625TIP3   OH238289   3.673   2.923   3.987  0.3702  0.2216  0.2807
 5625TIP3    H138290   3.656   2.952   3.897  0.4385  0.2920  0.2907
 5625TIP3    H238291   3.586   2.920   4.028  0.3285  0.0954  0.1837
 5626TIP3   OH238292   0.686   1.015  12.771 -0.4723 -0.0143  0.1006
 5626TIP3    H138293   0.675   1.023  12.677  0.5128  0.2770  0.0088
 5626TIP3    H238294   0.766   0.963  12.782 -0.7943 -0.3838  0.7704
 5627TIP3   OH238295   5.397   0.132   2.833 -0.2107  0.4622 -0.1039
 5627TIP3    H138296   5.330   0.193   2.861 -0.2197 -0.2804  1.5485
 5627TIP3    H238297   5.356   0.081   2.762 -0.9220  0.9025 -0.0094
 5628TIP3   OH238298   4.604   1.466  12.796 -0.5935 -0.0874 -0.4406
 5628TIP3    H138299   4.674   1.421  12.845 -2.9124 -2.7193  0.6322
 5628TIP3    H238300   4.530   1.467  12.857 -2.5355 -0.4332 -2.7490
 5629TIP3   OH238301   2.377   6.374   5.781 -0.1749  0.4561 -0.1512
 5629TIP3    H138302   2.336   6.364   5.695  1.7580  0.0816 -1.0558
 5629TIP3    H238303   2.444   6.441   5.768  1.1371 -0.6651  0.7009
 5630TIP3   OH238304   3.176   6.388  14.723  0.1579 -0.2929  0.1934
 5630TIP3    H138305   3.257   6.371  14.771 -0.2735 -1.2663  0.5839
 5630TIP3    H238306   3.126   6.447  14.781 -0.9508 -2.5444  1.5929
 5631TIP3   OH238307   5.910   2.771   1.793  0.0666  0.5500  0.3217
 5631TIP3    H138308   5.824   2.813   1.790  0.5731  1.5332 -0.5794
 5631TIP3    H238309   5.915   2.735   1.882 -0.8725  1.3418  0.7134
 5632TIP3   OH238310   5.437   4.181  10.643 -0.3104 -0.1608 -0.0397
 5632TIP3    H138311   5.353   4.148  10.612  0.4817 -0.0740 -2.4441
 5632TIP3    H238312   5.451   4.138  10.727 -2.8172 -0.0478  0.4700
 5633TIP3   OH238313   6.216   0.870   5.602  0.3153 -0.5897  0.0568
 5633TIP3    H138314   6.229   0.847   5.511  1.1900  0.1919 -0.0180
 5633TIP3    H238315   6.204   0.965   5.602 -2.7233 -0.9200  0.4122
 5634TIP3   OH238316   1.858   5.613  10.503  0.2463 -0.7019  0.3696
 5634TIP3    H138317   1.770   5.575  10.498 -0.1936  0.3993 -0.5847
 5634TIP3    H238318   1.889   5.611  10.412  1.4846 -1.6845  0.7964
 5635TIP3   OH238319   2.800   3.609   6.301  0.8033  0.4856 -0.4725
 5635TIP3    H138320   2.771   3.569   6.382 -0.0889  0.3268 -0.8688
 5635TIP3    H238321   2.888   3.642   6.320  0.4205  0.8455  0.6866
 5636TIP3   OH238322   0.894   6.491  14.074  0.0195  1.2785  0.3772
 5636TIP3    H138323   0.948   6.508  13.997 -0.0617 -0.8880 -0.1823
 5636TIP3    H238324   0.912   6.564  14.133  2.1306  1.5461 -0.5694
 5637TIP3   OH238325   1.953   1.218  11.847 -0.0292  0.2862  0.2942
 5637TIP3    H138326   1.942   1.135  11.894  0.5596  0.8719  1.4650
 5637TIP3    H238327   1.864   1.241  11.819 -0.4059  0.0117  1.2535
 5638TIP3   OH238328   4.045   1.629  13.060 -0.3483 -0.3238 -0.0643
 5638TIP3    H138329   3.955   1.617  13.030  0.5732 -1.3528 -2.4621
 5638TIP3    H238330   4.064   1.551  13.112 -0.2003 -1.0370 -1.1777
 5639TIP3   OH238331   6.026   3.511  17.071 -0.4193  0.1521 -0.0603
 5639TIP3    H138332   6.084   3.561  17.013  0.8369  1.7474  2.4964
 5639TIP3    H238333   6.065   3.423  17.074  0.4786  0.5436 -0.2527
 5640TIP3   OH238334   2.057   1.823  13.825 -0.7302 -0.0881  0.5095
 5640TIP3    H138335   2.023   1.798  13.911  0.0984  0.0348  0.8770
 5640TIP3    H238336   2.099   1.908  13.840  0.0297 -0.3994  0.1321
 5641TIP3   OH238337   6.590   2.418  14.540 -0.0099  0.1665  0.1268
 5641TIP3    H138338   6.533   2.493  14.556 -1.2938 -0.8610  0.4205
 5641TIP3    H238339   6.678   2.456  14.532 -0.6546  1.7004  0.1938
 5642TIP3   OH238340   0.028   0.867  15.850 -0.2364 -0.1002  0.6785
 5642TIP3    H138341  -0.001   0.823  15.770  0.6714  0.1934  0.1863
 5642TIP3    H238342   0.104   0.919  15.824  1.1601 -1.3828  2.0962
 5643TIP3   OH238343   2.895   0.026   4.080 -0.0781 -0.2242 -0.6155
 5643TIP3    H138344   2.926   0.110   4.046  1.5089 -0.2738  0.6133
 5643TIP3    H238345   2.924  -0.039   4.016 -0.2414  0.0485 -0.9611
 5644TIP3   OH238346   0.018   2.034   4.732  0.4234  0.3142 -0.0415
 5644TIP3    H138347  -0.031   2.032   4.814  0.1285 -0.8767 -0.2350
 5644TIP3    H238348   0.073   1.956   4.735  1.9844  1.4013 -0.0342
 5645TIP3   OH238349   6.381   1.305  13.020 -0.4062  0.0159  0.4051
 5645TIP3    H138350   6.427   1.293  13.103  0.7924  1.6262 -0.0018
 5645TIP3    H238351   6.290   1.321  13.046  0.0592  1.0831  1.4457
 5646TIP3   OH238352   4.752   4.644  13.345  0.2923 -0.0479 -0.0371
 5646TIP3    H138353   4.756   4.645  13.249  0.4426 -0.5988 -0.0389
 5646TIP3    H238354   4.659   4.646  13.365  0.2392 -0.6343 -0.2092
 5647TIP3   OH238355   1.539   3.817  12.461  0.5846  0.2564  0.0107
 5647TIP3    H138356   1.606   3.805  12.394 -0.5967 -0.3563 -1.0751
 5647TIP3    H238357   1.474   3.874  12.420 -0.5295 -0.7514  0.3450
 5648TIP3   OH238358   2.661   3.491  12.690 -0.0480 -0.3212 -0.5453
 5648TIP3    H138359   2.651   3.585  12.703  1.2991 -0.5320  2.4142
 5648TIP3    H238360   2.754   3.474  12.707 -0.7194 -2.4875  1.1237
 5649TIP3   OH238361   3.902   3.875  14.964  0.1342  0.0678  0.4326
 5649TIP3    H138362   3.873   3.895  14.875 -0.3069 -2.4339 -0.0390
 5649TIP3    H238363   3.821   3.876  15.016 -0.1863 -2.1626  0.0431
 5650TIP3   OH238364   6.677   5.945   2.813 -0.7411  0.4094  0.4124
 5650TIP3    H138365   6.766   5.966   2.842 -0.5138 -0.9371  0.7305
 5650TIP3    H238366   6.660   5.858   2.849 -1.7944  0.2048 -0.5478
 5651TIP3   OH238367   1.282   5.150  13.741 -0.0948 -0.3139 -0.4993
 5651TIP3    H138368   1.269   5.222  13.679 -1.8163 -0.4217 -0.2956
 5651TIP3    H238369   1.271   5.071  13.689 -0.4114 -0.4142 -0.2785
 5652TIP3   OH238370   1.900   3.278   4.754  0.4571  0.6142 -0.6510
 5652TIP3    H138371   1.874   3.356   4.804  0.1262  0.4927 -0.6331
 5652TIP3    H238372   1.996   3.280   4.755  0.5721 -1.3260  3.0829
 5653TIP3   OH238373   3.691   3.672  14.853 -0.4346  0.1143  0.0170
 5653TIP3    H138374   3.599   3.695  14.835 -0.3979 -0.6053 -1.1612
 5653TIP3    H238375   3.727   3.649  14.767  0.5931 -0.5357  0.6121
 5654TIP3   OH238376   3.213   5.945  15.175  0.1849  0.3191  0.4776
 5654TIP3    H138377   3.217   5.986  15.262  1.5762  0.9745  0.1139
 5654TIP3    H238378   3.221   6.018  15.114 -2.1199  0.0076 -0.2286
 5655TIP3   OH238379   0.439   6.432  13.435 -0.1123  0.0537  0.5752
 5655TIP3    H138380   0.507   6.389  13.486 -0.7861 -0.2620  1.2075
 5655TIP3    H238381   0.366   6.370  13.435 -0.4287  0.4198 -0.0444
 5656TIP3   OH238382   1.368   2.171   4.116  0.2750 -0.3928  0.7508
 5656TIP3    H138383   1.289   2.201   4.072 -0.8704 -3.0664  0.9122
 5656TIP3    H238384   1.440   2.204   4.062 -0.9433  1.1283  0.0104
 5657TIP3   OH238385   1.572   6.248  14.089 -0.2009 -0.1500  0.4846
 5657TIP3    H138386   1.663   6.226  14.110 -0.1694 -1.1338 -0.6275
 5657TIP3    H238387   1.525   6.165  14.097 -1.3860  0.7258  2.9781
 5658TIP3   OH238388   3.474   5.344   0.847  0.3908 -0.1694 -0.6895
 5658TIP3    H138389   3.439   5.286   0.914  0.8067 -0.9411 -1.1281
 5658TIP3    H238390   3.399   5.366   0.792  0.0483  0.4818  0.0343
 5659TIP3   OH238391   2.075   3.017   0.610  0.2859  0.9746  0.4421
 5659TIP3    H138392   2.016   3.043   0.680 -1.7812  0.2861 -1.0088
 5659TIP3    H238393   2.083   3.094   0.554 -1.7975  0.1212 -1.0844
 5660TIP3   OH238394   2.011   3.757   3.657 -0.0764 -0.0488  0.1127
 5660TIP3    H138395   2.034   3.665   3.670  0.9306  0.3294  1.1651
 5660TIP3    H238396   1.918   3.756   3.635 -0.1015 -1.3098  0.2427
 5661TIP3   OH238397   1.141   6.389  12.155  0.4301 -0.3704  0.1649
 5661TIP3    H138398   1.082   6.314  12.152  0.7918 -0.6179 -0.9843
 5661TIP3    H238399   1.175   6.397  12.066  0.8220  0.8195  0.4048
 5662TIP3   OH238400   5.329   0.396   1.230  0.5147 -0.0440 -0.3495
 5662TIP3    H138401   5.280   0.358   1.303  1.0238  0.7723  0.4180
 5662TIP3    H238402   5.279   0.474   1.205  1.0163  0.3786 -0.0458
 5663TIP3   OH238403   6.485   6.677  15.638 -0.7320  0.8647 -0.1746
 5663TIP3    H138404   6.440   6.612  15.693 -0.5545  0.9060  0.0211
 5663TIP3    H238405   6.466   6.761  15.680 -0.2362  0.8552  0.0763
 5664TIP3   OH238406   4.379   3.118  12.344  0.1595 -0.3470 -0.1528
 5664TIP3    H138407   4.334   3.132  12.428  1.4533 -1.2666  0.7089
 5664TIP3    H238408   4.336   3.179  12.284  0.2047  1.4006  1.5364
 5665TIP3   OH238409   4.904   2.005  15.627  0.0298 -0.0324 -0.1966
 5665TIP3    H138410   4.920   1.991  15.721  1.7856 -0.8602 -0.5832
 5665TIP3    H238411   4.947   2.088  15.608 -1.8917  1.0330  0.0924
 5666TIP3   OH238412   3.897   0.120  14.494 -0.4659  0.3824 -0.3051
 5666TIP3    H138413   3.946   0.055  14.443  0.2940 -0.2186  1.1652
 5666TIP3    H238414   3.871   0.074  14.573 -1.8382  1.2504 -0.2378
 5667TIP3   OH238415   0.334   1.723   5.575 -0.4072  0.4096 -0.2557
 5667TIP3    H138416   0.348   1.695   5.665 -0.0253 -1.0031 -0.7394
 5667TIP3    H238417   0.298   1.647   5.531 -0.3442  0.9992 -1.3621
 5668TIP3   OH238418   3.113   0.311   0.838  0.2761 -0.0142  0.0006
 5668TIP3    H138419   3.035   0.321   0.892  0.4296 -0.0654  0.2311
 5668TIP3    H238420   3.183   0.292   0.900  0.5918  0.6608 -0.1507
 5669TIP3   OH238421   5.569   5.411  13.576  0.0929  0.1548  0.0084
 5669TIP3    H138422   5.596   5.402  13.667 -1.9172  1.9716  0.8178
 5669TIP3    H238423   5.505   5.340  13.562 -0.8575  0.9073  0.5169
 5670TIP3   OH238424   3.148   4.938   3.030 -0.5525 -0.0875  0.4574
 5670TIP3    H138425   3.188   4.979   2.954  1.4401 -1.8686  0.4876
 5670TIP3    H238426   3.081   5.000   3.059  0.8495  2.0638 -0.8089
 5671TIP3   OH238427   2.810   2.842  16.501 -0.4755  0.2636  0.0603
 5671TIP3    H138428   2.832   2.877  16.588  1.2425  0.0882 -0.2880
 5671TIP3    H238429   2.810   2.918  16.444  2.3391 -0.1417 -0.5214
 5672TIP3   OH238430   6.034   6.200  15.332 -0.2400 -0.1248  0.6068
 5672TIP3    H138431   5.952   6.198  15.282  0.0535  0.6268  0.0771
 5672TIP3    H238432   6.090   6.260  15.282  1.4803 -2.4559 -0.3630
 5673TIP3   OH238433   0.382   3.864   5.158  0.5051 -0.2738  0.9261
 5673TIP3    H138434   0.289   3.839   5.154  0.3928 -0.1419  2.5955
 5673TIP3    H238435   0.381   3.958   5.137  0.3534 -0.4395  0.1610
 5674TIP3   OH238436   4.732   1.440   3.237 -0.2241  0.1906  0.1435
 5674TIP3    H138437   4.637   1.431   3.232 -0.1537 -1.6250  1.6120
 5674TIP3    H238438   4.751   1.446   3.330  1.0960  0.9242 -0.1582
 5675TIP3   OH238439   2.216   5.018   5.694 -0.3668 -0.0151 -0.5039
 5675TIP3    H138440   2.253   4.980   5.774  1.3561  1.1314 -0.7502
 5675TIP3    H238441   2.215   4.945   5.632  1.8373  0.0142 -0.6090
 5676TIP3   OH238442   3.543   4.200  10.504 -0.1721 -0.4031 -0.0487
 5676TIP3    H138443   3.543   4.276  10.445 -0.4545  0.0284  0.5070
 5676TIP3    H238444   3.634   4.170  10.504 -0.1191 -0.2426 -0.5024
 5677TIP3   OH238445   1.431   0.904   3.170 -1.0387  0.2259  0.3194
 5677TIP3    H138446   1.520   0.880   3.196 -1.2247 -1.4306 -0.5378
 5677TIP3    H238447   1.379   0.894   3.250 -0.1919  2.8360  1.2666
 5678TIP3   OH238448   0.159   0.564   4.657  0.3702 -0.0329 -0.0443
 5678TIP3    H138449   0.086   0.560   4.719 -0.1588 -2.0905 -0.7430
 5678TIP3    H238450   0.233   0.527   4.704  0.8433  1.5719  0.4889
 5679TIP3   OH238451   2.582   1.253   3.594  0.0553  0.4881 -0.0926
 5679TIP3    H138452   2.521   1.181   3.606  1.6114 -1.0553 -1.0789
 5679TIP3    H238453   2.580   1.271   3.500 -0.3680  1.7872  0.1567
 5680TIP3   OH238454   3.886   4.097  16.214  0.2005  0.2436  0.6672
 5680TIP3    H138455   3.863   4.095  16.121  1.5049 -0.2975  0.3392
 5680TIP3    H238456   3.981   4.084  16.215 -0.0181 -1.4337  2.1572
 5681TIP3   OH238457   4.280   0.481   4.276 -0.9281  0.1024  0.4086
 5681TIP3    H138458   4.329   0.441   4.347 -2.3090  0.1700  1.4247
 5681TIP3    H238459   4.343   0.537   4.232 -0.1310  0.2944  1.7680
 5682TIP3   OH238460   3.382   6.238  13.295  0.1341  0.0190  0.2369
 5682TIP3    H138461   3.410   6.156  13.257  1.5548  0.4491  0.3367
 5682TIP3    H238462   3.322   6.213  13.365 -0.0656 -0.8880 -0.2593
 5683TIP3   OH238463   3.396   3.884   2.584 -0.2978  0.1753 -0.6256
 5683TIP3    H138464   3.341   3.831   2.643  1.2310  0.4693  1.0855
 5683TIP3    H238465   3.348   3.884   2.501 -1.1428 -2.5478 -0.1953
 5684TIP3   OH238466   1.107   3.360   5.061  0.2520  0.1479  0.1143
 5684TIP3    H138467   1.178   3.390   5.118  0.1666  1.5148 -0.4833
 5684TIP3    H238468   1.111   3.265   5.067  1.7944  0.2144  0.5164
 5685TIP3   OH238469   0.546   6.675   1.031  0.4400 -0.7132 -0.3999
 5685TIP3    H138470   0.459   6.708   1.053  0.2388 -1.2142 -0.4471
 5685TIP3    H238471   0.562   6.707   0.942  0.4323 -0.3598 -0.2733
 5686TIP3   OH238472   2.846   3.760  14.777 -0.0111  0.0873  0.3870
 5686TIP3    H138473   2.769   3.814  14.762 -1.1489 -1.8093 -0.8136
 5686TIP3    H238474   2.826   3.713  14.858 -0.2107 -0.5642 -0.0417
 5687TIP3   OH238475   5.750   0.438  14.370 -0.3823  0.5526  0.2952
 5687TIP3    H138476   5.674   0.381  14.372 -0.4587  0.6066 -0.7181
 5687TIP3    H238477   5.714   0.526  14.364 -0.2348  0.5332 -0.9271
 5688TIP3   OH238478   1.357   6.678  16.318  0.3546  0.1862  0.7378
 5688TIP3    H138479   1.365   6.585  16.341 -1.5638  0.0895  1.0845
 5688TIP3    H238480   1.267   6.700  16.340 -0.0753  1.3905 -2.0771
 5689TIP3   OH238481   3.966   4.227   5.503  0.5003 -0.5470  0.7414
 5689TIP3    H138482   4.040   4.167   5.516 -1.8348 -3.7298  0.0001
 5689TIP3    H238483   4.006   4.307   5.468  3.5233 -2.3940 -0.2522
 5690TIP3   OH238484   3.331   1.038   6.443 -0.0630  0.0527 -0.2523
 5690TIP3    H138485   3.389   0.964   6.464  0.3731  0.4814  0.0852
 5690TIP3    H238486   3.244   1.000   6.437  0.2849 -0.6406 -0.9763
 5691TIP3   OH238487   5.489   6.057  11.286 -0.1783 -0.6425  0.2184
 5691TIP3    H138488   5.465   6.146  11.261  0.8442 -0.6417 -0.8248
 5691TIP3    H238489   5.513   6.015  11.204 -1.0534 -2.0164  0.6539
 5692TIP3   OH238490   3.725   5.059   4.024 -0.1652  0.0652 -0.1817
 5692TIP3    H138491   3.722   5.141   4.072 -0.4773 -1.4915  2.5810
 5692TIP3    H238492   3.804   5.015   4.056 -0.7665 -1.3042 -0.5235
 5693TIP3   OH238493   2.526   2.851  16.912  0.9520 -0.7533 -0.3028
 5693TIP3    H138494   2.536   2.806  16.828  3.3589 -1.9419  0.5748
 5693TIP3    H238495   2.553   2.941  16.895  0.0253 -0.6205 -1.1221
 5694TIP3   OH238496   3.118   4.361   0.952  0.3567 -0.0180  0.3023
 5694TIP3    H138497   3.027   4.388   0.966 -0.4436 -1.9656 -0.9974
 5694TIP3    H238498   3.141   4.315   1.033  0.1817  0.4467  0.6223
 5695TIP3   OH238499   1.090   3.191   3.127 -0.2190 -0.5776  0.0728
 5695TIP3    H138500   1.183   3.213   3.136 -0.1410 -1.1836  0.7921
 5695TIP3    H238501   1.083   3.103   3.164 -1.1411 -0.4030  0.3126
 5696TIP3   OH238502   6.723   0.577   5.296  0.1818  0.5178 -0.3045
 5696TIP3    H138503   6.796   0.617   5.344  0.4068  0.3944 -0.5424
 5696TIP3    H238504   6.756   0.491   5.270 -0.3535  0.1198  0.3294
 5697TIP3   OH238505   0.798   2.821  13.414  0.8361 -0.0592 -0.1508
 5697TIP3    H138506   0.774   2.914  13.415 -0.9047 -0.4913  1.7669
 5697TIP3    H238507   0.893   2.821  13.409  1.0138  1.9017  2.1581
 5698TIP3   OH238508   6.536   2.006   2.608  0.1977 -0.6725  0.1752
 5698TIP3    H138509   6.488   1.930   2.576 -1.5350 -0.1586  1.4963
 5698TIP3    H238510   6.524   2.072   2.540  0.0522 -0.9250 -0.0491
 5699TIP3   OH238511   3.243   0.068   0.920  0.0414  0.2269 -0.3330
 5699TIP3    H138512   3.306   0.079   0.991  0.1988 -0.2769 -0.3894
 5699TIP3    H238513   3.268  -0.015   0.878 -1.1979 -0.4479  0.2042
 5700TIP3   OH238514   5.202   3.560   6.463 -0.0050 -0.2913  0.4849
 5700TIP3    H138515   5.173   3.550   6.373 -0.5531 -0.4686  0.6774
 5700TIP3    H238516   5.149   3.497   6.513  0.4008 -0.3065  0.9060
 5701TIP3   OH238517   4.571   3.198  16.413  0.7164  0.2209  0.1440
 5701TIP3    H138518   4.558   3.291  16.431  2.4605  0.6926 -0.9087
 5701TIP3    H238519   4.571   3.156  16.499  1.1364  1.3622  0.7100
 5702TIP3   OH238520   2.409   1.150  15.645  0.5352 -0.4439  0.4130
 5702TIP3    H138521   2.435   1.242  15.652  0.0233 -0.3034  0.5479
 5702TIP3    H238522   2.485   1.101  15.674  0.4625 -0.0330  1.3348
 5703TIP3   OH238523   3.723   3.430   5.269  0.0532 -0.2209  0.3910
 5703TIP3    H138524   3.689   3.394   5.351  1.1688 -1.5305  0.3169
 5703TIP3    H238525   3.760   3.515   5.294 -0.1020 -0.3662  1.1427
 5704TIP3   OH238526   3.532   5.350  13.832 -0.0418 -0.1050  0.0131
 5704TIP3    H138527   3.491   5.425  13.788  0.6225 -0.5485 -1.4048
 5704TIP3    H238528   3.465   5.282  13.831  0.4722 -0.6288 -1.7554
 5705TIP3   OH238529   6.042   4.732  16.211  0.2232  0.3326  0.1539
 5705TIP3    H138530   5.994   4.679  16.147  0.2717  0.6790 -0.1777
 5705TIP3    H238531   6.098   4.788  16.157  0.3310  0.5678  0.5076
 5706TIP3   OH238532   6.266   0.810  15.874  0.0443  0.1539  0.3506
 5706TIP3    H138533   6.171   0.817  15.869  0.1577  1.9936  0.3904
 5706TIP3    H238534   6.287   0.838  15.963  0.5853 -0.7507  0.5112
 5707TIP3   OH238535   2.698   6.431  12.790  0.0106 -0.0040 -0.3180
 5707TIP3    H138536   2.743   6.353  12.756 -1.9567 -0.5931 -1.7007
 5707TIP3    H238537   2.682   6.485  12.713 -0.3771  0.8566  0.3539
 5708TIP3   OH238538   0.022   2.810   6.087  0.2820 -0.0889  0.0355
 5708TIP3    H138539   0.105   2.856   6.073  1.0441 -1.4136  0.0730
 5708TIP3    H238540   0.038   2.721   6.055 -0.9246 -0.5361  0.6361
 5709TIP3   OH238541   4.954   3.489   1.690  0.0602  0.3511  0.2893
 5709TIP3    H138542   5.029   3.429   1.693 -1.2744 -1.3301  0.8375
 5709TIP3    H238543   4.881   3.433   1.665 -1.3883  1.5957  1.7125
 5710TIP3   OH238544   0.027   0.020   1.278  0.4564 -0.2413  0.3382
 5710TIP3    H138545  -0.030  -0.034   1.223  1.9138 -2.0646  0.5891
 5710TIP3    H238546   0.103   0.038   1.224  1.6857 -1.6399  1.5668
 5711TIP3   OH238547   6.197   0.207  15.088 -0.0189 -0.0101  0.5908
 5711TIP3    H138548   6.264   0.164  15.034 -0.2022  1.4306 -0.8005
 5711TIP3    H238549   6.235   0.208  15.176  0.7438 -1.4219  0.2979
 5712TIP3   OH238550   4.585   1.079  11.948 -0.2577  0.4409 -0.2892
 5712TIP3    H138551   4.679   1.089  11.958 -0.1338 -0.5663 -0.4202
 5712TIP3    H238552   4.560   1.016  12.016 -0.8269  0.6580 -0.2950
 5713TIP3   OH238553   1.680   1.292  10.935 -0.1814  0.4258 -0.2715
 5713TIP3    H138554   1.753   1.349  10.909 -0.2137  0.3497 -0.5283
 5713TIP3    H238555   1.611   1.352  10.962 -1.1646  0.6057 -2.9920
 5714TIP3   OH238556   4.401   2.097   4.505 -0.6198 -0.6382  0.3603
 5714TIP3    H138557   4.426   2.079   4.596  0.7623  1.2631  0.3939
 5714TIP3    H238558   4.358   2.183   4.509 -0.2554 -0.3921 -0.8237
 5715TIP3   OH238559   6.022   4.953   1.190  0.0312 -0.3008  0.1208
 5715TIP3    H138560   6.114   4.963   1.214 -0.4488  1.9695  1.0991
 5715TIP3    H238561   6.013   5.000   1.107 -0.4056  0.1736  0.4311
 5716TIP3   OH238562   2.498   3.426  14.829  0.2340 -0.3195 -0.1303
 5716TIP3    H138563   2.535   3.419  14.741  0.3654  1.5526 -0.2638
 5716TIP3    H238564   2.428   3.491  14.819  0.6019  0.2965  1.2570
 5717TIP3   OH238565   1.908   1.551  13.882 -0.1628  0.4692 -0.2332
 5717TIP3    H138566   1.994   1.528  13.846 -1.1870 -0.0396 -2.4012
 5717TIP3    H238567   1.883   1.630  13.834 -1.3290  0.0559 -0.3150
 5718TIP3   OH238568   1.055   0.982   4.056  0.1019 -0.3361 -0.3395
 5718TIP3    H138569   1.116   0.911   4.074 -1.1025 -1.6181 -1.2111
 5718TIP3    H238570   1.067   1.002   3.964 -1.7253 -1.5514 -0.8810
 5719TIP3   OH238571   0.558   0.919   4.858 -0.0418 -0.2198 -0.0849
 5719TIP3    H138572   0.612   0.887   4.787 -0.2161  1.8675 -1.2023
 5719TIP3    H238573   0.615   0.917   4.935  1.0675  0.2645 -0.8892
 5720TIP3   OH238574   2.873   1.557   5.824 -0.7540  0.0704 -0.0429
 5720TIP3    H138575   2.859   1.628   5.762 -0.9405 -0.6412 -0.8321
 5720TIP3    H238576   2.832   1.481   5.783  0.6743 -0.8137  0.1264
 5721TIP3   OH238577   4.928   6.041  15.700 -0.0699  0.8787 -0.3427
 5721TIP3    H138578   4.915   6.097  15.623  0.6795 -0.3001 -1.3462
 5721TIP3    H238579   4.854   6.062  15.757 -0.8564  1.5110 -1.5598
 5722TIP3   OH238580   4.593   3.247  13.983 -0.3415  0.1385 -0.1120
 5722TIP3    H138581   4.618   3.189  14.054 -0.3167 -1.2287 -1.2102
 5722TIP3    H238582   4.665   3.242  13.921  0.4701  2.7069  0.5411
 5723TIP3   OH238583   4.319   6.473  17.023  0.0134 -0.2307 -0.0678
 5723TIP3    H138584   4.237   6.471  16.973 -0.5014  0.7567  0.7401
 5723TIP3    H238585   4.387   6.479  16.956 -0.5806 -0.7370 -0.7298
 5724TIP3   OH238586   3.209   6.593   2.495  0.2941  0.0965 -0.0429
 5724TIP3    H138587   3.233   6.685   2.492 -1.0329  0.4715  0.4372
 5724TIP3    H238588   3.142   6.583   2.428 -1.3708  0.0527  1.5877
 5725TIP3   OH238589   2.182   6.070   5.612  0.2519 -0.2649 -0.1922
 5725TIP3    H138590   2.176   5.975   5.625  1.0637 -0.5199 -1.5017
 5725TIP3    H238591   2.092   6.101   5.618 -0.4733 -1.6131 -3.0638
 5726TIP3   OH238592   2.614   5.282  12.844  0.5761  0.6407 -0.1583
 5726TIP3    H138593   2.672   5.216  12.805  0.6063  0.7938 -0.3725
 5726TIP3    H238594   2.672   5.337  12.896  0.5582  0.5256 -0.0179
 5727TIP3   OH238595   5.904   2.620  11.365 -0.3341 -0.0239 -0.6192
 5727TIP3    H138596   5.846   2.669  11.307 -1.0202  0.3680  0.3882
 5727TIP3    H238597   5.979   2.598  11.310 -1.2988 -0.2984 -1.8556
 5728TIP3   OH238598   5.531   2.575  14.657 -0.2849 -0.7613 -0.3776
 5728TIP3    H138599   5.585   2.650  14.632 -0.1327 -0.6194  0.3638
 5728TIP3    H238600   5.512   2.589  14.750 -3.2067  0.2048 -1.0522
 5729TIP3   OH238601   3.627   5.921  12.816  0.1548 -0.1697  0.0300
 5729TIP3    H138602   3.608   5.837  12.776  0.7488 -0.0765 -0.4550
 5729TIP3    H238603   3.650   5.978  12.742 -0.3968  0.4562  0.3391
 5730TIP3   OH238604   0.249   3.246  10.508  0.5075  0.1003 -0.0998
 5730TIP3    H138605   0.212   3.209  10.428  0.4332 -1.6993  0.7443
 5730TIP3    H238606   0.309   3.178  10.540 -0.8606  0.0215  2.3705
 5731TIP3   OH238607   2.313   1.943  14.075 -0.0581  0.2536  0.0465
 5731TIP3    H138608   2.386   1.892  14.042 -1.1593  0.3259 -2.6913
 5731TIP3    H238609   2.353   2.014  14.125  1.8006  0.7817 -2.1098
 5732TIP3   OH238610   5.341   6.197  14.518 -0.0737 -0.4615  0.1548
 5732TIP3    H138611   5.397   6.221  14.444  0.2808  0.5435  0.7388
 5732TIP3    H238612   5.342   6.101  14.520 -0.2070 -0.5002 -1.2347
 5733TIP3   OH238613   1.067   4.802   5.289  0.4482 -0.0938  0.1663
 5733TIP3    H138614   1.126   4.730   5.308  0.2335 -0.3879 -0.2729
 5733TIP3    H238615   1.016   4.814   5.370 -0.4621 -1.3335 -0.2205
 5734TIP3   OH238616   6.456   6.784  12.962  0.6968  0.8515  0.7134
 5734TIP3    H138617   6.413   6.806  12.879 -0.7548 -1.6000  0.7371
 5734TIP3    H238618   6.549   6.793  12.944  0.4046  0.1297 -1.2918
 5735TIP3   OH238619   2.853   0.302  13.840 -0.4561  0.6161  0.1443
 5735TIP3    H138620   2.829   0.394  13.847  0.9165  0.9399  0.8958
 5735TIP3    H238621   2.832   0.278  13.750 -0.9467  1.6310 -0.0187
 5736TIP3   OH238622   0.469   0.716   1.393  0.3801 -0.5814 -0.1896
 5736TIP3    H138623   0.474   0.782   1.462 -3.3135 -0.8464  0.4710
 5736TIP3    H238624   0.450   0.765   1.313 -2.0386 -0.7226  0.2444
 5737TIP3   OH238625   3.457   4.302   6.161 -0.4475 -0.0411  0.4785
 5737TIP3    H138626   3.423   4.386   6.128 -1.5355  0.1654  2.0789
 5737TIP3    H238627   3.385   4.265   6.211  0.0695 -1.9114 -0.1320
 5738TIP3   OH238628   4.165   4.959  12.872 -0.3031  0.7778  0.2591
 5738TIP3    H138629   4.107   4.932  12.943 -0.6086  2.3116  0.6096
 5738TIP3    H238630   4.106   4.981  12.800  0.0536 -2.1947 -1.0257
 5739TIP3   OH238631   2.429   3.626  12.585  0.3297 -0.0736 -0.0359
 5739TIP3    H138632   2.443   3.644  12.678 -0.6287  4.9548 -0.7412
 5739TIP3    H238633   2.335   3.636  12.572  0.8113  2.5447 -2.0539
 5740TIP3   OH238634   3.435   1.888  10.588  0.7542  0.5334  0.1975
 5740TIP3    H138635   3.365   1.868  10.526 -1.3258  0.2468  2.6051
 5740TIP3    H238636   3.455   1.804  10.629  0.0624  1.2537  2.0253
 5741TIP3   OH238637   0.280   0.656   4.283  0.1733  0.1533  0.0714
 5741TIP3    H138638   0.233   0.593   4.338 -0.5634  1.5659  1.0738
 5741TIP3    H238639   0.299   0.729   4.341  2.5409  0.1399 -0.6447
 5742TIP3   OH238640   1.611   1.327   1.065 -1.0035 -0.3851 -0.2423
 5742TIP3    H138641   1.706   1.322   1.080 -0.7290  0.4791 -1.6129
 5742TIP3    H238642   1.584   1.235   1.059 -0.1286 -0.6381 -0.5389
 5743TIP3   OH238643   0.966   4.942  11.579 -0.1003 -0.2858 -0.0185
 5743TIP3    H138644   0.901   4.970  11.644 -0.7021  0.3460 -0.8852
 5743TIP3    H238645   0.917   4.890  11.516  0.0178  1.0799 -1.2639
 5744TIP3   OH238646   3.873   0.385  11.361 -0.0656  0.0373 -0.9683
 5744TIP3    H138647   3.900   0.425  11.443  1.1473 -0.6709 -1.0182
 5744TIP3    H238648   3.877   0.456  11.297 -2.1177  0.8800 -0.2256
 5745TIP3   OH238649   4.667   3.275   4.673 -0.4412 -0.5245  0.5786
 5745TIP3    H138650   4.696   3.270   4.582 -0.3999  0.8257  0.5015
 5745TIP3    H238651   4.686   3.189   4.709  1.7389 -0.3334 -0.0465
 5746TIP3   OH238652   5.780   3.609  10.603  0.0893  0.3163  0.2330
 5746TIP3    H138653   5.811   3.665  10.674  1.8676  0.9976 -1.0452
 5746TIP3    H238654   5.695   3.646  10.579  1.5051  2.9625 -1.0164
 5747TIP3   OH238655   5.879   6.290  15.800 -0.2117  0.3837  0.1764
 5747TIP3    H138656   5.813   6.277  15.732 -0.5994  0.1703  0.5895
 5747TIP3    H238657   5.943   6.350  15.761  0.0873 -0.5110 -0.7200
 5748TIP3   OH238658   3.487   3.337  14.754  0.1356 -0.1926 -0.1220
 5748TIP3    H138659   3.407   3.387  14.770  0.6528  0.8589 -0.8356
 5748TIP3    H238660   3.457   3.245  14.753 -1.2378  0.2388 -1.3699
 5749TIP3   OH238661   2.980   2.528   1.516  0.2509  0.1693 -0.3226
 5749TIP3    H138662   2.932   2.570   1.588 -0.4188 -0.5401 -0.3575
 5749TIP3    H238663   2.948   2.572   1.437  1.8547  1.7822 -0.1035
 5750TIP3   OH238664   2.359   4.805   0.628  0.1372 -0.5413 -0.2298
 5750TIP3    H138665   2.372   4.781   0.719  1.0348  0.6067 -0.0487
 5750TIP3    H238666   2.388   4.729   0.578 -0.2120 -1.1101  0.4233
 5751TIP3   OH238667   5.385   5.770   4.751  0.0118  0.1005 -0.0753
 5751TIP3    H138668   5.454   5.792   4.689 -2.0389  0.9731 -2.1000
 5751TIP3    H238669   5.421   5.796   4.836  1.8187  1.3801 -1.1964
 5752TIP3   OH238670   1.700   5.652   1.251 -0.0662 -0.2737 -0.3281
 5752TIP3    H138671   1.786   5.611   1.262 -0.8565 -1.9343 -0.2336
 5752TIP3    H238672   1.661   5.608   1.176 -1.4761 -0.6719  0.6011
 5753TIP3   OH238673   3.697   2.810  12.873 -1.0556  0.4399  0.2933
 5753TIP3    H138674   3.784   2.844  12.856 -0.7097 -1.0829 -1.1932
 5753TIP3    H238675   3.642   2.887  12.887  0.6153  1.3785  1.7434
 5754TIP3   OH238676   4.395   2.508   3.968 -0.0580 -0.0310 -0.2376
 5754TIP3    H138677   4.340   2.539   4.039 -1.0492  0.1277 -1.0771
 5754TIP3    H238678   4.360   2.549   3.889  1.2269  0.0418 -0.7847
 5755TIP3   OH238679   2.779   2.372   2.745  0.1445 -0.5784  0.0366
 5755TIP3    H138680   2.836   2.440   2.781 -1.1605  0.5149  0.0767
 5755TIP3    H238681   2.839   2.302   2.717  1.5421  0.7914 -0.4554
 5756TIP3   OH238682   5.734   0.774  15.808  0.1025 -0.6493  0.2869
 5756TIP3    H138683   5.727   0.800  15.899  0.8724  0.9297 -0.0804
 5756TIP3    H238684   5.734   0.679  15.810  0.5719 -0.6308  1.9789
 5757TIP3   OH238685   3.371   2.147  11.280 -0.6417 -0.5219 -0.0114
 5757TIP3    H138686   3.395   2.055  11.296  0.1272 -0.2742  0.2653
 5757TIP3    H238687   3.284   2.155  11.318 -0.3841 -0.9322  0.6914
 5758TIP3   OH238688   0.138   4.636  11.130  0.2015  0.7404 -0.0366
 5758TIP3    H138689   0.057   4.586  11.122 -1.0339  2.5496  0.8356
 5758TIP3    H238690   0.157   4.665  11.041  1.6972 -2.3702 -0.8079
 5759TIP3   OH238691   6.778   1.868  12.144  0.1851 -0.2650 -0.9340
 5759TIP3    H138692   6.873   1.879  12.138  0.1669 -0.0750 -0.8565
 5759TIP3    H238693   6.745   1.906  12.062  0.2778 -1.4979 -1.5642
 5760TIP3   OH238694   3.477   1.382   0.033  0.2035  0.3158  0.5448
 5760TIP3    H138695   3.418   1.437  -0.019 -0.1108 -1.5427 -1.1285
 5760TIP3    H238696   3.539   1.346  -0.031  0.2500 -1.4670  1.5548
 5761TIP3   OH238697   1.230   0.982  13.577 -0.2790  0.3412 -0.3766
 5761TIP3    H138698   1.220   0.894  13.542 -0.2137 -0.1426  0.7852
 5761TIP3    H238699   1.226   1.039  13.501 -1.2087 -0.6036 -1.0480
 5762TIP3   OH238700   5.434   2.120  11.467 -0.4525 -0.3245 -0.4993
 5762TIP3    H138701   5.454   2.124  11.373  0.3816  0.8943 -0.2806
 5762TIP3    H238702   5.499   2.178  11.507 -0.5911 -1.1022  0.8650
 5763TIP3   OH238703   5.370   2.827   3.849 -0.6547  0.4284 -0.3241
 5763TIP3    H138704   5.339   2.912   3.818 -0.4898  1.6705  2.7551
 5763TIP3    H238705   5.449   2.848   3.899  0.2676 -1.7250 -0.8503
 5764TIP3   OH238706   1.053   6.489  13.856 -0.4485 -0.6382  0.2574
 5764TIP3    H138707   1.076   6.421  13.793 -0.9543 -0.6482  0.0842
 5764TIP3    H238708   1.137   6.531  13.877 -0.4086  0.0138 -1.1729
 5765TIP3   OH238709   3.642   6.287   4.852 -0.5030  0.2705  0.2621
 5765TIP3    H138710   3.549   6.291   4.875 -0.4945 -0.0072  0.3494
 5765TIP3    H238711   3.652   6.346   4.777 -1.4253 -2.3803 -2.0153
 5766TIP3   OH238712   3.894   5.495  14.882 -0.5882 -0.1949  0.0811
 5766TIP3    H138713   3.879   5.475  14.789  0.1710 -0.0063 -0.0817
 5766TIP3    H238714   3.975   5.545  14.883 -1.1117  0.6506  0.7540
 5767TIP3   OH238715   6.238   4.615   5.572  0.2427 -0.2878  0.1725
 5767TIP3    H138716   6.307   4.672   5.540  0.2041 -0.0517  0.5075
 5767TIP3    H238717   6.242   4.538   5.515 -1.6163  1.2833 -2.2159
 5768TIP3   OH238718   2.158   4.529  12.973  1.2330 -0.1323  0.2455
 5768TIP3    H138719   2.244   4.487  12.970  2.5029  2.4178 -1.9178
 5768TIP3    H238720   2.095   4.458  12.957  2.8737 -2.0492  1.9884
 5769TIP3   OH238721   5.875   3.540   5.163  0.0421 -0.2864 -0.0897
 5769TIP3    H138722   5.929   3.619   5.154  0.9941 -0.8945  0.1476
 5769TIP3    H238723   5.814   3.561   5.234 -0.2173  0.5032 -0.5308
 5770TIP3   OH238724   3.224   6.469   4.706  0.1760  0.2046 -0.1221
 5770TIP3    H138725   3.242   6.563   4.700 -0.5921  0.3624 -0.0556
 5770TIP3    H238726   3.284   6.437   4.773  0.6051  0.6052 -0.3098
 5771TIP3   OH238727   1.150   1.875  13.849 -0.2266  0.6150 -0.1246
 5771TIP3    H138728   1.237   1.892  13.813  0.3710 -0.7207  0.6663
 5771TIP3    H238729   1.149   1.923  13.932  0.5912 -1.1340  0.9427
 5772TIP3   OH238730   0.867   4.260   3.478  0.5004  0.2633 -0.2793
 5772TIP3    H138731   0.823   4.176   3.462 -2.0327  1.6191 -0.6587
 5772TIP3    H238732   0.869   4.268   3.573 -0.8846  0.5956 -0.2755
 5773TIP3   OH238733   2.563   4.315  14.226  0.1129 -0.6610 -0.1175
 5773TIP3    H138734   2.549   4.329  14.319 -0.9031  2.0710 -0.6437
 5773TIP3    H238735   2.494   4.366  14.183  1.9997  0.0749 -2.3980
 5774TIP3   OH238736   3.978   6.154  14.074  0.5154  0.2600 -0.1709
 5774TIP3    H138737   4.058   6.128  14.029  1.7243  1.7732  1.0245
 5774TIP3    H238738   3.988   6.248  14.089 -0.5164  0.0887  1.8582
 5775TIP3   OH238739   0.980   6.079   1.735  0.0986 -0.2366  0.1138
 5775TIP3    H138740   0.982   6.174   1.736  1.2773 -0.2647  0.8685
 5775TIP3    H238741   1.011   6.055   1.648 -0.5798  0.0647 -0.2174
 5776TIP3   OH238742   5.226   4.715   3.367 -0.6054  0.2072 -0.1103
 5776TIP3    H138743   5.236   4.781   3.436  1.2000  0.5493 -0.6766
 5776TIP3    H238744   5.179   4.760   3.297 -0.8891  0.3736  0.1826
 5777TIP3   OH238745   0.366   1.956  11.545 -0.0739  0.0076 -0.5803
 5777TIP3    H138746   0.371   2.048  11.521  0.6164  0.2497  0.4513
 5777TIP3    H238747   0.281   1.927  11.512 -0.2731  1.0009 -0.9505
 5778TIP3   OH238748   5.623   2.512   3.211  0.0455  0.0966  0.3567
 5778TIP3    H138749   5.666   2.596   3.227  2.2668 -1.1472  1.2169
 5778TIP3    H238750   5.668   2.477   3.134 -0.1084 -0.7922  0.6693
 5779TIP3   OH238751   6.546   1.846   5.598  0.2003  0.3686  0.4509
 5779TIP3    H138752   6.641   1.836   5.606 -0.0383 -0.6524  2.2287
 5779TIP3    H238753   6.531   1.940   5.603  1.0432  0.4675  1.3060
 5780TIP3   OH238754   5.397   1.153  14.774  0.0462 -0.6232  0.7727
 5780TIP3    H138755   5.482   1.195  14.761 -0.0666 -0.4746  0.5246
 5780TIP3    H238756   5.390   1.142  14.869 -0.4494  1.0143  0.9334
 5781TIP3   OH238757   0.482   1.832  15.535 -0.2733  0.2573  0.0947
 5781TIP3    H138758   0.483   1.804  15.627 -0.7276 -0.8643 -0.2380
 5781TIP3    H238759   0.500   1.926  15.539  3.0724 -0.3599  1.1006
 5782TIP3   OH238760   6.470   3.816   3.320  0.4845  0.8704 -0.1404
 5782TIP3    H138761   6.485   3.899   3.364  0.9651 -0.0140  1.4028
 5782TIP3    H238762   6.392   3.780   3.362  0.6593  0.2337 -0.3507
 5783TIP3   OH238763   4.138   3.908  14.134  0.2841  0.0657 -0.0563
 5783TIP3    H138764   4.167   3.976  14.195  1.3783 -1.1209  0.7925
 5783TIP3    H238765   4.213   3.895  14.076 -0.3293  0.3605 -0.9253
 5784TIP3   OH238766   1.806   3.687  15.988 -0.4086  0.6371  0.0075
 5784TIP3    H138767   1.817   3.781  16.006 -1.6447  0.9829 -1.0206
 5784TIP3    H238768   1.712   3.673  15.986 -0.3074 -0.0240 -2.8314
 5785TIP3   OH238769   0.281   3.775   3.271  0.4096 -0.4175 -0.0254
 5785TIP3    H138770   0.326   3.758   3.188 -0.6673  0.2868 -0.7682
 5785TIP3    H238771   0.203   3.824   3.246  0.2216  0.0528  1.4414
 5786TIP3   OH238772   6.433   4.860  11.443 -0.0708 -0.7310 -0.3375
 5786TIP3    H138773   6.400   4.949  11.457 -1.5748 -1.3799  0.3422
 5786TIP3    H238774   6.528   4.869  11.447 -0.1765  0.9924 -1.1888
 5787TIP3   OH238775   0.055   0.952  11.726 -1.2371 -0.1715  0.4458
 5787TIP3    H138776   0.033   1.027  11.670 -1.6174  1.1991  2.4000
 5787TIP3    H238777   0.026   0.977  11.813  2.2852 -0.8835  1.9306
 5788TIP3   OH238778   3.780   0.984  15.663  0.5641 -0.2426  0.4194
 5788TIP3    H138779   3.696   1.011  15.699  0.4250 -0.9796  0.6619
 5788TIP3    H238780   3.812   0.917  15.724  0.2160 -1.6848 -0.9293
 5789TIP3   OH238781   3.331   5.789  12.935 -0.5500 -0.4594  0.0505
 5789TIP3    H138782   3.278   5.761  12.860 -2.2250 -1.9897  1.7764
 5789TIP3    H238783   3.364   5.875  12.909 -5.0791  1.2644 -0.5805
 5790TIP3   OH238784   4.848   2.133  14.241  0.1167  0.3060 -0.2789
 5790TIP3    H138785   4.778   2.139  14.305  0.3715 -1.8832  0.2501
 5790TIP3    H238786   4.804   2.127  14.157 -0.2981  0.1435 -0.0498
 5791TIP3   OH238787   6.393   0.094   1.214 -0.7894  0.4493  0.8365
 5791TIP3    H138788   6.392  -0.001   1.222 -1.7517  0.5346  1.7725
 5791TIP3    H238789   6.450   0.123   1.286  1.3994  0.4668 -0.8470
 5792TIP3   OH238790   6.780   0.648   3.500  0.6384  0.1467  0.2734
 5792TIP3    H138791   6.737   0.570   3.536  2.0741 -0.7465  0.1178
 5792TIP3    H238792   6.874   0.629   3.507  0.9889  1.2559 -1.0800
 5793TIP3   OH238793   0.081   0.565  15.450  0.4659  0.0484  0.0593
 5793TIP3    H138794   0.005   0.533  15.402  1.2974 -0.8243 -0.6920
 5793TIP3    H238795   0.147   0.582  15.383  0.2048  3.0110  0.4485
 5794TIP3   OH238796   4.268   2.629  11.499  0.1502 -0.4935 -0.1184
 5794TIP3    H138797   4.192   2.685  11.486 -0.2965 -1.0203  0.1779
 5794TIP3    H238798   4.281   2.586  11.415 -0.1120 -0.6815 -0.0648
 5795TIP3   OH238799   6.461   6.392   0.166  0.2515 -0.0330 -0.1024
 5795TIP3    H138800   6.367   6.412   0.168 -0.1123 -1.6518 -0.7198
 5795TIP3    H238801   6.503   6.474   0.194 -1.3466  0.6012  0.4955
 5796TIP3   OH238802   0.586   2.720   1.961 -0.7225  0.1263 -0.1376
 5796TIP3    H138803   0.578   2.809   1.928  1.0973 -0.3129 -1.8403
 5796TIP3    H238804   0.619   2.669   1.887  0.1058 -1.5854  1.3443
 5797TIP3   OH238805   0.969   4.468   1.295  0.1034 -0.3137 -0.0927
 5797TIP3    H138806   1.030   4.541   1.285  0.1731 -0.3200  0.2893
 5797TIP3    H238807   0.993   4.428   1.379 -0.4881 -0.2604  0.1019
 5798TIP3   OH238808   3.959   3.204  12.930  0.1672 -0.4523 -0.3939
 5798TIP3    H138809   3.902   3.161  12.993 -0.0104 -0.7911 -0.7760
 5798TIP3    H238810   3.915   3.192  12.846 -0.3156  1.2532 -0.3895
 5799TIP3   OH238811   2.128   5.938   5.064 -0.2256  0.1402 -0.1070
 5799TIP3    H138812   2.123   5.902   5.152  0.6451  0.1074 -0.0692
 5799TIP3    H238813   2.213   5.983   5.060 -0.6438  0.9066 -0.6366
 5800TIP3   OH238814   1.372   5.200  16.209  0.0868 -0.8487  0.0861
 5800TIP3    H138815   1.298   5.157  16.167 -0.3262 -0.4592  0.4213
 5800TIP3    H238816   1.434   5.129  16.227  1.0855 -0.8061 -2.8663
 5801TIP3   OH238817   4.476   0.906  15.038  0.5167 -0.1403  0.4742
 5801TIP3    H138818   4.515   0.975  14.984 -0.0535  0.2391  0.5483
 5801TIP3    H238819   4.431   0.849  14.976 -0.3730  0.4498  0.5729
 5802TIP3   OH238820   4.835   4.534  10.517 -0.4599  0.5384  0.0825
 5802TIP3    H138821   4.833   4.622  10.555 -0.7159  0.5808 -0.0253
 5802TIP3    H238822   4.783   4.480  10.577 -0.7607  0.5795 -0.1393
 5803TIP3   OH238823   4.693   2.273   4.360  0.4610  0.1058  0.3155
 5803TIP3    H138824   4.704   2.342   4.425  0.2246 -1.3924  1.9781
 5803TIP3    H238825   4.778   2.268   4.316  1.8048 -1.2459  2.9341
 5804TIP3   OH238826   4.651   2.003  11.482 -0.5489 -0.4676  0.0350
 5804TIP3    H138827   4.611   2.009  11.569 -0.4972  1.7813 -0.0819
 5804TIP3    H238828   4.726   2.062  11.486 -1.0151  0.2736 -1.7897
 5805TIP3   OH238829   1.177   6.405  11.166  0.9740  0.4516  0.1725
 5805TIP3    H138830   1.185   6.384  11.259 -0.4522 -0.3401  0.1316
 5805TIP3    H238831   1.169   6.319  11.124 -0.6464  0.8926 -0.4412
 5806TIP3   OH238832   6.454   5.813   5.490  0.1827 -0.4534  0.1135
 5806TIP3    H138833   6.496   5.787   5.572 -1.8874  0.1529  1.4011
 5806TIP3    H238834   6.420   5.731   5.453  0.3869 -0.6156  0.2864
 5807TIP3   OH238835   1.497   2.682   3.107  0.4179 -0.4685  0.0123
 5807TIP3    H138836   1.435   2.611   3.091 -0.4037 -0.0641  1.3247
 5807TIP3    H238837   1.448   2.762   3.092  0.8832 -0.1569  0.1281
 5808TIP3   OH238838   4.831   4.201  12.291 -0.2299  0.5778  0.2404
 5808TIP3    H138839   4.910   4.197  12.236 -0.2930 -1.9281  0.2456
 5808TIP3    H238840   4.804   4.110  12.299 -1.3575  1.0963  2.8069
 5809TIP3   OH238841   2.036   6.340  15.149  0.2976  0.0569 -0.3218
 5809TIP3    H138842   2.003   6.421  15.189 -0.0141 -0.4458  0.4474
 5809TIP3    H238843   2.015   6.272  15.212 -0.0489 -0.7347 -1.2834
 5810TIP3   OH238844   4.891   0.717  13.964  0.4190  0.5071 -0.5186
 5810TIP3    H138845   4.983   0.734  13.943  0.4505  0.0337 -0.7706
 5810TIP3    H238846   4.843   0.786  13.918  0.7067  1.2791  0.3163
 5811TIP3   OH238847   3.856   2.252  15.155 -0.3943 -0.2149  0.5144
 5811TIP3    H138848   3.896   2.274  15.239 -0.0689  1.8515 -0.1364
 5811TIP3    H238849   3.880   2.325  15.097  0.3333 -2.1363 -1.6947
 5812TIP3   OH238850   3.815   4.886  12.944  0.6668 -0.2411 -0.8109
 5812TIP3    H138851   3.863   4.833  13.007 -1.1823 -1.2098 -0.1932
 5812TIP3    H238852   3.784   4.824  12.878 -0.9612  0.1274 -0.4208
 5813TIP3   OH238853   4.820   2.501   3.093  0.0399  0.2315 -0.1727
 5813TIP3    H138854   4.849   2.486   3.183 -0.8250 -1.3216 -0.1401
 5813TIP3    H238855   4.899   2.490   3.040  0.4493  0.6629  0.3362
 5814TIP3   OH238856   0.234   3.420  13.197  0.2951  0.5590 -0.0346
 5814TIP3    H138857   0.316   3.372  13.203  0.1602  0.2063 -0.9841
 5814TIP3    H238858   0.242   3.490  13.262  0.8247 -0.2373  0.7575
 5815TIP3   OH238859   4.630   3.884   0.269 -0.1197  0.0843 -0.1374
 5815TIP3    H138860   4.541   3.907   0.296  0.3391  0.5751  0.9919
 5815TIP3    H238861   4.665   3.966   0.233  0.1752  0.1142  0.2240
 5816TIP3   OH238862   3.547   5.775  13.265 -0.0753 -0.1803  0.0900
 5816TIP3    H138863   3.640   5.756  13.257 -0.4768 -0.9847 -3.0740
 5816TIP3    H238864   3.510   5.695  13.304  0.7798  0.8738  3.2204
 5817TIP3   OH238865   5.792   3.223  11.360 -0.2624 -0.4464  0.8631
 5817TIP3    H138866   5.793   3.185  11.272  0.8853 -1.2668  1.2090
 5817TIP3    H238867   5.853   3.169  11.410 -1.9366 -0.8717  2.5380
 5818TIP3   OH238868   1.093   4.895  17.111  0.3209 -0.5492 -0.6511
 5818TIP3    H138869   0.997   4.891  17.107  0.2753 -0.2758  0.1689
 5818TIP3    H238870   1.120   4.905  17.019 -0.5641  2.4000 -0.6415
 5819TIP3   OH238871   1.240   2.604  12.028 -0.2543  0.2057 -0.2735
 5819TIP3    H138872   1.290   2.548  12.088  0.2495 -1.3014 -2.0566
 5819TIP3    H238873   1.165   2.550  12.003 -0.4027  0.7876 -1.0819
 5820TIP3   OH238874   2.271   4.112   0.830 -0.1681 -0.5331  0.8548
 5820TIP3    H138875   2.307   4.193   0.866  1.5353 -0.9367  0.1203
 5820TIP3    H238876   2.346   4.052   0.827 -1.1720 -1.7713  0.3685
 5821TIP3   OH238877   6.768   4.676  11.715 -0.2402 -0.7782 -0.2530
 5821TIP3    H138878   6.752   4.584  11.692 -0.1359 -0.8238 -0.1427
 5821TIP3    H238879   6.838   4.672  11.780 -0.3007 -0.6253 -0.1808
 5822TIP3   OH238880   4.134   4.960   2.823 -0.3367 -0.5091  0.4359
 5822TIP3    H138881   4.183   5.013   2.760 -0.1700  0.0854  1.0710
 5822TIP3    H238882   4.084   5.023   2.874  0.2621 -0.9094  1.5353
 5823TIP3   OH238883   5.505   1.840   4.284  0.3582  0.0638  0.0497
 5823TIP3    H138884   5.554   1.841   4.202  0.7060  0.6671  0.2603
 5823TIP3    H238885   5.488   1.932   4.304 -1.3737 -0.1711 -0.3044
 5824TIP3   OH238886   6.430   0.877  16.559  0.1183 -0.5719  0.0478
 5824TIP3    H138887   6.406   0.965  16.531 -2.9419 -1.6473 -0.8878
 5824TIP3    H238888   6.367   0.856  16.629  0.8380 -1.9967  0.2855
 5825TIP3   OH238889   0.494   5.194  11.918 -0.2237 -0.3419 -0.2953
 5825TIP3    H138890   0.473   5.124  11.980 -0.1395  0.6400  0.8691
 5825TIP3    H238891   0.549   5.254  11.969 -0.1040  0.4480 -1.3565
 5826TIP3   OH238892   1.602   6.097  16.293  0.0843 -0.1225  0.2208
 5826TIP3    H138893   1.682   6.147  16.314 -0.0537  1.1623 -2.1397
 5826TIP3    H238894   1.569   6.137  16.213 -1.9281 -1.8663  0.1313
 5827TIP3   OH238895   3.343   1.129  16.490 -0.0681  0.0425 -0.3041
 5827TIP3    H138896   3.395   1.147  16.568  2.1207 -0.4966 -1.6048
 5827TIP3    H238897   3.391   1.060  16.444 -1.6196 -0.0490 -1.8615
 5828TIP3   OH238898   6.518   3.383   2.541  0.7194 -0.0142 -0.6051
 5828TIP3    H138899   6.504   3.299   2.585 -0.9521  1.8819  2.5884
 5828TIP3    H238900   6.609   3.378   2.509  0.3424 -3.3828 -1.3650
 5829TIP3   OH238901   6.535   5.191  14.168 -0.1345 -0.5946  0.2884
 5829TIP3    H138902   6.502   5.139  14.095  0.6280 -1.2174  0.3676
 5829TIP3    H238903   6.457   5.226  14.211 -0.6014 -0.5616 -0.5757
 5830TIP3   OH238904   5.595   0.535  12.177  0.5758  0.3845 -0.7782
 5830TIP3    H138905   5.678   0.582  12.189  0.6093  0.2023 -0.2678
 5830TIP3    H238906   5.604   0.458  12.233 -0.0232  0.4680 -0.5639
 5831TIP3   OH238907   4.224   3.864   5.003 -0.3118 -0.6220  0.2465
 5831TIP3    H138908   4.317   3.847   4.985  0.2128  0.8943  1.4256
 5831TIP3    H238909   4.216   3.959   4.998 -1.4454 -0.6184  1.8810
 5832TIP3   OH238910   6.707   4.804   3.658  0.1280  0.1370 -0.0679
 5832TIP3    H138911   6.639   4.858   3.618  0.3963  0.9466  0.5582
 5832TIP3    H238912   6.765   4.782   3.585 -0.9182 -0.7471 -0.6457
 5833TIP3   OH238913   6.342   6.253   2.644 -0.6496  0.3719  0.0587
 5833TIP3    H138914   6.312   6.291   2.562  2.0876 -0.0642 -1.2049
 5833TIP3    H238915   6.368   6.328   2.698 -0.6986  0.5586 -0.1802
 5834TIP3   OH238916   5.691   1.522  15.339 -0.0517  0.1309  0.5539
 5834TIP3    H138917   5.601   1.542  15.361 -0.2568 -1.1655  0.9572
 5834TIP3    H238918   5.742   1.553  15.413 -0.3128 -0.3604  0.9426
 5835TIP3   OH238919   4.065   0.937  12.412  0.0866 -0.2667 -0.0641
 5835TIP3    H138920   4.139   0.876  12.413  0.4009 -0.0285 -3.3642
 5835TIP3    H238921   3.989   0.881  12.399  0.0054 -0.2329  0.2572
 5836TIP3   OH238922   6.415   2.515   1.569  0.1349  1.3783 -0.1146
 5836TIP3    H138923   6.481   2.519   1.499 -2.4141  0.4018 -2.6634
 5836TIP3    H238924   6.454   2.565   1.641  4.1418 -0.1269 -1.0961
 5837TIP3   OH238925   3.006   5.488  13.490 -0.3308  0.1678  0.3064
 5837TIP3    H138926   3.034   5.413  13.543 -0.2589 -1.7836 -2.3591
 5837TIP3    H238927   3.088   5.533  13.469 -0.1859 -0.0329  0.4323
 5838TIP3   OH238928   2.728   5.623   4.563 -0.3480  0.0579 -0.0745
 5838TIP3    H138929   2.764   5.689   4.503  0.2419 -0.8027 -0.6890
 5838TIP3    H238930   2.797   5.610   4.628 -0.6530  0.3812  0.3182
 5839TIP3   OH238931   2.082   5.439   5.128  0.4488  0.1087 -0.1022
 5839TIP3    H138932   2.059   5.378   5.059  1.1550  0.2142 -0.4418
 5839TIP3    H238933   2.147   5.497   5.087  1.1982 -0.1009  0.7744
 5840TIP3   OH238934   2.629   0.565  12.029  0.0152 -0.3347 -0.1258
 5840TIP3    H138935   2.637   0.472  12.051  0.7314 -0.6209 -1.5039
 5840TIP3    H238936   2.709   0.604  12.064  0.0939 -0.3865 -0.2464
 5841TIP3   OH238937   3.017   0.680  14.656 -0.7511  0.0230 -0.1851
 5841TIP3    H138938   3.001   0.738  14.582 -0.8551  2.3979  1.6426
 5841TIP3    H238939   2.939   0.625  14.661 -0.4284 -0.6583 -2.2427
 5842TIP3   OH238940   2.508   0.347  11.783 -0.7571 -0.1468  0.1716
 5842TIP3    H138941   2.545   0.264  11.813  0.8566 -0.2527 -1.9416
 5842TIP3    H238942   2.458   0.324  11.704  1.0371  1.0600 -1.3615
 5843TIP3   OH238943   0.146   0.462   2.676 -0.3107 -0.1933  0.1158
 5843TIP3    H138944   0.110   0.547   2.650  0.9085  0.8829  1.8155
 5843TIP3    H238945   0.078   0.423   2.731 -2.6834 -2.2604 -4.0394
 5844TIP3   OH238946   2.073   1.676  11.916 -0.1162  0.1942  0.0648
 5844TIP3    H138947   2.138   1.691  11.847  0.0120 -1.3204 -0.1682
 5844TIP3    H238948   2.093   1.588  11.949 -1.4833  0.0725  0.6035
 5845TIP3   OH238949   5.595   4.984  14.580 -0.2449 -0.3345  0.0092
 5845TIP3    H138950   5.568   5.007  14.491  0.6391 -0.0303 -0.1820
 5845TIP3    H238951   5.525   5.019  14.636  0.2522  1.3726 -0.4022
 5846TIP3   OH238952   5.193   6.507  16.878  0.4893 -0.4849 -0.0938
 5846TIP3    H138953   5.189   6.578  16.942 -0.2328 -1.7615  1.3182
 5846TIP3    H238954   5.286   6.497  16.858  0.4880  1.9423 -1.5819
 5847TIP3   OH238955   0.029   3.260   3.331 -0.0568  0.2144 -0.3828
 5847TIP3    H138956  -0.009   3.179   3.364 -2.0724 -0.2708 -3.6339
 5847TIP3    H238957   0.120   3.238   3.312 -0.4192 -1.1264 -0.6440
 5848TIP3   OH238958   0.557   3.038  11.071 -0.1300 -1.0818  0.1518
 5848TIP3    H138959   0.556   3.093  11.150 -1.0697 -0.7039 -0.1137
 5848TIP3    H238960   0.468   3.004  11.064 -0.2318 -0.5867 -1.1004
 5849TIP3   OH238961   5.651   1.651   3.317  0.5541 -0.4527 -0.3254
 5849TIP3    H138962   5.643   1.663   3.222  1.2976  1.5544 -0.1540
 5849TIP3    H238963   5.561   1.655   3.349  0.3247 -0.8433 -0.9002
 5850TIP3   OH238964   5.818   0.112  13.031 -0.0933 -0.0875 -0.1408
 5850TIP3    H138965   5.760   0.081  13.100  0.2359 -1.0854 -0.3145
 5850TIP3    H238966   5.824   0.207  13.046 -0.4365 -0.2218  0.8797
 5851TIP3   OH238967   5.081   5.799   2.694 -0.2356 -0.3920  0.4633
 5851TIP3    H138968   5.086   5.870   2.758  3.2583 -1.2776  1.2608
 5851TIP3    H238969   5.102   5.841   2.610  0.5555 -0.2539  0.7330
 5852TIP3   OH238970   0.570   0.529   0.093 -0.6017 -0.0180  0.5455
 5852TIP3    H138971   0.554   0.436   0.110 -0.7057 -0.1835 -0.4043
 5852TIP3    H238972   0.600   0.532   0.002 -3.4337  1.1592 -0.4158
 5853TIP3   OH238973   5.576   5.252  12.659 -0.2100 -0.6412 -0.2659
 5853TIP3    H138974   5.600   5.199  12.735  1.4689  0.6546  0.1228
 5853TIP3    H238975   5.626   5.215  12.586  1.9875  1.2064  0.2720
 5854TIP3   OH238976   2.661   0.446  13.544  0.3325 -0.0806 -0.1913
 5854TIP3    H138977   2.571   0.421  13.564 -0.1620  2.4691  0.9950
 5854TIP3    H238978   2.656   0.491  13.460  0.4132  0.4300  0.0725
 5855TIP3   OH238979   3.129   5.934  13.217  0.8161 -0.2846 -0.1256
 5855TIP3    H138980   3.070   5.900  13.285  1.8729 -1.2680  0.3158
 5855TIP3    H238981   3.108   6.027  13.212 -0.2158 -0.4673  0.5991
 5856TIP3   OH238982   3.690   3.678   1.583 -0.5779 -0.0406 -0.0264
 5856TIP3    H138983   3.662   3.714   1.498  0.9121  0.9827 -0.1017
 5856TIP3    H238984   3.654   3.739   1.647 -0.2171  0.1590 -0.0152
 5857TIP3   OH238985   1.799   3.963   5.954 -0.7743 -0.6088 -0.1267
 5857TIP3    H138986   1.878   3.922   5.990  0.2629  1.3379 -0.1155
 5857TIP3    H238987   1.803   4.054   5.985 -2.2524 -0.0972 -1.3627
 5858TIP3   OH238988   1.804   2.715   2.121 -0.3508  0.1299  0.4604
 5858TIP3    H138989   1.885   2.675   2.089 -1.1029 -2.5171  1.8178
 5858TIP3    H238990   1.752   2.730   2.042  0.0729 -1.2461 -0.0826
 5859TIP3   OH238991   0.811   5.587   0.393  0.0325  0.4113  0.1888
 5859TIP3    H138992   0.764   5.513   0.430 -1.0975 -0.2625 -2.4244
 5859TIP3    H238993   0.745   5.656   0.386  0.8145  1.3216  1.5987
 5860TIP3   OH238994   1.593   0.316  14.773 -0.1731 -0.0321  0.3910
 5860TIP3    H138995   1.644   0.244  14.736 -0.4056 -0.4659  0.9072
 5860TIP3    H238996   1.656   0.367  14.824 -0.2857 -0.7106  1.2375
 5861TIP3   OH238997   0.454   4.891  16.319  0.3611 -0.1740  0.7584
 5861TIP3    H138998   0.390   4.955  16.351 -1.8370 -2.2124  0.5588
 5861TIP3    H238999   0.425   4.870  16.231  0.6813 -1.9099  1.0496
 5862TIP3   OH239000   0.943   4.674  16.281  0.0527 -0.1416 -0.2006
 5862TIP3    H139001   0.916   4.583  16.271  0.3562 -0.3602  0.9512
 5862TIP3    H239002   0.867   4.718  16.317 -0.5620  0.3546 -2.0720
 5863TIP3   OH239003   1.757   2.994  12.715 -0.1688 -0.5357  0.0059
 5863TIP3    H139004   1.753   3.010  12.810  0.2072 -2.0236  0.3012
 5863TIP3    H239005   1.667   2.977  12.690 -0.2287 -0.4765  0.1787
 5864TIP3   OH239006   5.736   3.014   4.883  0.6636 -0.0742 -0.2034
 5864TIP3    H139007   5.811   2.976   4.837  0.7145  1.9766 -1.9072
 5864TIP3    H239008   5.666   3.015   4.818  0.0402  0.7324  0.4702
 5865TIP3   OH239009   2.282   3.647  16.343  0.6156  0.0635  0.3311
 5865TIP3    H139010   2.269   3.599  16.425 -1.3631  0.8434  0.5075
 5865TIP3    H239011   2.254   3.586  16.275 -0.1158  0.2782  0.4276
 5866TIP3   OH239012   0.791   0.715  12.400 -0.5450  0.2212 -0.7621
 5866TIP3    H139013   0.764   0.698  12.310 -1.5859 -0.6305 -0.3067
 5866TIP3    H239014   0.733   0.660  12.453  1.2114 -0.6140  0.3506
 5867TIP3   OH239015   0.247   4.062  11.554 -0.1535  0.0763 -0.0424
 5867TIP3    H139016   0.223   4.011  11.476 -0.6079  0.6606 -0.2923
 5867TIP3    H239017   0.339   4.041  11.570 -0.5091 -1.3026  0.2288
 5868TIP3   OH239018   1.737   3.026   4.848 -0.0349 -0.1434 -0.0385
 5868TIP3    H139019   1.785   3.051   4.927  0.0898 -1.1985  0.2247
 5868TIP3    H239020   1.706   3.109   4.812 -1.0223  0.2647  1.7016
 5869TIP3   OH239021   5.004   3.894  16.291 -0.0149  0.2179 -0.3090
 5869TIP3    H139022   5.098   3.902  16.277  0.0164 -0.2676 -0.3681
 5869TIP3    H239023   4.975   3.831  16.226 -0.1439 -0.7410  0.6727
 5870TIP3   OH239024   6.049   6.092   2.167  0.2075 -0.1872  0.4784
 5870TIP3    H139025   6.045   6.077   2.262  0.1571 -0.6859  0.3947
 5870TIP3    H239026   6.140   6.119   2.151  0.3022 -0.4239  0.6186
 5871TIP3   OH239027   3.306   0.080  16.476  0.0171  0.3309 -0.7284
 5871TIP3    H139028   3.331   0.152  16.535  1.3008  0.3755 -1.3281
 5871TIP3    H239029   3.271   0.124  16.399 -1.4423  0.2735 -0.1233
 5872TIP3   OH239030   6.443   1.088  11.016 -0.2837 -0.5103 -0.1818
 5872TIP3    H139031   6.401   1.127  11.092  1.0436 -0.8290  0.7374
 5872TIP3    H239032   6.412   0.998  11.015  1.6873 -1.2423  1.5166
 5873TIP3   OH239033   1.267   1.636  16.747  0.3449  0.3321  0.4571
 5873TIP3    H139034   1.350   1.616  16.703 -0.7306  0.9071 -1.9484
 5873TIP3    H239035   1.264   1.577  16.822  3.0859  0.5460  0.7789
 5874TIP3   OH239036   5.624   4.960   6.495  0.0365 -0.0602  0.4961
 5874TIP3    H139037   5.687   5.022   6.531  0.6154 -0.8707  0.8812
 5874TIP3    H239038   5.675   4.883   6.472 -0.5084  0.0183 -1.0346
 5875TIP3   OH239039   0.437   5.914   0.209  0.0343 -0.4717  0.1317
 5875TIP3    H139040   0.487   5.909   0.128  0.6248 -1.5186  0.5510
 5875TIP3    H239041   0.384   5.835   0.210 -0.1221 -0.3606  0.6597
 5876TIP3   OH239042   5.999   6.052   2.666 -1.0971 -0.2142  0.0332
 5876TIP3    H139043   5.962   5.987   2.726 -1.2998 -0.3933 -0.2825
 5876TIP3    H239044   5.924   6.108   2.644 -1.3142 -0.9034 -1.0379
 5877TIP3   OH239045   5.408   6.599  11.143 -0.0073 -0.3865  0.0693
 5877TIP3    H139046   5.314   6.615  11.148  0.0418 -0.6097  2.3427
 5877TIP3    H239047   5.426   6.536  11.214  1.9805  0.3301  0.2512
 5878TIP3   OH239048   4.040   2.122   0.814  0.2885  0.4390 -0.0889
 5878TIP3    H139049   4.111   2.186   0.812  0.9254 -0.2804 -0.4409
 5878TIP3    H239050   3.975   2.157   0.753  1.1052  0.2064 -1.1063
 5879TIP3   OH239051   5.296   5.846  13.865 -0.1195  0.0973  0.3145
 5879TIP3    H139052   5.276   5.760  13.901 -0.5795 -0.0392 -0.2584
 5879TIP3    H239053   5.388   5.839  13.837 -0.0869 -0.1350  0.4723
 5880TIP3   OH239054   0.816   4.421  12.666  0.3637  0.1370 -0.3562
 5880TIP3    H139055   0.861   4.488  12.717  2.8106 -0.5421 -1.5162
 5880TIP3    H239056   0.857   4.425  12.580 -1.5602 -0.8110 -1.3519
 5881TIP3   OH239057   3.287   2.623  16.173  0.4298  0.7014 -0.3437
 5881TIP3    H139058   3.219   2.648  16.236  0.3944  3.1671 -1.3047
 5881TIP3    H239059   3.341   2.560  16.220 -1.1575  0.4796  1.2406
 5882TIP3   OH239060   3.391   1.885   3.507 -0.0522  0.1416 -0.1535
 5882TIP3    H139061   3.306   1.908   3.544 -0.3580 -0.4308 -0.5027
 5882TIP3    H239062   3.384   1.792   3.487 -0.5489  0.8315 -3.4015
 5883TIP3   OH239063   6.346   0.634  13.684  0.4255  0.1892 -0.0711
 5883TIP3    H139064   6.301   0.551  13.673 -0.4140  0.6302 -0.0321
 5883TIP3    H239065   6.294   0.681  13.750  0.3477  1.1124 -0.7781
 5884TIP3   OH239066   2.970   3.616  10.525  0.8196 -0.0689 -0.5961
 5884TIP3    H139067   3.028   3.554  10.481  0.3000 -0.7581 -0.3031
 5884TIP3    H239068   3.011   3.702  10.509  0.7887 -0.3330 -2.1735
 5885TIP3   OH239069   5.589   2.734   1.346 -0.0071  0.5272 -0.4355
 5885TIP3    H139070   5.615   2.762   1.258  1.8687  0.2215 -0.0050
 5885TIP3    H239071   5.613   2.642   1.350 -0.6904  0.3747  0.1753
 5886TIP3   OH239072   1.360   3.233  16.912  0.3411  0.4619 -0.7649
 5886TIP3    H139073   1.389   3.317  16.877 -0.5954  0.5890 -1.2445
 5886TIP3    H239074   1.327   3.185  16.836  1.7947 -0.7344 -0.6658
 5887TIP3   OH239075   0.795   4.685  15.684 -0.1558  0.2752  0.3493
 5887TIP3    H139076   0.718   4.631  15.703  1.6504 -2.0008  1.5504
 5887TIP3    H239077   0.783   4.764  15.736 -2.1342  0.3899 -0.2421
 5888TIP3   OH239078   6.457   2.791  13.814 -0.0520 -0.1784 -0.6487
 5888TIP3    H139079   6.512   2.727  13.770 -0.6134 -1.0376 -0.1097
 5888TIP3    H239080   6.383   2.741  13.848 -0.3527  0.7037  0.0300
 5889TIP3   OH239081   6.300   2.451  11.823 -0.1529 -0.3664 -0.0245
 5889TIP3    H139082   6.280   2.545  11.821 -0.3203 -0.4045 -0.0780
 5889TIP3    H239083   6.386   2.444  11.781  0.2638 -0.1294  0.7677
 5890TIP3   OH239084   1.419   3.387   5.027 -0.1717  0.2573  0.5705
 5890TIP3    H139085   1.393   3.477   5.008  0.0955  0.4269  1.0133
 5890TIP3    H239086   1.407   3.377   5.121 -0.7956 -0.3619  0.4307
 5891TIP3   OH239087   2.413   1.212  11.895 -0.3696  0.2040  0.2873
 5891TIP3    H139088   2.346   1.201  11.828  1.4427  3.9728 -2.3291
 5891TIP3    H239089   2.494   1.186  11.852  0.6809  1.6417  1.3473
 5892TIP3   OH239090   5.904   4.295   2.210  0.8106  0.1614 -0.6468
 5892TIP3    H139091   5.857   4.216   2.236 -0.5990  1.5517  1.1540
 5892TIP3    H239092   5.939   4.274   2.123  2.3626 -3.2105  0.7086
 5893TIP3   OH239093   4.199   1.370  13.970 -0.5831  0.1697 -0.3251
 5893TIP3    H139094   4.273   1.392  13.913  1.6757 -2.9277  1.2473
 5893TIP3    H239095   4.141   1.318  13.914  0.5095 -0.9559 -0.4179
 5894TIP3   OH239096   5.888   4.084  16.412 -0.5800 -0.7114 -0.7175
 5894TIP3    H139097   5.839   4.166  16.403 -1.7051 -1.4477 -1.5369
 5894TIP3    H239098   5.977   4.111  16.432 -1.1591  0.6877  0.0923
 5895TIP3   OH239099   1.301   5.991  12.162 -0.6711 -0.0475 -0.4067
 5895TIP3    H139100   1.385   6.022  12.198 -0.7878 -3.5811  3.3167
 5895TIP3    H239101   1.235   6.036  12.213 -0.9487 -0.1383 -0.6882
 5896TIP3   OH239102   2.988   0.150  13.308 -0.0665 -0.0071  0.2321
 5896TIP3    H139103   3.040   0.226  13.332 -1.4820  0.8609  0.6070
 5896TIP3    H239104   3.015   0.082  13.369 -0.6277  0.9614  1.6004
 5897TIP3   OH239105   0.206   4.007   5.569 -0.0492  0.5216  0.2084
 5897TIP3    H139106   0.147   4.005   5.494 -0.0374  1.1151  0.1767
 5897TIP3    H239107   0.259   3.929   5.560 -1.2939 -0.3952  0.6138
 5898TIP3   OH239108   1.164   5.726   5.422  0.5626 -0.6288 -0.3420
 5898TIP3    H139109   1.084   5.778   5.417  0.2288 -1.0632  0.3904
 5898TIP3    H239110   1.152   5.656   5.359  0.3780 -0.6750 -0.2550
 5899TIP3   OH239111   4.437   2.358   0.914  0.2733  0.3233  0.5892
 5899TIP3    H139112   4.369   2.425   0.913  0.0532  0.0947  0.1869
 5899TIP3    H239113   4.518   2.406   0.926  0.3253  0.8360 -1.6808
 5900TIP3   OH239114   6.608   6.609   1.366 -0.0685  0.1042  0.1388
 5900TIP3    H139115   6.559   6.528   1.349  1.5751 -1.0297  0.7095
 5900TIP3    H239116   6.541   6.677   1.367 -1.2589 -0.9835 -2.1823
 5901TIP3   OH239117   0.041   0.826  12.619  0.5998 -0.1428 -0.3094
 5901TIP3    H139118   0.105   0.756  12.633 -0.8771 -1.2791  0.9623
 5901TIP3    H239119  -0.042   0.780  12.602 -0.5252  1.2907  1.1510
 5902TIP3   OH239120   1.478   1.829  12.869  0.3584  0.2674  0.1592
 5902TIP3    H139121   1.555   1.781  12.839  0.3917  0.8938 -0.7696
 5902TIP3    H239122   1.441   1.868  12.790 -1.8535 -1.3365  0.3443
 5903TIP3   OH239123   5.873   2.294  14.035  0.1081  0.3171  0.6069
 5903TIP3    H139124   5.853   2.382  14.067  0.0318 -0.0103  1.5006
 5903TIP3    H239125   5.796   2.242  14.060  1.2714 -0.5752  2.5113
 5904TIP3   OH239126   0.303   4.836   4.551  0.5208  0.3074  0.0765
 5904TIP3    H139127   0.301   4.749   4.591  0.8465 -0.6702 -1.9772
 5904TIP3    H239128   0.396   4.858   4.548  0.5798 -0.0758 -1.0740
 5905TIP3   OH239129   5.403   5.321   6.066  0.0351  0.1166 -0.0290
 5905TIP3    H139130   5.419   5.409   6.099 -0.0868 -0.0277  0.4274
 5905TIP3    H239131   5.396   5.331   5.971 -1.4986  0.8254  0.1537
 5906TIP3   OH239132   0.230   1.961   3.822  0.6691  0.5332  0.0279
 5906TIP3    H139133   0.188   2.019   3.886  0.8661  0.9161 -0.1865
 5906TIP3    H239134   0.164   1.948   3.754  1.2030  1.8749 -0.7660
 5907TIP3   OH239135   5.278   6.269   5.160  0.5115  0.2916  0.7228
 5907TIP3    H139136   5.371   6.273   5.185  0.2098 -0.2417  1.9468
 5907TIP3    H239137   5.246   6.187   5.198 -0.3220  0.1981 -0.1767
 5908TIP3   OH239138   0.261   4.225   0.753 -0.0899  0.1228  0.1750
 5908TIP3    H139139   0.262   4.215   0.848 -0.2567  0.0798  0.1717
 5908TIP3    H239140   0.270   4.135   0.720  2.2361  0.3361  0.1531
 5909TIP3   OH239141   2.879   5.126  15.243  0.0813 -0.0201 -0.2696
 5909TIP3    H139142   2.850   5.202  15.192 -2.3570 -0.0862  0.9661
 5909TIP3    H239143   2.938   5.163  15.309  0.1039  0.5969 -0.6246
 5910TIP3   OH239144   5.781   6.285   4.927 -0.6291 -0.0062 -0.1029
 5910TIP3    H139145   5.769   6.201   4.883  0.3353 -1.5607  2.4428
 5910TIP3    H239146   5.872   6.284   4.958  0.0897  2.9477 -1.8981
 5911TIP3   OH239147   3.782   1.724   4.142 -0.4262 -0.1330 -0.0489
 5911TIP3    H139148   3.837   1.789   4.098 -0.1454 -0.0641  0.4075
 5911TIP3    H239149   3.801   1.642   4.095 -1.1047  0.1896 -0.9062
 5912TIP3   OH239150   0.558   3.297  16.291 -0.5590  0.5365 -0.2190
 5912TIP3    H139151   0.592   3.381  16.321 -2.6627  1.2210  0.3435
 5912TIP3    H239152   0.634   3.252  16.255  0.9794  1.8526  1.3030
 5913TIP3   OH239153   1.130   6.510   2.911 -0.1534  0.6264 -0.2361
 5913TIP3    H139154   1.141   6.582   2.849 -0.3251  2.3615  1.6867
 5913TIP3    H239155   1.182   6.536   2.987  0.7163 -1.8430  0.0396
 5914TIP3   OH239156   4.853   1.793   5.293 -0.6971  0.5025  0.5553
 5914TIP3    H139157   4.895   1.816   5.376 -0.5915  2.5509 -0.0518
 5914TIP3    H239158   4.775   1.743   5.319  0.7675 -1.2056  1.7694
 5915TIP3   OH239159   1.893   1.653  16.266 -0.4296  0.2981  0.1083
 5915TIP3    H139160   1.936   1.567  16.273 -0.1793  0.4693  0.7542
 5915TIP3    H239161   1.952   1.712  16.313 -2.8431  0.0004  3.6502
 5916TIP3   OH239162   1.406   0.642  14.510  0.3487  0.2493  0.4118
 5916TIP3    H139163   1.480   0.585  14.528  1.0507  1.1875  0.5686
 5916TIP3    H239164   1.397   0.640  14.415  0.0759 -0.4780  0.4520
 5917TIP3   OH239165   0.415   1.205  15.747  0.4018  0.3329 -0.2900
 5917TIP3    H139166   0.375   1.290  15.728  1.4444  0.9703  0.2904
 5917TIP3    H239167   0.500   1.209  15.703 -0.3331 -1.1656 -1.8653
 5918TIP3   OH239168   4.123   0.225  16.736  1.4634 -0.0593  0.5126
 5918TIP3    H139169   4.104   0.276  16.815 -1.0177 -1.9890  1.2468
 5918TIP3    H239170   4.195   0.166  16.762  1.6585  0.3336  0.8665
 5919TIP3   OH239171   1.151   0.167   5.352  0.4940 -0.0067 -0.1973
 5919TIP3    H139172   1.086   0.229   5.318  0.1304 -1.4416 -2.1444
 5919TIP3    H239173   1.175   0.204   5.437 -0.1516  2.5086 -1.0481
 5920TIP3   OH239174   4.421   1.704  10.766 -0.1720  0.4188  0.0567
 5920TIP3    H139175   4.439   1.614  10.793 -0.1279 -0.1519 -1.8346
 5920TIP3    H239176   4.326   1.713  10.779 -0.2819 -0.1085 -0.3599
 5921TIP3   OH239177   6.763   3.221   4.741 -0.5990  0.4371 -0.0401
 5921TIP3    H139178   6.754   3.265   4.826  1.2002  1.5450 -0.3821
 5921TIP3    H239179   6.818   3.145   4.759  1.9979  2.0865 -0.6003
 5922TIP3   OH239180   2.402   1.056  12.113  0.0051  0.0898 -0.7053
 5922TIP3    H139181   2.392   1.131  12.056  1.5675  0.5548 -0.4004
 5922TIP3    H239182   2.350   1.078  12.191  1.4811  1.4387 -0.0734
 5923TIP3   OH239183   4.607   3.873   3.228 -0.1379  0.3957 -0.0714
 5923TIP3    H139184   4.593   3.919   3.310 -0.6091  0.0388  0.0518
 5923TIP3    H239185   4.584   3.937   3.161 -3.9707 -0.5965  0.1340
 5924TIP3   OH239186   1.835   3.887  10.368 -0.2937 -0.8992  0.3543
 5924TIP3    H139187   1.781   3.964  10.383  2.1636  1.3092 -1.6440
 5924TIP3    H239188   1.813   3.860  10.279 -0.1859 -1.7100  0.5702
 5925TIP3   OH239189   6.164   6.070   6.069  0.2634 -0.0859 -0.1392
 5925TIP3    H139190   6.083   6.025   6.048  0.6873 -1.1468  0.4623
 5925TIP3    H239191   6.142   6.128   6.142 -0.1470  0.2509 -0.5314
 5926TIP3   OH239192   3.222   1.468  13.382 -0.1134  0.1246 -0.4869
 5926TIP3    H139193   3.229   1.437  13.292 -0.4078 -0.5587 -0.2746
 5926TIP3    H239194   3.248   1.393  13.436 -0.1811  0.4517  0.0064
 5927TIP3   OH239195   6.349   6.774  15.237  0.0545  0.0887 -0.1171
 5927TIP3    H139196   6.425   6.819  15.275 -0.9129  1.6482  0.0361
 5927TIP3    H239197   6.296   6.750  15.313  0.1738 -0.6090 -0.2516
 5928TIP3   OH239198   3.905   2.786   0.912 -0.2240 -0.4324  0.1931
 5928TIP3    H139199   3.841   2.797   0.843  1.9120  0.3361 -1.7410
 5928TIP3    H239200   3.892   2.861   0.970 -1.7060 -0.8219  0.3673
 5929TIP3   OH239201   1.615   4.052   3.972 -0.1707 -0.7323 -0.1580
 5929TIP3    H139202   1.623   3.972   3.921  0.6026  0.0241 -1.2218
 5929TIP3    H239203   1.696   4.100   3.957 -0.9747  0.6521 -0.2122
 5930TIP3   OH239204   2.659   6.626  12.569  0.8357 -0.2909  0.0954
 5930TIP3    H139205   2.570   6.607  12.540  0.1635  1.4499  0.8826
 5930TIP3    H239206   2.700   6.670  12.495  1.0494 -1.0936 -0.2675
 5931TIP3   OH239207   0.987   4.409   3.054 -0.0514  0.1386 -0.1828
 5931TIP3    H139208   1.036   4.395   3.135  0.0992  3.1129  0.3039
 5931TIP3    H239209   1.043   4.373   2.985  0.8221 -0.4188  0.8189
 5932TIP3   OH239210   3.428   6.089  11.275  0.4457  0.4435  0.2576
 5932TIP3    H139211   3.422   6.013  11.217  1.3210  2.5421 -2.6973
 5932TIP3    H239212   3.360   6.075  11.340 -1.2226 -1.5781 -1.8301
 5933TIP3   OH239213   5.458   4.572  11.511 -0.2912 -0.8954  0.3219
 5933TIP3    H139214   5.466   4.558  11.606 -0.5813  0.6627  0.5888
 5933TIP3    H239215   5.363   4.569  11.495 -0.3283  0.2346  0.3100
 5934TIP3   OH239216   3.644   0.753   4.402  0.2444 -0.1685  0.1402
 5934TIP3    H139217   3.713   0.698   4.438 -0.2142 -0.9481 -0.1548
 5934TIP3    H239218   3.652   0.836   4.449  0.1333 -0.9185  1.4953
 5935TIP3   OH239219   1.926   2.659  17.078 -0.2144  0.2286 -0.9370
 5935TIP3    H139220   1.928   2.748  17.114  1.3573  0.0039 -0.4444
 5935TIP3    H239221   1.834   2.633  17.085 -0.3900  1.1710  0.5051
 5936TIP3   OH239222   5.329   2.750  12.872 -0.3991  0.3546 -0.1923
 5936TIP3    H139223   5.335   2.823  12.933  0.2467 -1.4770  1.9993
 5936TIP3    H239224   5.414   2.748  12.828  0.3759 -0.3549  1.2935
 5937TIP3   OH239225   4.103   4.932   4.353 -0.5119 -0.3298 -0.6770
 5937TIP3    H139226   4.051   5.009   4.333 -0.3166 -0.0485 -0.1157
 5937TIP3    H239227   4.119   4.891   4.268 -0.5165  0.3095 -0.9909
 5938TIP3   OH239228   4.304   5.803  14.522 -0.6116 -0.1515  0.3301
 5938TIP3    H139229   4.342   5.889  14.543 -1.3856 -0.1459  1.8081
 5938TIP3    H239230   4.237   5.821  14.456  1.2170 -0.0265 -1.5374
 5939TIP3   OH239231   6.604   2.102   3.517 -0.5247  0.3423  0.3035
 5939TIP3    H139232   6.621   2.194   3.495 -3.3739  1.1792  1.3607
 5939TIP3    H239233   6.547   2.071   3.447  1.4087 -1.0252 -0.7059
 5940TIP3   OH239234   5.567   0.257   3.066 -0.1217  0.6516 -0.2347
 5940TIP3    H139235   5.553   0.223   2.978 -0.1965 -0.0956  0.0576
 5940TIP3    H239236   5.484   0.243   3.111  0.4006 -0.4575  0.4259
 5941TIP3   OH239237   5.487   5.806  14.833 -0.0546  0.3085 -0.4391
 5941TIP3    H139238   5.537   5.725  14.822 -0.6829 -0.2762  0.9676
 5941TIP3    H239239   5.457   5.804  14.924  0.3364  2.3653 -0.2461
 5942TIP3   OH239240   4.936   6.348   3.888  0.2086  0.3176  0.3633
 5942TIP3    H139241   4.964   6.268   3.933 -1.4918 -0.6028 -0.1637
 5942TIP3    H239242   5.015   6.403   3.884  1.3189 -1.2102  0.9770
 5943TIP3   OH239243   1.903   2.696   3.909 -0.4162 -0.3772 -0.1772
 5943TIP3    H139244   1.926   2.705   3.816 -1.0904  1.0255 -0.2143
 5943TIP3    H239245   1.812   2.667   3.908 -1.2345  2.0755  0.0525
 5944TIP3   OH239246   2.596   2.859   6.196 -0.1706  0.0729 -0.2201
 5944TIP3    H139247   2.622   2.809   6.273 -1.0078  0.9735  0.6552
 5944TIP3    H239248   2.625   2.949   6.215  1.8353 -0.1508 -2.0143
 5945TIP3   OH239249   1.261   3.679  14.292 -0.3406  0.2068  0.3334
 5945TIP3    H139250   1.259   3.706  14.200  0.1682  1.0595  0.5643
 5945TIP3    H239251   1.186   3.723  14.332 -1.4483 -1.3469  0.0214
 5946TIP3   OH239252   0.049   4.302   1.113 -0.1565  0.6505 -0.0815
 5946TIP3    H139253   0.112   4.234   1.087 -1.2513  0.4106 -2.2581
 5946TIP3    H239254  -0.027   4.253   1.145  0.1067  0.9145  0.9668
 5947TIP3   OH239255   4.423   3.447  14.725 -0.4955 -0.3359  0.0717
 5947TIP3    H139256   4.456   3.531  14.694  0.1065 -0.9211 -0.8603
 5947TIP3    H239257   4.333   3.467  14.754 -0.4440  0.5690 -0.3599
 5948TIP3   OH239258   0.444   5.781  11.563 -0.8204 -0.5998 -0.3882
 5948TIP3    H139259   0.442   5.685  11.565 -2.1884 -0.5586  1.7471
 5948TIP3    H239260   0.495   5.806  11.639 -1.6647  0.3831 -0.1340
 5949TIP3   OH239261   4.975   3.899   3.439  0.0109 -0.1494  0.0765
 5949TIP3    H139262   5.015   3.814   3.458  0.2244 -0.0429  0.1067
 5949TIP3    H239263   4.930   3.887   3.355 -0.4878 -0.4701  0.3863
 5950TIP3   OH239264   5.940   1.185  11.636 -0.0461 -0.2844 -1.0194
 5950TIP3    H139265   6.025   1.229  11.640 -0.0884 -0.1375 -1.6438
 5950TIP3    H239266   5.925   1.153  11.725 -0.5312  1.9470 -0.2688
 5951TIP3   OH239267   5.906   6.774   5.432  0.7460 -0.1386 -0.4520
 5951TIP3    H139268   5.849   6.751   5.506  0.6890  0.6317 -0.2535
 5951TIP3    H239269   5.894   6.702   5.370 -2.3357  1.1449 -1.4808
 5952TIP3   OH239270   1.337   2.405  17.238  0.1376 -0.6807 -0.4821
 5952TIP3    H139271   1.346   2.329  17.181 -1.3642 -1.3563  0.1538
 5952TIP3    H239272   1.317   2.477  17.177  0.7064 -0.9608 -1.0088
 5953TIP3   OH239273   4.309   6.593  11.414 -0.4107 -0.1047 -0.1170
 5953TIP3    H139274   4.356   6.644  11.480 -0.2473 -0.3570 -0.0392
 5953TIP3    H239275   4.372   6.581  11.343 -1.1882  1.8049 -1.1595
 5954TIP3   OH239276   1.066   6.127  11.453  0.0750  0.4007  0.3963
 5954TIP3    H139277   1.104   6.125  11.365  0.1073  0.0354  0.4169
 5954TIP3    H239278   0.981   6.084  11.444  0.3763 -0.2587  0.6811
 5955TIP3   OH239279   3.665   6.429  14.000  0.0691  0.0967  0.7791
 5955TIP3    H139280   3.646   6.448  13.908  0.1699 -1.8703  0.3356
 5955TIP3    H239281   3.723   6.353  13.998 -0.9417 -0.7524  2.4969
 5956TIP3   OH239282   3.905   6.656   5.423 -0.4189  0.0109 -0.2012
 5956TIP3    H139283   3.836   6.717   5.399  0.7945  0.7601 -1.9159
 5956TIP3    H239284   3.925   6.609   5.342 -0.4399 -1.7819  0.7925
 5957TIP3   OH239285   6.284   0.712  11.492  0.6639  0.3994  0.1376
 5957TIP3    H139286   6.282   0.660  11.412  1.1420  0.3287  0.1661
 5957TIP3    H239287   6.226   0.785  11.476  3.3634  2.2361 -1.5500
 5958TIP3   OH239288   6.571   5.906   5.243  0.1652 -0.8157 -0.4161
 5958TIP3    H139289   6.516   5.848   5.294  1.0350 -0.6988  0.6810
 5958TIP3    H239290   6.637   5.849   5.204 -0.0645 -0.8088 -0.8133
 5959TIP3   OH239291   6.033   4.924   1.504 -0.1079  0.1857 -0.2678
 5959TIP3    H139292   6.114   4.957   1.543  0.5244 -0.1659 -1.2622
 5959TIP3    H239293   6.029   4.965   1.418 -0.0240 -1.2237 -0.9625
 5960TIP3   OH239294   3.252   1.044  15.970 -0.1898 -0.4345 -0.0462
 5960TIP3    H139295   3.239   0.950  15.958  1.2187 -0.6530  0.0441
 5960TIP3    H239296   3.233   1.083  15.885  0.8294 -0.9871 -0.5331
 5961TIP3   OH239297   2.524   4.822  14.901 -0.0573  0.1461 -0.2256
 5961TIP3    H139298   2.589   4.752  14.895  0.8052  1.0251 -1.3543
 5961TIP3    H239299   2.525   4.848  14.993  0.2504 -0.7220  0.0228
 5962TIP3   OH239300   0.303   5.536   5.798 -0.1389 -1.2077 -0.3194
 5962TIP3    H139301   0.302   5.486   5.717 -1.9499 -0.7696 -0.5899
 5962TIP3    H239302   0.301   5.471   5.868 -1.0804 -1.5561 -0.6606
 5963TIP3   OH239303   6.694   3.024  11.321 -0.1719  0.0618  0.1181
 5963TIP3    H139304   6.743   2.951  11.284 -0.4566  0.7003 -1.5297
 5963TIP3    H239305   6.726   3.101  11.274 -3.2683  0.3962 -1.5343
 5964TIP3   OH239306   4.211   3.544   4.748  0.2553  0.2249 -0.3470
 5964TIP3    H139307   4.152   3.484   4.793  1.6947 -0.7474  0.2924
 5964TIP3    H239308   4.295   3.497   4.745  1.0189  1.6162 -1.1223
 5965TIP3   OH239309   1.154   2.633  11.705  0.0988  0.7807 -0.2073
 5965TIP3    H139310   1.142   2.540  11.683  0.5436  0.8878 -0.9103
 5965TIP3    H239311   1.136   2.638  11.799 -0.7184  0.1234 -0.3241
 5966TIP3   OH239312   2.119   3.313   5.254 -0.2719  0.0350 -0.5879
 5966TIP3    H139313   2.053   3.382   5.262  0.0184  0.1847  0.6627
 5966TIP3    H239314   2.155   3.304   5.342 -0.2413 -1.6520 -0.7605
 5967TIP3   OH239315   3.259   2.428   0.323 -0.6694  0.0016  0.2455
 5967TIP3    H139316   3.177   2.474   0.342 -0.4017  0.4125  0.4320
 5967TIP3    H239317   3.245   2.339   0.355 -1.0640  0.0534  0.2196
 5968TIP3   OH239318   0.398   4.555   5.517  0.2501 -0.4789 -0.5201
 5968TIP3    H139319   0.365   4.644   5.529 -0.2972 -0.7884  0.3036
 5968TIP3    H239320   0.408   4.546   5.422  0.3490  0.4718 -0.6083
 5969TIP3   OH239321   0.422   5.193  12.498 -0.2758  0.2538 -0.2155
 5969TIP3    H139322   0.362   5.202  12.425 -0.5413  1.8458  0.1749
 5969TIP3    H239323   0.463   5.107  12.486 -0.6851  0.2930 -1.9293
 5970TIP3   OH239324   3.980   0.460   0.270 -0.2072 -0.4070  0.0720
 5970TIP3    H139325   3.893   0.489   0.300 -0.4277 -0.9346 -0.0558
 5970TIP3    H239326   3.972   0.366   0.260  0.5508 -0.5314  0.6001
 5971TIP3   OH239327   3.910   4.127   3.552  0.1288 -0.4566 -0.7897
 5971TIP3    H139328   3.944   4.081   3.476 -0.4959 -1.2706 -0.5851
 5971TIP3    H239329   3.956   4.088   3.627 -0.9506 -1.2987 -0.5470
 5972TIP3   OH239330   3.278   5.356  16.279  0.3762 -0.3185 -0.1317
 5972TIP3    H139331   3.360   5.388  16.241  0.6132 -0.5643  0.1689
 5972TIP3    H239332   3.279   5.390  16.369  1.1243 -1.9941  0.5278
 5973TIP3   OH239333   3.540   3.861  11.943 -0.4000  0.7322 -0.4160
 5973TIP3    H139334   3.522   3.910  12.024  1.1289  0.6870 -0.0388
 5973TIP3    H239335   3.525   3.770  11.967 -1.1190  0.8230 -0.5146
 5974TIP3   OH239336   3.741   3.275   3.814 -0.4244 -0.4770 -0.2912
 5974TIP3    H139337   3.684   3.301   3.886  0.3880 -1.5100  0.7318
 5974TIP3    H239338   3.709   3.189   3.787  0.1609 -0.7230 -0.2155
 5975TIP3   OH239339   0.940   2.574  14.103  0.1366 -0.5368 -0.1528
 5975TIP3    H139340   0.979   2.526  14.177 -1.8968 -0.1310  1.2417
 5975TIP3    H239341   0.959   2.666  14.121  1.2513 -0.5752 -1.1256
 5976TIP3   OH239342   2.687   0.114  12.728  0.2533 -0.4443  0.3536
 5976TIP3    H139343   2.637   0.036  12.753  0.5617 -0.1720  1.8698
 5976TIP3    H239344   2.748   0.127  12.800  1.1063  0.4359 -0.5227
 5977TIP3   OH239345   2.576   2.515   2.610 -0.6841 -0.1863 -0.9125
 5977TIP3    H139346   2.639   2.478   2.672  0.7590  0.7558 -1.7910
 5977TIP3    H239347   2.530   2.582   2.660  1.7650  1.8689 -1.3301
 5978TIP3   OH239348   2.742   4.807  12.013 -0.8360 -0.0966  0.2806
 5978TIP3    H139349   2.660   4.760  12.031 -1.1278  0.5336  0.6510
 5978TIP3    H239350   2.807   4.763  12.067 -1.1110 -0.0627  0.6444
 5979TIP3   OH239351   2.299   2.208  15.277 -0.2206 -0.1900 -0.2891
 5979TIP3    H139352   2.271   2.290  15.237 -0.9629 -0.0615  0.4773
 5979TIP3    H239353   2.393   2.219  15.292 -0.2055  0.2838 -0.7441
 5980TIP3   OH239354   6.530   4.321   3.871  0.6469 -0.4185 -0.4321
 5980TIP3    H139355   6.458   4.288   3.816  1.4513 -0.3970 -1.5160
 5980TIP3    H239356   6.607   4.272   3.842  1.4287  0.8503 -0.5420
 5981TIP3   OH239357   3.287   2.954  15.271  0.3723  0.4036  0.0520
 5981TIP3    H139358   3.369   2.963  15.320  0.1826 -1.2047  0.6986
 5981TIP3    H239359   3.242   3.037  15.282  0.1385 -0.0775  2.9712
 5982TIP3   OH239360   4.343   1.919  13.106  0.3200  0.2909  0.3098
 5982TIP3    H139361   4.410   1.908  13.173 -0.3057  0.1212  0.9168
 5982TIP3    H239362   4.282   1.984  13.142  0.3576  0.7310 -0.3958
 5983TIP3   OH239363   3.120   4.537  11.842 -0.3356 -0.0077 -0.0931
 5983TIP3    H139364   3.124   4.629  11.867 -1.2149 -0.1289  0.4932
 5983TIP3    H239365   3.210   4.515  11.817 -0.1951  1.1048 -0.5889
 5984TIP3   OH239366   3.647   5.116   4.964  0.0523 -0.7446 -0.5824
 5984TIP3    H139367   3.580   5.101   4.897  0.4433  0.2993 -1.2179
 5984TIP3    H239368   3.714   5.167   4.920  0.2649  0.0570  0.6337
 5985TIP3   OH239369   3.020   5.229  11.161 -0.2167 -0.6692  0.3993
 5985TIP3    H139370   3.018   5.288  11.086 -0.4685  0.4223  1.2501
 5985TIP3    H239371   2.967   5.154  11.134  1.4599 -1.2746 -1.2992
 5986TIP3   OH239372   2.126   4.409  13.278  0.1411  0.0330  0.3179
 5986TIP3    H139373   2.175   4.417  13.196  0.3254 -1.8754  0.2175
 5986TIP3    H239374   2.192   4.382  13.342 -0.1517  0.7530  0.9282
 5987TIP3   OH239375   6.130   3.077   5.683  0.4472  0.1432 -0.0912
 5987TIP3    H139376   6.212   3.083   5.733 -0.9732 -0.8041  2.4590
 5987TIP3    H239377   6.148   3.012   5.615  1.6192 -0.6155  0.9134
 5988TIP3   OH239378   1.929   4.385   0.648  0.3747 -0.7681  0.6350
 5988TIP3    H139379   2.009   4.413   0.605  0.3042  0.4653  1.2862
 5988TIP3    H239380   1.958   4.342   0.729  0.3926 -0.5772  0.7301
 5989TIP3   OH239381   6.680   6.557  13.327  0.5767  0.3582  0.2923
 5989TIP3    H139382   6.771   6.556  13.354  0.2496  0.2754  1.4321
 5989TIP3    H239383   6.631   6.566  13.409 -0.4791 -0.9103 -0.1773
 5990TIP3   OH239384   5.293   4.938   2.488  0.3887  0.3745  0.0540
 5990TIP3    H139385   5.381   4.942   2.450 -0.9668  1.0935 -3.1484
 5990TIP3    H239386   5.245   4.877   2.432 -0.8463 -1.0049  2.5286
 5991TIP3   OH239387   2.613   2.710   0.953  0.0844 -0.3490 -0.9369
 5991TIP3    H139388   2.642   2.691   0.864 -0.2814  0.0071 -1.1348
 5991TIP3    H239389   2.694   2.730   1.001  0.3999 -1.7604 -0.8765
 5992TIP3   OH239390   4.107   3.268  15.971 -0.0960 -0.3638  0.1495
 5992TIP3    H139391   4.056   3.258  15.891 -0.4764  0.1167  0.3278
 5992TIP3    H239392   4.158   3.348  15.957  0.8004 -0.9860 -0.1288
 5993TIP3   OH239393   5.315   4.500   5.227 -0.0009  0.0497 -0.8218
 5993TIP3    H139394   5.363   4.564   5.174 -0.8847 -0.9840 -2.9017
 5993TIP3    H239395   5.268   4.446   5.164 -0.2147 -1.9228  0.9743
 5994TIP3   OH239396   6.456   3.276   4.694  0.4075  0.2591  0.4590
 5994TIP3    H139397   6.442   3.305   4.784  0.2796 -1.6523  1.0603
 5994TIP3    H239398   6.548   3.252   4.690  0.1204 -0.8421  0.4165
 5995TIP3   OH239399   1.016   0.940   1.038  0.0367 -0.5654  0.0139
 5995TIP3    H139400   1.044   0.945   1.129 -0.4762 -0.6178  0.1720
 5995TIP3    H239401   0.934   0.892   1.040 -1.0210  1.2018 -0.2550
 5996TIP3   OH239402   5.523   2.504   2.450 -0.2575  0.3105 -0.2937
 5996TIP3    H139403   5.546   2.572   2.387 -1.0662 -0.8314 -1.8557
 5996TIP3    H239404   5.436   2.530   2.482  0.7204  1.6141  1.4062
 5997TIP3   OH239405   3.643   2.096  16.174 -0.0182 -0.2481 -0.0465
 5997TIP3    H139406   3.700   2.090  16.251 -0.4866  1.7813  0.4816
 5997TIP3    H239407   3.555   2.086  16.210 -0.1678 -0.4838 -0.4810
 5998TIP3   OH239408   2.187   4.143   6.519  0.0987  0.2490 -0.2502
 5998TIP3    H139409   2.248   4.215   6.537  0.3802  0.0388 -0.3491
 5998TIP3    H239410   2.146   4.166   6.436 -1.2945  1.2831  0.7076
 5999TIP3   OH239411   4.324   0.021   1.476 -0.1378 -0.0480 -0.3980
 5999TIP3    H139412   4.410   0.000   1.513  0.5461  1.5261 -1.0702
 5999TIP3    H239413   4.281  -0.064   1.467  0.0465 -0.5578  3.0360
 6000TIP3   OH239414   3.485   6.217  14.464 -0.2329 -0.6768 -0.5155
 6000TIP3    H139415   3.524   6.270  14.394 -0.5913  0.5741  0.2110
 6000TIP3    H239416   3.484   6.128  14.430  0.4503 -0.2222 -1.7364
 6001TIP3   OH239417   0.886   0.192   3.742  0.1818  0.1958 -0.5970
 6001TIP3    H139418   0.863   0.222   3.830 -0.1015 -1.6736 -0.0019
 6001TIP3    H239419   0.825   0.237   3.684 -1.2087 -0.3446  0.4148
 6002TIP3   OH239420   4.587   3.991  11.713  0.4997 -0.0148  0.1327
 6002TIP3    H139421   4.626   3.923  11.659 -0.9761 -3.1357  2.8345
 6002TIP3    H239422   4.661   4.049  11.735  1.7181 -0.5388 -2.4076
 6003TIP3   OH239423   2.394   2.768   1.362  0.2395 -0.0403 -0.4042
 6003TIP3    H139424   2.460   2.775   1.431 -2.0664 -1.2979  2.0539
 6003TIP3    H239425   2.433   2.712   1.296  1.3026 -1.5037  1.4247
 6004TIP3   OH239426   2.154   5.185   0.195  0.4367 -0.4174  0.5113
 6004TIP3    H139427   2.213   5.192   0.270  0.1531  1.9204  0.5456
 6004TIP3    H239428   2.212   5.179   0.119  0.7198  0.2740  0.6707
 6005TIP3   OH239429   4.059   3.789  10.944 -0.3216  0.1267  0.0047
 6005TIP3    H139430   4.090   3.876  10.919  0.8526 -0.5118 -0.8251
 6005TIP3    H239431   4.134   3.751  10.991 -0.7411 -0.5343  0.1324
 6006TIP3   OH239432   5.738   0.788   0.613 -0.5314  0.3499 -0.0341
 6006TIP3    H139433   5.809   0.726   0.627  1.8914  2.6671 -1.5543
 6006TIP3    H239434   5.729   0.834   0.697  1.4350  1.6767 -0.5191
 6007TIP3   OH239435   0.362   5.156   1.853 -0.2390 -1.0605 -0.1887
 6007TIP3    H139436   0.354   5.074   1.902  0.7307 -1.3724 -0.5220
 6007TIP3    H239437   0.457   5.170   1.847 -0.4179  0.6435  0.7753
 6008TIP3   OH239438   5.601   2.471  15.047 -0.2385  0.4439 -0.4912
 6008TIP3    H139439   5.536   2.423  14.995 -0.1713  1.6635 -1.7020
 6008TIP3    H239440   5.629   2.543  14.991  0.0844  1.5824  1.1071
 6009TIP3   OH239441   2.748   0.686   2.505 -0.0108  0.0298 -0.0519
 6009TIP3    H139442   2.740   0.676   2.600  1.4096  0.3634  0.1154
 6009TIP3    H239443   2.789   0.772   2.494  1.5155 -0.7822 -0.8881
 6010TIP3   OH239444   2.175   4.421   0.488 -0.2034 -0.9049 -0.3071
 6010TIP3    H139445   2.115   4.407   0.415 -0.2861 -1.6110 -0.1150
 6010TIP3    H239446   2.227   4.497   0.464 -0.0374 -1.3105 -1.2199
 6011TIP3   OH239447   6.573   3.022  13.696 -0.5118 -0.0007  0.3697
 6011TIP3    H139448   6.555   2.995  13.606 -1.6713  1.3790  0.1709
 6011TIP3    H239449   6.541   2.950  13.750 -0.5339 -0.4874 -0.2853
 6012TIP3   OH239450   0.382   1.282   3.767 -0.0248 -0.0014 -0.3952
 6012TIP3    H139451   0.460   1.337   3.770 -1.2173  1.6951  0.8116
 6012TIP3    H239452   0.396   1.215   3.834  0.5528  0.0594 -0.4564
 6013TIP3   OH239453   2.331   5.502  15.500  0.0993  0.7429 -0.1174
 6013TIP3    H139454   2.298   5.500  15.590 -0.1686  0.8782 -0.2123
 6013TIP3    H239455   2.253   5.499  15.446  0.2288  1.3628 -0.3434
 6014TIP3   OH239456   6.281   4.687  13.179  0.0431  0.3408  0.1624
 6014TIP3    H139457   6.201   4.720  13.220 -0.2040 -0.9765  0.7885
 6014TIP3    H239458   6.250   4.627  13.111  0.4634  2.0169 -1.5558
 6015TIP3   OH239459   4.988   4.380   1.081 -0.0342  0.3987  0.3524
 6015TIP3    H139460   5.002   4.360   1.174 -0.6389 -1.3486  0.0878
 6015TIP3    H239461   5.071   4.417   1.052 -0.2439  2.1026  1.8835
 6016TIP3   OH239462   3.258   3.314   1.609 -0.0887  0.6071 -0.1435
 6016TIP3    H139463   3.192   3.248   1.588  0.3550  0.5740 -1.5169
 6016TIP3    H239464   3.340   3.265   1.613 -0.4393  0.2200  4.0764
 6017TIP3   OH239465   2.407   4.335  15.762  0.5926 -0.0450  0.0741
 6017TIP3    H139466   2.468   4.305  15.829  0.1587 -0.6892  0.1879
 6017TIP3    H239467   2.401   4.262  15.701  0.9322  0.5157 -0.6315
 6018TIP3   OH239468   1.338   3.019  15.227 -0.0218 -0.4946  0.2349
 6018TIP3    H139469   1.425   3.050  15.200 -0.3007 -0.0729 -0.1658
 6018TIP3    H239470   1.277   3.064  15.169 -0.6191  0.3425  1.4925
 6019TIP3   OH239471   3.204   2.896  12.349 -0.3550 -0.1052 -0.5654
 6019TIP3    H139472   3.202   2.978  12.300 -2.3877  0.0357 -0.3105
 6019TIP3    H239473   3.284   2.853  12.320  1.1279  2.2718 -0.1660
 6020TIP3   OH239474   0.814   3.420  11.431 -0.1737 -0.5364  0.2089
 6020TIP3    H139475   0.835   3.326  11.437  0.3767 -0.5866 -2.0718
 6020TIP3    H239476   0.882   3.456  11.374 -2.0621  0.6965 -1.3351
 6021TIP3   OH239477   6.506   4.935   3.366  0.3430  0.3640 -0.6706
 6021TIP3    H139478   6.419   4.899   3.386  0.2297  0.3920 -1.0979
 6021TIP3    H239479   6.497   5.029   3.381  0.4729  0.2900 -0.1248
 6022TIP3   OH239480   3.182   3.838  14.517 -0.1536  0.0448  0.0605
 6022TIP3    H139481   3.171   3.796  14.603  0.0898  0.5535  0.3376
 6022TIP3    H239482   3.206   3.928  14.537  0.1905  0.0892 -0.5486
 6023TIP3   OH239483   3.091   0.777   3.131  0.0057  0.1163  0.0710
 6023TIP3    H139484   3.063   0.704   3.075 -1.4452  0.5317  0.2404
 6023TIP3    H239485   3.175   0.748   3.167  0.8752 -0.2417 -2.1615
 6024TIP3   OH239486   5.712   5.128   0.770 -0.1390  0.3765  0.0425
 6024TIP3    H139487   5.731   5.048   0.721  0.9182  1.4102 -1.2616
 6024TIP3    H239488   5.628   5.110   0.812  0.3023 -1.6018  0.1589
 6025TIP3   OH239489   2.444   6.104   5.664 -0.0541  0.0824  0.5735
 6025TIP3    H139490   2.350   6.117   5.656  0.0710  1.6727  1.3994
 6025TIP3    H239491   2.454   6.057   5.747 -0.1082  0.0271  0.5486
 6026TIP3   OH239492   1.445   6.092   0.436  0.7114 -0.5986 -0.5117
 6026TIP3    H139493   1.354   6.062   0.432  0.8296 -1.4069  1.8696
 6026TIP3    H239494   1.470   6.105   0.345 -1.8526 -0.1707 -1.2074
 6027TIP3   OH239495   1.015   2.055   1.188 -0.2637  0.4069 -0.3007
 6027TIP3    H139496   0.967   2.080   1.268  0.6627 -1.3107  0.8134
 6027TIP3    H239497   1.094   2.108   1.190  0.7504 -1.1231  1.0246
 6028TIP3   OH239498   4.891   5.031  14.890 -0.0564 -0.1200  0.5253
 6028TIP3    H139499   4.978   5.032  14.929 -0.1011  1.9103  0.6260
 6028TIP3    H239500   4.906   5.044  14.797 -0.2948  1.5445  0.6984
 6029TIP3   OH239501   6.470   1.179   5.343  0.1671  0.2808 -0.0735
 6029TIP3    H139502   6.415   1.255   5.365 -0.9597 -0.4735 -0.2376
 6029TIP3    H239503   6.408   1.107   5.332  1.2163 -0.6300 -0.0970
 6030TIP3   OH239504   6.634   6.039  11.514 -0.1557 -0.6985  0.3214
 6030TIP3    H139505   6.683   6.091  11.450 -0.7630 -1.2537 -0.6107
 6030TIP3    H239506   6.557   6.093  11.535 -0.0802 -0.6224  0.4034
 6031TIP3   OH239507   4.194   0.572   1.379 -0.3195  0.5189  0.5364
 6031TIP3    H139508   4.114   0.604   1.336 -0.1608  1.5735  1.0085
 6031TIP3    H239509   4.170   0.566   1.471  0.4517  1.8752  0.8419
 6032TIP3   OH239510   3.114   3.395  13.366 -0.5027  0.3402 -0.0463
 6032TIP3    H139511   3.095   3.337  13.440 -0.2607  0.3890  0.0547
 6032TIP3    H239512   3.209   3.408  13.369 -0.4364  0.0448 -0.5802
 6033TIP3   OH239513   6.609   4.581   2.945  0.5595 -0.3440  0.0385
 6033TIP3    H139514   6.576   4.512   3.002 -0.1430 -0.5890 -0.6573
 6033TIP3    H239515   6.626   4.655   3.004  0.1014 -0.6874  0.6005
 6034TIP3   OH239516   4.136   1.406  11.843  0.2868 -0.4358 -0.4529
 6034TIP3    H139517   4.073   1.403  11.914 -0.1439 -0.2167 -0.8225
 6034TIP3    H239518   4.116   1.330  11.789  0.0018 -0.0806 -0.8530
 6035TIP3   OH239519   5.173   5.398  11.830 -0.2025  0.1860 -0.0966
 6035TIP3    H139520   5.115   5.472  11.851  0.9816  1.4688 -1.3121
 6035TIP3    H239521   5.197   5.412  11.739 -0.9873 -2.4170 -0.7298
 6036TIP3   OH239522   6.543   1.918  13.136 -0.0655 -0.0177 -0.0724
 6036TIP3    H139523   6.610   1.877  13.082  0.7701  1.2348 -0.0112
 6036TIP3    H239524   6.463   1.870  13.116  0.6427 -0.8621 -0.9146
 6037TIP3   OH239525   2.643   3.549   0.889 -0.0434 -0.1137  0.2925
 6037TIP3    H139526   2.556   3.513   0.907  0.7150 -2.4980 -0.6178
 6037TIP3    H239527   2.654   3.539   0.794  2.1385 -2.0528  0.7058
 6038TIP3   OH239528   4.716   5.671  14.547 -0.3264  0.0745  0.5343
 6038TIP3    H139529   4.759   5.607  14.490 -0.1149  0.2417  0.5088
 6038TIP3    H239530   4.624   5.642  14.549 -0.2258 -0.2538  0.5544
 6039TIP3   OH239531   2.126   0.181  12.939  0.6693  0.4402  0.9421
 6039TIP3    H139532   2.163   0.249  12.995  2.4127  0.5613 -0.3283
 6039TIP3    H239533   2.148   0.209  12.850 -3.2256  0.9518  0.0638
 6040TIP3   OH239534   4.572   6.505  11.854  0.1307 -0.3710 -0.4134
 6040TIP3    H139535   4.502   6.441  11.845 -0.5661 -0.1437  2.8090
 6040TIP3    H239536   4.528   6.586  11.880  1.4241  0.2248 -0.0257
 6041TIP3   OH239537   3.083   6.648   5.890 -0.0424  0.1646  0.0104
 6041TIP3    H139538   2.989   6.635   5.875  0.1155  0.2631 -1.1091
 6041TIP3    H239539   3.125   6.617   5.810  0.8557  0.5472  0.3214
 6042TIP3   OH239540   5.644   6.506  13.415 -0.5767  0.1529 -0.5898
 6042TIP3    H139541   5.638   6.411  13.429 -1.5360 -0.0022 -1.9046
 6042TIP3    H239542   5.684   6.540  13.495  0.3642 -1.4379 -0.3693
 6043TIP3   OH239543   4.623   5.216  16.552  0.6207 -0.2092  0.0560
 6043TIP3    H139544   4.713   5.246  16.543  0.9816 -0.9855  1.0080
 6043TIP3    H239545   4.630   5.123  16.574 -0.3876 -0.1307  0.7617
 6044TIP3   OH239546   6.722   3.654  14.823 -0.1256  0.2887 -0.2053
 6044TIP3    H139547   6.627   3.662  14.822 -0.2593 -0.9090  0.7241
 6044TIP3    H239548   6.743   3.602  14.745 -0.3503 -0.4288  0.2059
 6045TIP3   OH239549   3.985   2.757  12.013 -0.3431  0.4309 -0.1444
 6045TIP3    H139550   4.057   2.694  12.007  0.1012  1.0598 -1.6744
 6045TIP3    H239551   4.018   2.825  12.070  0.6643  1.1838 -1.5858
 6046TIP3   OH239552   4.691   0.784  12.374 -0.0658 -0.4312  0.1003
 6046TIP3    H139553   4.647   0.829  12.446 -0.2521  1.9588 -1.4456
 6046TIP3    H239554   4.774   0.755  12.412 -0.9238 -0.8027  1.7473
 6047TIP3   OH239555   2.870   1.503   2.002  0.0601  0.4559 -0.3301
 6047TIP3    H139556   2.849   1.463   2.086  0.7550  0.0485 -0.3499
 6047TIP3    H239557   2.786   1.506   1.956 -0.2793  0.4696  0.2892
 6048TIP3   OH239558   0.473   6.708  13.460 -0.3422 -0.0071  0.3437
 6048TIP3    H139559   0.499   6.747  13.376  0.0409 -1.2016 -0.1043
 6048TIP3    H239560   0.479   6.614  13.445 -2.3901 -0.2644  1.0614
 6049TIP3   OH239561   5.314   5.395   4.885  0.2970 -0.5312 -0.1391
 6049TIP3    H139562   5.262   5.458   4.836 -0.7691 -1.1008  0.2451
 6049TIP3    H239563   5.310   5.314   4.833  3.3502  0.2420 -1.6892
 6050TIP3   OH239564   5.894   1.051   0.578 -0.1754 -0.7605  0.2308
 6050TIP3    H139565   5.932   0.988   0.517  1.7638 -0.9756  1.6241
 6050TIP3    H239566   5.898   1.007   0.663  2.5108  1.6908  1.4706
 6051TIP3   OH239567   3.655   1.520  14.168 -0.0540  0.5532 -0.3822
 6051TIP3    H139568   3.588   1.480  14.113  3.1479 -2.6999 -2.1047
 6051TIP3    H239569   3.653   1.469  14.249  1.7895 -1.0976 -1.3189
 6052TIP3   OH239570   4.236   5.205   0.719  0.2374  0.1378 -0.1513
 6052TIP3    H139571   4.174   5.139   0.751  0.4290  0.0667  0.0753
 6052TIP3    H239572   4.183   5.266   0.669 -0.0656  0.2483  0.3024
 6053TIP3   OH239573   1.319   3.623   0.523 -0.3618 -0.2880 -0.2609
 6053TIP3    H139574   1.248   3.586   0.470 -1.6493 -0.3050  1.4528
 6053TIP3    H239575   1.381   3.551   0.534 -1.4029 -1.0548  0.5404
 6054TIP3   OH239576   1.613   1.648  13.793 -0.5942 -0.0214  0.2019
 6054TIP3    H139577   1.639   1.733  13.757 -0.7700 -0.8573 -2.0011
 6054TIP3    H239578   1.571   1.603  13.720  1.2006 -2.7449  0.7567
 6055TIP3   OH239579   2.456   2.910  15.985  0.2414  0.3652  0.1785
 6055TIP3    H139580   2.365   2.889  15.963  0.4070 -0.4820  0.3029
 6055TIP3    H239581   2.494   2.942  15.903  0.0389  0.0114 -0.0526
 6056TIP3   OH239582   2.621   0.265  11.474 -0.0203  0.7612 -0.8100
 6056TIP3    H139583   2.646   0.339  11.418 -1.3313  0.8049 -1.3684
 6056TIP3    H239584   2.573   0.206  11.416 -2.9754  1.6480  0.5965
 6057TIP3   OH239585   3.169   5.443   1.248 -0.2348  0.3066 -0.4135
 6057TIP3    H139586   3.125   5.374   1.298  1.1414  0.6938  1.3589
 6057TIP3    H239587   3.099   5.506   1.228 -0.5161  0.9827  2.4673
 6058TIP3   OH239588   0.938   2.023  10.931  0.1071 -0.2243  0.2636
 6058TIP3    H139589   0.863   2.076  10.905  0.9338  1.1620  0.6764
 6058TIP3    H239590   0.995   2.083  10.980  0.8315 -1.5987  1.1481
 6059TIP3   OH239591   5.723   5.497   3.974 -0.2313  0.0924 -0.3020
 6059TIP3    H139592   5.808   5.506   3.930 -0.9625 -1.5610 -2.1330
 6059TIP3    H239593   5.728   5.412   4.018 -1.0728 -0.1846 -0.7363
 6060TIP3   OH239594   3.706   3.086  13.905 -0.0372 -0.4002  0.2500
 6060TIP3    H139595   3.784   3.041  13.936  0.4200  0.8342  0.9420
 6060TIP3    H239596   3.680   3.141  13.979 -0.7587  0.2380 -0.4733
 6061TIP3   OH239597   6.373   3.260  16.904  0.6213  0.1740 -0.4510
 6061TIP3    H139598   6.411   3.206  16.974  0.6202 -0.1575 -0.7052
 6061TIP3    H239599   6.385   3.350  16.934  4.1051  0.2383 -1.7427
 6062TIP3   OH239600   2.182   3.966   0.305  0.3717  0.1975  0.1607
 6062TIP3    H139601   2.219   4.008   0.382 -0.3955  2.7366 -0.8046
 6062TIP3    H239602   2.255   3.961   0.243  0.4561  0.0763  0.2672
 6063TIP3   OH239603   2.434   4.894  14.507 -0.2488 -0.4705  0.0094
 6063TIP3    H139604   2.357   4.933  14.465  0.4710  0.8722 -0.0817
 6063TIP3    H239605   2.410   4.887  14.599  0.0217  1.2295  0.2183
 6064TIP3   OH239606   1.545   6.767  10.805  0.4647 -0.1959 -0.8966
 6064TIP3    H139607   1.570   6.800  10.719  2.5300 -0.1572 -0.3295
 6064TIP3    H239608   1.551   6.843  10.863  0.5557 -0.5352 -0.4553
 6065TIP3   OH239609   1.305   3.499   5.278 -0.1274  0.3910 -0.2258
 6065TIP3    H139610   1.378   3.538   5.326  1.5733 -1.0719 -1.5098
 6065TIP3    H239611   1.267   3.436   5.339  0.2783  0.4913  0.1343
 6066TIP3   OH239612   1.852   6.038  16.027 -0.4471  0.3873 -0.5590
 6066TIP3    H139613   1.905   6.072  15.956 -0.6890  1.5187 -0.2086
 6066TIP3    H239614   1.778   6.098  16.033  0.5847  1.4906  1.9454
 6067TIP3   OH239615   2.119   0.645  12.929  0.1648 -0.1246 -0.2669
 6067TIP3    H139616   2.037   0.607  12.959  1.5131 -2.5730  0.5000
 6067TIP3    H239617   2.115   0.639  12.834 -0.3081 -0.7368 -0.2091
 6068TIP3   OH239618   5.759   1.868  15.550 -0.4470 -0.2581 -0.2923
 6068TIP3    H139619   5.713   1.882  15.468 -1.7954  0.8280  0.6273
 6068TIP3    H239620   5.770   1.956  15.587  1.3806 -0.6114  0.0255
 6069TIP3   OH239621   2.940   3.813  12.523 -0.2942 -0.8091  0.1865
 6069TIP3    H139622   2.878   3.810  12.596 -0.9613  2.1483 -0.2095
 6069TIP3    H239623   2.887   3.795  12.446  0.1258 -2.3240  0.2239
 6070TIP3   OH239624   5.182   6.716   3.767  0.1464  0.1023 -0.2204
 6070TIP3    H139625   5.222   6.631   3.746  0.0839  0.3668 -1.4743
 6070TIP3    H239626   5.243   6.758   3.827  0.2924 -0.7418  0.2218
 6071TIP3   OH239627   5.312   4.839  13.321 -0.2293 -0.1341 -0.1716
 6071TIP3    H139628   5.237   4.786  13.293  0.9640 -1.7504 -0.3852
 6071TIP3    H239629   5.286   4.930  13.303 -1.1795 -0.8460 -2.5283
 6072TIP3   OH239630   1.705   2.224  12.427  0.6770  0.5063  0.0051
 6072TIP3    H139631   1.775   2.189  12.371  0.8513 -1.2062  1.2715
 6072TIP3    H239632   1.654   2.147  12.453  0.3667  1.3131  1.8708
 6073TIP3   OH239633   5.151   2.190  13.186 -0.1241  0.3718  0.0665
 6073TIP3    H139634   5.164   2.095  13.181 -1.0763  0.1480  1.6606
 6073TIP3    H239635   5.056   2.201  13.183 -0.1338  1.1091  2.4440
 6074TIP3   OH239636   5.886   0.992  10.959 -0.0930 -0.3485 -0.2193
 6074TIP3    H139637   5.824   1.011  11.029  0.3011  1.8986 -0.4359
 6074TIP3    H239638   5.832   0.966  10.884 -0.6208 -0.7718  0.3121
 6075TIP3   OH239639   2.557   2.119  10.491 -0.0993  0.5471  0.4794
 6075TIP3    H139640   2.532   2.028  10.506 -0.1362  0.4214 -0.3256
 6075TIP3    H239641   2.652   2.120  10.502 -0.2486  0.7211  1.9878
 6076TIP3   OH239642   5.764   1.967  13.641  0.3609 -0.1330  0.1801
 6076TIP3    H139643   5.754   1.872  13.652  0.7743 -0.2340 -0.2653
 6076TIP3    H239644   5.850   1.976  13.599  1.0543  0.5323  1.7103
 6077TIP3   OH239645   6.309   1.827   2.524 -0.3883 -0.3447  0.1101
 6077TIP3    H139646   6.317   1.805   2.431 -1.8313  0.9994 -0.3524
 6077TIP3    H239647   6.297   1.742   2.567  1.5619 -1.1039 -0.7490
 6078TIP3   OH239648   4.859   5.505  14.367 -0.3158  0.4545  0.3240
 6078TIP3    H139649   4.807   5.426  14.349 -3.3336  2.5797 -0.7520
 6078TIP3    H239650   4.898   5.527  14.282  0.6217  0.0973  0.6511
 6079TIP3   OH239651   2.121   2.493  12.340  0.4380  0.0259 -0.1835
 6079TIP3    H139652   2.114   2.420  12.278 -1.5678 -1.2884  1.4900
 6079TIP3    H239653   2.138   2.450  12.424  0.2498  1.5614  0.6526
 6080TIP3   OH239654   2.056   0.628  13.268 -0.3140 -1.0274  0.3680
 6080TIP3    H139655   2.055   0.639  13.363 -1.4181  0.6178  0.1832
 6080TIP3    H239656   1.967   0.599  13.247 -0.6952  0.6048 -0.3691
 6081TIP3   OH239657   6.318   2.544  13.896  0.2681 -0.0417 -0.1488
 6081TIP3    H139658   6.256   2.496  13.951  0.6406 -0.4052 -0.0470
 6081TIP3    H239659   6.323   2.493  13.815 -0.8196  0.8669 -0.8040
 6082TIP3   OH239660   1.733   6.783  16.083  0.0415  0.0592  0.2701
 6082TIP3    H139661   1.710   6.871  16.053 -0.7238  0.2724  1.4330
 6082TIP3    H239662   1.799   6.797  16.150  1.6433 -0.4080 -1.1644
 6083TIP3   OH239663   0.109   4.708   2.148  0.3574 -0.2869 -0.8118
 6083TIP3    H139664   0.024   4.669   2.169 -0.1402  0.2095 -1.8284
 6083TIP3    H239665   0.087   4.786   2.096  1.4611 -0.4884 -1.5979
 6084TIP3   OH239666   1.276   3.787  12.866 -0.2469  0.1737 -0.7288
 6084TIP3    H139667   1.245   3.761  12.780 -1.1147  0.5176 -0.5338
 6084TIP3    H239668   1.279   3.883  12.863 -1.1951  0.2360 -0.0880
 6085TIP3   OH239669   3.206   3.884   0.169  0.5570 -0.8250  0.0257
 6085TIP3    H139670   3.209   3.950   0.239 -0.2490 -0.9423  0.1856
 6085TIP3    H239671   3.225   3.932   0.089 -0.9141 -0.2068  0.0263
 6086TIP3   OH239672   2.448   5.997  12.028 -0.4764 -0.6534 -0.6234
 6086TIP3    H139673   2.531   6.021  11.986 -0.9123  1.4746 -0.3613
 6086TIP3    H239674   2.473   5.957  12.111  0.3455 -3.0470 -1.9910
 6087TIP3   OH239675   0.343   1.296  16.144 -0.2497 -0.2445  0.7545
 6087TIP3    H139676   0.317   1.373  16.094 -0.8943 -0.4115  0.8279
 6087TIP3    H239677   0.262   1.265  16.184 -0.1159 -1.3763  0.1578
 6088TIP3   OH239678   3.632   6.435   0.380 -0.4997  0.2835 -0.0102
 6088TIP3    H139679   3.659   6.428   0.288 -0.0178  1.4038  0.0400
 6088TIP3    H239680   3.580   6.356   0.395  1.2921 -1.0553 -0.6202
 6089TIP3   OH239681   3.950   5.299  16.807 -0.3399 -0.0461 -0.2580
 6089TIP3    H139682   3.960   5.380  16.757 -0.2754 -1.1231 -1.9965
 6089TIP3    H239683   3.970   5.325  16.897  2.8885  1.1895 -1.2536
 6090TIP3   OH239684   5.055   6.777   0.539 -0.3065 -0.7053  0.0393
 6090TIP3    H139685   5.042   6.730   0.456 -0.1027 -2.5040  1.0082
 6090TIP3    H239686   5.014   6.721   0.605 -0.0839  0.5038  1.2291
 6091TIP3   OH239687   3.704   0.307   1.736 -0.1133  0.5828 -0.0358
 6091TIP3    H139688   3.725   0.400   1.725 -0.8361  0.9559  1.5000
 6091TIP3    H239689   3.787   0.266   1.759 -0.1841  1.2634  1.5243
 6092TIP3   OH239690   0.173   3.185  14.289  0.2743 -0.3789  0.1225
 6092TIP3    H139691   0.150   3.191  14.196  1.9558 -0.2924 -0.3118
 6092TIP3    H239692   0.089   3.179  14.334 -0.7084  2.3949 -1.1950
 6093TIP3   OH239693   3.359   6.358  15.428 -0.1747  0.3440  0.3840
 6093TIP3    H139694   3.381   6.282  15.374  0.6135  0.4706  0.5193
 6093TIP3    H239695   3.421   6.426  15.401 -0.1326  0.5816  1.0589
 6094TIP3   OH239696   1.815   6.088  13.799  0.3691 -0.0251 -0.1890
 6094TIP3    H139697   1.854   6.158  13.747  3.3597 -1.7027 -0.2704
 6094TIP3    H239698   1.744   6.054  13.744  0.2097  1.5714 -0.9842
 6095TIP3   OH239699   0.760   4.100  16.388 -0.0437 -0.1518 -0.2924
 6095TIP3    H139700   0.824   4.085  16.458  1.1492  1.7373 -0.9417
 6095TIP3    H239701   0.809   4.081  16.308 -0.9571 -0.8327 -0.6904
 6096TIP3   OH239702   4.409   0.512   3.930  0.8759 -0.0271  0.0773
 6096TIP3    H139703   4.318   0.505   3.899  1.2608  0.9186 -1.2970
 6096TIP3    H239704   4.408   0.584   3.993  1.3727  2.5744 -2.7578
 6097TIP3   OH239705   4.517   1.082   3.922 -0.1331 -0.4501 -0.2076
 6097TIP3    H139706   4.583   1.022   3.887  0.4296 -0.4984  0.9292
 6097TIP3    H239707   4.487   1.040   4.002 -1.2394 -0.2114 -0.4969
 6098TIP3   OH239708   2.014   2.514   2.995  0.4719  0.1743  0.3051
 6098TIP3    H139709   1.974   2.539   3.079  0.0254 -0.5215  0.3048
 6098TIP3    H239710   1.975   2.574   2.932  0.9170  0.7968  0.6167
 6099TIP3   OH239711   5.787   5.980  15.650 -0.1263 -0.1801  0.0860
 6099TIP3    H139712   5.705   5.942  15.617  0.7130 -0.7986 -1.3152
 6099TIP3    H239713   5.767   6.073  15.660 -1.0389 -0.3383 -0.1513
 6100TIP3   OH239714   6.730   2.035   1.658  0.5879  0.2600 -0.3562
 6100TIP3    H139715   6.699   2.107   1.603 -0.3569  0.1110 -0.0270
 6100TIP3    H239716   6.650   1.992   1.689  1.0977  0.6925  1.6175
 6101TIP3   OH239717   2.903   3.966   4.794  0.4970  0.7583  0.0014
 6101TIP3    H139718   2.957   3.891   4.818 -0.1792 -0.2385 -1.4678
 6101TIP3    H239719   2.962   4.025   4.746  0.7741  0.6441  0.2028
 6102TIP3   OH239720   4.976   2.494   1.335  0.3972  0.1043  0.4189
 6102TIP3    H139721   4.972   2.589   1.326  0.0388  0.0644  0.1567
 6102TIP3    H239722   5.057   2.468   1.291 -0.5731  0.0646 -1.3892
 6103TIP3   OH239723   4.819   4.232  16.402 -0.5515  0.3590 -0.2043
 6103TIP3    H139724   4.774   4.148  16.408 -0.4475  0.2613 -0.8452
 6103TIP3    H239725   4.912   4.211  16.407 -0.4555  0.2806 -2.0508
 6104TIP3   OH239726   5.808   6.624  14.663  0.2832  0.0389 -0.0295
 6104TIP3    H139727   5.836   6.538  14.630  0.5350 -0.3119  1.0586
 6104TIP3    H239728   5.749   6.603  14.736  1.2461  0.7779  0.9835
 6105TIP3   OH239729   2.768   4.323   4.284 -0.1048  0.3477  0.4814
 6105TIP3    H139730   2.802   4.239   4.313  0.1795  0.5960  0.8685
 6105TIP3    H239731   2.845   4.374   4.258 -0.2910  0.4121  0.0366
 6106TIP3   OH239732   1.463   4.939   0.357 -0.7648  0.4620 -0.1247
 6106TIP3    H139733   1.468   4.856   0.404  1.1943  0.4802 -0.2532
 6106TIP3    H239734   1.459   4.914   0.264 -1.9530  0.4824 -0.0850
 6107TIP3   OH239735   5.488   1.137  14.106 -0.2287  0.3502  0.1830
 6107TIP3    H139736   5.464   1.162  14.196 -0.4531  0.5938  0.0602
 6107TIP3    H239737   5.549   1.205  14.078 -0.9039  0.8181 -0.1815
 6108TIP3   OH239738   6.545   2.881   0.565  0.2480  0.0767  0.3541
 6108TIP3    H139739   6.614   2.926   0.516  0.0514 -1.5619 -1.4874
 6108TIP3    H239740   6.470   2.881   0.505 -1.0721  1.0124  1.9767
 6109TIP3   OH239741   1.830   0.738  14.931  0.1877  0.1932 -0.0347
 6109TIP3    H139742   1.760   0.769  14.989  0.1559  1.1685 -0.5852
 6109TIP3    H239743   1.899   0.708  14.991 -1.0105 -1.5306  0.5152
 6110TIP3   OH239744   1.769   6.786  12.788  0.3579 -0.7146  0.0674
 6110TIP3    H139745   1.851   6.747  12.817  0.3689  0.4063  1.5680
 6110TIP3    H239746   1.704   6.754  12.851 -0.1065 -0.4682 -0.2859
 6111TIP3   OH239747   6.331   5.276  11.205 -0.1062 -0.2024 -0.4796
 6111TIP3    H139748   6.397   5.344  11.212 -1.1876  0.7892  0.1916
 6111TIP3    H239749   6.286   5.293  11.122  0.5689 -0.9710 -1.0153
 6112TIP3   OH239750   6.457   2.576  15.847 -0.5371 -0.2398 -0.8663
 6112TIP3    H139751   6.438   2.662  15.808 -0.6104 -0.8073 -2.1343
 6112TIP3    H239752   6.450   2.590  15.941  0.0052  1.2780 -1.0372
 6113TIP3   OH239753   4.347   1.085   1.460 -1.0818 -0.3783  0.0090
 6113TIP3    H139754   4.316   1.012   1.406  1.3664 -0.6328 -1.1026
 6113TIP3    H239755   4.401   1.137   1.400 -1.4198  1.4359  1.2408
 6114TIP3   OH239756   4.459   4.486  14.114  0.1466  0.3049  0.3925
 6114TIP3    H139757   4.430   4.480  14.022 -1.9328  2.5392  0.8487
 6114TIP3    H239758   4.433   4.402  14.152  1.0392 -0.6471 -1.0590
 6115TIP3   OH239759   2.543   6.582   4.734 -0.0500  0.2227 -0.2528
 6115TIP3    H139760   2.600   6.620   4.801 -2.1129 -1.2182  2.4009
 6115TIP3    H239761   2.532   6.491   4.761 -2.6745  0.1774 -1.3169
 6116TIP3   OH239762   0.506   3.856   3.629 -0.5829 -0.2779  0.0215
 6116TIP3    H139763   0.432   3.838   3.687 -1.4554  0.2973 -0.9049
 6116TIP3    H239764   0.514   3.778   3.575 -0.3492 -0.4398  0.2858
 6117TIP3   OH239765   4.461   1.579  13.871 -0.0592 -0.0192 -0.0548
 6117TIP3    H139766   4.544   1.541  13.844 -0.0310  0.5469 -0.7996
 6117TIP3    H239767   4.485   1.661  13.915 -0.1279 -0.7490  1.3526
 6118TIP3   OH239768   2.697   5.949   0.873  0.4752 -0.5201  0.2191
 6118TIP3    H139769   2.686   6.016   0.806  2.9409 -0.3065 -0.0020
 6118TIP3    H239770   2.617   5.955   0.926 -0.1697  1.2990 -0.9145
 6119TIP3   OH239771   2.929   5.749   2.220 -0.3600  0.3259 -0.1703
 6119TIP3    H139772   2.850   5.803   2.225  0.0678  0.9603 -0.1883
 6119TIP3    H239773   2.898   5.659   2.235 -0.9496  0.6772  0.7141
 6120TIP3   OH239774   2.896   2.655  11.261  0.5811 -0.4919 -0.1367
 6120TIP3    H139775   2.974   2.659  11.206  0.5136  0.1681 -0.1955
 6120TIP3    H239776   2.831   2.607  11.208  0.2739  0.7873 -0.9496
 6121TIP3   OH239777   3.283   3.479   1.802  0.0820 -0.4453 -0.0577
 6121TIP3    H139778   3.280   3.430   1.719 -0.4299  0.7957 -0.7813
 6121TIP3    H239779   3.359   3.444   1.847 -0.7012 -2.4610 -0.2197
 6122TIP3   OH239780   2.807   4.267  12.562  0.3808  0.0805  0.5836
 6122TIP3    H139781   2.795   4.358  12.587  2.0256 -0.0748  2.0310
 6122TIP3    H239782   2.839   4.271  12.472 -0.1342  0.8966  0.4348
 6123TIP3   OH239783   1.022   5.844   2.104  0.1057 -0.2720  0.1387
 6123TIP3    H139784   1.044   5.863   2.013  1.8612  0.2756  0.6604
 6123TIP3    H239785   1.048   5.923   2.152 -0.1137 -0.8423  1.2255
 6124TIP3   OH239786   4.760   2.852   1.632 -0.0429  0.8498 -0.4426
 6124TIP3    H139787   4.738   2.867   1.724  0.0175  0.9391 -0.4426
 6124TIP3    H239788   4.823   2.780   1.633  0.2954  1.1457 -0.3811
 6125TIP3   OH239789   4.360   2.467   1.297 -0.0620 -0.0200  0.2946
 6125TIP3    H139790   4.275   2.483   1.337 -0.5149 -0.8806 -0.3244
 6125TIP3    H239791   4.395   2.554   1.279 -0.3764  0.3516  1.4637
 6126TIP3   OH239792   4.391   1.129  17.084  0.1683 -0.3672 -0.1778
 6126TIP3    H139793   4.475   1.116  17.129  0.5126 -0.9332 -0.9718
 6126TIP3    H239794   4.405   1.092  16.997 -0.1587  1.6287 -1.1236
 6127TIP3   OH239795   2.551   2.181  17.163  0.1364  0.5758  0.0090
 6127TIP3    H139796   2.632   2.213  17.203  1.6806 -1.9293 -0.9823
 6127TIP3    H239797   2.482   2.204  17.225  1.9542  0.4406  2.1120
 6128TIP3   OH239798   5.826   1.595  15.592 -0.3665 -0.1338  0.5806
 6128TIP3    H139799   5.837   1.690  15.583 -0.1175 -0.0516  1.6202
 6128TIP3    H239800   5.845   1.578  15.685 -0.7500 -1.1504  0.4778
 6129TIP3   OH239801   4.182   5.638  12.135  0.0709 -0.0443 -0.3421
 6129TIP3    H139802   4.253   5.641  12.071 -0.6924  1.3530 -1.1433
 6129TIP3    H239803   4.227   5.628  12.219  1.2432  1.1437 -0.8092
 6130TIP3   OH239804   2.059   1.081   1.136  0.4777 -0.3128  0.3489
 6130TIP3    H139805   2.090   1.013   1.196  0.5983 -0.0224  0.6200
 6130TIP3    H239806   2.130   1.146   1.135 -0.6991  1.0281  2.0214
 6131TIP3   OH239807   5.228   1.686   0.671  0.1322  0.2076 -0.3509
 6131TIP3    H139808   5.133   1.691   0.682  0.1693  0.1446  0.0147
 6131TIP3    H239809   5.258   1.777   0.669  0.0155  0.2352 -0.9115
 6132TIP3   OH239810   6.460   4.457  11.145 -0.3208 -0.5955 -0.1204
 6132TIP3    H139811   6.526   4.487  11.083 -0.1541 -1.2893 -0.2838
 6132TIP3    H239812   6.418   4.537  11.176  0.6179 -0.1537  0.0067
 6133TIP3   OH239813   0.062   4.701   0.155  0.7413 -0.2821  0.2336
 6133TIP3    H139814  -0.025   4.660   0.155  0.5033  0.1484 -2.9303
 6133TIP3    H239815   0.055   4.771   0.220 -1.5297  0.2733 -0.5750
 6134TIP3   OH239816   2.613   0.675  14.867 -0.0489  0.2387  0.2711
 6134TIP3    H139817   2.524   0.701  14.892  1.0251  2.9907  1.3822
 6134TIP3    H239818   2.637   0.610  14.933 -0.8852  0.1571  0.5123
 6135TIP3   OH239819   4.555   1.285  14.838  0.1615  0.1270 -0.5125
 6135TIP3    H139820   4.462   1.266  14.855  0.2474 -0.0841 -0.2716
 6135TIP3    H239821   4.601   1.206  14.867  0.4952  0.5635  0.1522
 6136TIP3   OH239822   5.739   6.459  12.168 -0.2186 -0.2516 -0.5422
 6136TIP3    H139823   5.685   6.536  12.151 -1.1186 -0.2868  1.9495
 6136TIP3    H239824   5.803   6.458  12.097 -1.1386  1.9255 -1.4377
 6137TIP3   OH239825   0.647   2.827  16.243 -0.2689  0.0175 -0.0007
 6137TIP3    H139826   0.619   2.844  16.153  0.3344  1.9192  0.1685
 6137TIP3    H239827   0.585   2.760  16.274 -0.9920 -0.0614 -1.5499
 6138TIP3   OH239828   2.257   3.482  12.769 -0.5407 -0.1284  0.5181
 6138TIP3    H139829   2.246   3.499  12.863 -0.3320  0.1890  0.4829
 6138TIP3    H239830   2.259   3.386  12.763  2.0010 -0.1561  1.1244
 6139TIP3   OH239831   5.473   2.973   1.076 -0.1035  0.2935 -0.6229
 6139TIP3    H139832   5.475   3.025   1.156 -0.3223  0.1901 -0.5511
 6139TIP3    H239833   5.385   2.937   1.073  0.3306 -0.8515 -0.1648
 6140TIP3   OH239834   3.910   3.533   1.569  0.3011  0.2358  0.2069
 6140TIP3    H139835   3.828   3.579   1.588 -0.9060 -0.9882 -1.9143
 6140TIP3    H239836   3.889   3.441   1.579  1.4973 -0.0783 -0.1271
 6141TIP3   OH239837   5.209   0.510  12.265  0.1204  0.1035 -0.0787
 6141TIP3    H139838   5.193   0.538  12.175 -2.0854  2.5723  1.0384
 6141TIP3    H239839   5.283   0.563  12.295  0.9841 -0.8608 -0.4789
 6142TIP3   OH239840   1.222   5.686   2.593  0.2810  0.1319 -0.0799
 6142TIP3    H139841   1.243   5.707   2.684  1.7824 -0.2831 -0.3148
 6142TIP3    H239842   1.135   5.723   2.580 -0.3812 -0.6966  1.8221
 6143TIP3   OH239843   1.215   6.622   6.662  0.0101  0.3105  0.3095
 6143TIP3    H139844   1.278   6.565   6.705 -0.6682 -0.4367  0.3188
 6143TIP3    H239845   1.249   6.710   6.675 -0.0543  0.0815  2.1700
 6144TIP3   OH239846   3.088   6.334  12.383  0.0483 -0.2641  0.1579
 6144TIP3    H139847   3.087   6.319  12.477 -0.0576 -1.4704 -0.0333
 6144TIP3    H239848   3.169   6.293  12.353  0.1533  0.2379 -0.2571
 6145TIP3   OH239849   0.261   2.238  14.048  0.2670 -0.0660 -0.1586
 6145TIP3    H139850   0.188   2.177  14.058  1.7273 -1.7884  0.3051
 6145TIP3    H239851   0.267   2.282  14.133 -1.3768  1.4316 -0.7948
 6146TIP3   OH239852   2.225   1.667  14.140  0.9888 -0.2704  0.1721
 6146TIP3    H139853   2.319   1.662  14.121  0.3810  0.6915 -3.4895
 6146TIP3    H239854   2.203   1.759  14.125 -0.6393 -0.5948  0.5302
 6147TIP3   OH239855   6.559   2.351   5.150 -0.1137  0.0070  0.1364
 6147TIP3    H139856   6.624   2.300   5.198  0.5725  1.1930  0.4827
 6147TIP3    H239857   6.502   2.285   5.111  2.5213 -1.1552 -1.9288
 6148TIP3   OH239858   2.083   5.286  15.934 -0.2106 -0.0370  0.6381
 6148TIP3    H139859   2.072   5.379  15.949  0.5327 -0.2103  2.4281
 6148TIP3    H239860   2.147   5.280  15.863 -0.6757  0.8197  0.1507
 6149TIP3   OH239861   5.106   4.807  14.907  0.2649 -0.2524 -0.0309
 6149TIP3    H139862   5.017   4.775  14.891 -0.6746  1.5279  1.4062
 6149TIP3    H239863   5.148   4.806  14.821 -1.2482 -0.8040 -0.7803
 6150TIP3   OH239864   1.367   5.501   5.463  0.3870  0.4829 -0.5031
 6150TIP3    H139865   1.378   5.582   5.514  0.7774 -0.5138  1.0325
 6150TIP3    H239866   1.453   5.460   5.464  0.0121 -0.3237 -0.6334
 6151TIP3   OH239867   0.840   0.557  15.381 -0.2649 -0.3619  0.0197
 6151TIP3    H139868   0.753   0.593  15.399 -0.8030 -2.2245  1.2312
 6151TIP3    H239869   0.852   0.570  15.287 -1.9434 -0.2853 -0.1972
 6152TIP3   OH239870   3.600   1.022   6.297  0.2185  0.0723  0.3268
 6152TIP3    H139871   3.559   0.971   6.367 -0.2003  0.5164  0.4080
 6152TIP3    H239872   3.529   1.078   6.263  0.5449  0.2285 -0.1026
 6153TIP3   OH239873   4.543   5.005   2.149 -0.2068  0.3201  0.7513
 6153TIP3    H139874   4.570   5.055   2.226 -1.4028  0.1013  1.3207
 6153TIP3    H239875   4.599   4.928   2.150  1.1957  1.2995  0.2353
 6154TIP3   OH239876   3.069   3.912   1.267 -0.4694  0.3609  0.4383
 6154TIP3    H139877   3.128   3.853   1.314 -0.2503 -0.0791 -0.3642
 6154TIP3    H239878   3.090   3.999   1.300  1.4301  0.3310 -0.6446
 6155TIP3   OH239879   6.241   5.612  13.908  0.2812 -0.1335  0.0739
 6155TIP3    H139880   6.164   5.623  13.964  0.4787 -2.4586  0.8558
 6155TIP3    H239881   6.287   5.537  13.946  2.6064  0.8335 -0.7580
 6156TIP3   OH239882   4.419   0.110   2.701  0.4426 -0.1144  0.0766
 6156TIP3    H139883   4.514   0.104   2.695  0.1842 -3.2418 -1.7110
 6156TIP3    H239884   4.389   0.127   2.612 -0.6416  2.0039  0.8061
 6157TIP3   OH239885   4.506   0.996  13.499 -0.0082 -0.0675  0.4782
 6157TIP3    H139886   4.440   0.928  13.500 -0.7295  0.5593 -1.8052
 6157TIP3    H239887   4.574   0.964  13.440 -0.0118  0.8601 -0.0483
 6158TIP3   OH239888   0.800   6.221  15.777 -0.3683 -0.4580  0.2335
 6158TIP3    H139889   0.793   6.130  15.746  1.3938 -0.0565 -1.4167
 6158TIP3    H239890   0.733   6.268  15.728  0.2145 -0.4520 -0.5640
 6159TIP3   OH239891   2.917   2.033  16.119 -0.1017  0.0392  0.2270
 6159TIP3    H139892   2.887   2.095  16.186 -0.9910 -0.2506  0.1030
 6159TIP3    H239893   2.984   1.981  16.164 -0.6731 -0.1367  0.8885
 6160TIP3   OH239894   5.371   5.979  13.404 -0.5132 -0.5584  0.1022
 6160TIP3    H139895   5.356   6.061  13.451  0.2923 -1.1596  1.4339
 6160TIP3    H239896   5.390   6.006  13.314  1.1903  0.8109  0.8506
 6161TIP3   OH239897   5.121   0.504   5.006  0.0601  0.1677  0.2955
 6161TIP3    H139898   5.096   0.537   5.092  2.5534 -0.8233  1.4255
 6161TIP3    H239899   5.216   0.503   5.007  0.0977 -1.8775 -1.7063
 6162TIP3   OH239900   6.110   2.657  15.622 -0.1254 -0.0183  0.2763
 6162TIP3    H139901   6.204   2.662  15.604 -0.2613 -0.7815 -0.7346
 6162TIP3    H239902   6.069   2.696  15.545 -0.6535 -0.6466  0.2265
 6163TIP3   OH239903   4.181   5.014   1.957 -0.0736  0.0403 -0.0245
 6163TIP3    H139904   4.221   5.035   1.872  1.4434  1.9497  1.1150
 6163TIP3    H239905   4.106   5.073   1.964 -0.2164 -0.1380 -0.0508
 6164TIP3   OH239906   2.469   5.990   3.024 -0.2626  0.4154 -0.3341
 6164TIP3    H139907   2.481   6.023   3.113  0.1511  1.6437 -0.8307
 6164TIP3    H239908   2.468   6.069   2.969 -1.5352 -0.2676 -1.3085
 6165TIP3   OH239909   0.594   4.369   5.050 -0.5204 -1.0841 -0.0191
 6165TIP3    H139910   0.650   4.360   5.127 -1.2424  0.7721  0.7721
 6165TIP3    H239911   0.645   4.424   4.990 -2.0789  2.0467  1.3951
 6166TIP3   OH239912   3.162   3.772  15.303 -0.3591  0.0207  0.4582
 6166TIP3    H139913   3.241   3.823  15.320  1.2615 -2.2015 -0.1720
 6166TIP3    H239914   3.114   3.775  15.386 -0.3724  2.5993  0.4057
 6167TIP3   OH239915   3.019   4.975   3.910  0.4456  0.0971  0.2227
 6167TIP3    H139916   2.984   5.026   3.836  1.2272  0.2813 -0.0200
 6167TIP3    H239917   2.956   4.990   3.980  0.2140  0.7180 -0.1056
 6168TIP3   OH239918   0.168   1.266   1.892  0.1712  0.1102  0.3906
 6168TIP3    H139919   0.091   1.289   1.944 -0.0694 -0.8395  0.4675
 6168TIP3    H239920   0.188   1.175   1.917  0.1251 -0.3158 -1.0735
 6169TIP3   OH239921   4.017   2.916  12.870 -0.2318 -0.1149  0.1846
 6169TIP3    H139922   4.104   2.911  12.907  0.5587  0.4780 -1.5406
 6169TIP3    H239923   3.994   3.009  12.876 -1.2403 -0.4489  1.7204
 6170TIP3   OH239924   3.984   0.620  16.956  0.4218  0.1400 -0.7144
 6170TIP3    H139925   4.053   0.679  16.986  0.3499 -0.5879  0.9196
 6170TIP3    H239926   3.903   0.659  16.989  0.4731 -1.4662  1.3567
 6171TIP3   OH239927   1.453   0.683  15.186  0.3486  0.1231  0.5692
 6171TIP3    H139928   1.476   0.660  15.096  0.1878 -2.6092  1.1657
 6171TIP3    H239929   1.360   0.707  15.181  0.3254 -0.0746  0.0075
 6172TIP3   OH239930   0.425   6.032   2.574 -0.3046 -0.2952  0.2043
 6172TIP3    H139931   0.339   6.066   2.599 -1.1176 -1.1107 -1.3529
 6172TIP3    H239932   0.410   5.939   2.559  1.3001 -0.8412  1.8220
 6173TIP3   OH239933   4.649   1.600  13.306  0.4553 -0.1822 -0.0356
 6173TIP3    H139934   4.584   1.536  13.278  0.4026  0.3763 -1.2507
 6173TIP3    H239935   4.696   1.558  13.377  0.2283 -1.4629 -0.6322
 6174TIP3   OH239936   5.770   6.522  13.052 -0.3655 -0.1392 -0.0232
 6174TIP3    H139937   5.694   6.576  13.075  0.8925  1.8552 -0.4819
 6174TIP3    H239938   5.734   6.454  12.995 -2.1216 -0.3426  1.2996
 6175TIP3   OH239939   5.621   3.233   1.090  0.0030  0.3403 -0.2716
 6175TIP3    H139940   5.536   3.265   1.120  0.2411  0.7970 -0.0795
 6175TIP3    H239941   5.609   3.138   1.081 -0.0971  0.1848  1.2546
 6176TIP3   OH239942   2.710   2.932  15.429  0.1766 -0.1656  0.1410
 6176TIP3    H139943   2.758   3.005  15.393 -1.2652  0.2848 -0.9232
 6176TIP3    H239944   2.766   2.898  15.499  1.6353  0.8386 -0.5237
 6177TIP3   OH239945   2.986   2.359   2.453  0.2688  0.0260 -0.0882
 6177TIP3    H139946   2.955   2.448   2.467  0.1173  0.2432 -1.7735
 6177TIP3    H239947   3.081   2.367   2.448  0.2012  0.2009 -1.0517
 6178TIP3   OH239948   5.206   0.389   2.186 -0.0624  0.3320  0.0939
 6178TIP3    H139949   5.200   0.367   2.094  0.1676 -0.4361  0.2600
 6178TIP3    H239950   5.188   0.483   2.190 -2.4814 -0.0849 -0.4437
 6179TIP3   OH239951   1.510   4.714   2.451 -0.4176  0.3653 -0.5102
 6179TIP3    H139952   1.464   4.645   2.497  0.8375  0.6903  1.2751
 6179TIP3    H239953   1.571   4.668   2.392 -0.1971 -0.0436  0.0404
 6180TIP3   OH239954   3.915   2.731   1.885 -0.0530  0.7481  0.4757
 6180TIP3    H139955   3.941   2.644   1.855 -0.2894  0.5761  0.7718
 6180TIP3    H239956   3.989   2.787   1.862 -0.3853  0.6898 -0.7770
 6181TIP3   OH239957   0.666   5.283  10.626 -0.0759 -0.0161 -0.3479
 6181TIP3    H139958   0.577   5.295  10.592 -0.3693 -0.2691  0.3140
 6181TIP3    H239959   0.677   5.189  10.631  0.3150  0.0141 -0.6322
 6182TIP3   OH239960   0.830   3.242   3.948  0.0290  0.2721 -0.6744
 6182TIP3    H139961   0.758   3.198   3.902 -2.2208  2.1328  0.9594
 6182TIP3    H239962   0.788   3.290   4.019  2.9435  1.1418  0.5631
 6183TIP3   OH239963   4.687   0.621  13.734 -0.4147 -0.4582  0.0963
 6183TIP3    H139964   4.611   0.610  13.791  1.2713  1.1104  2.7247
 6183TIP3    H239965   4.732   0.536  13.737 -1.1884 -0.8837 -0.1977
 6184TIP3   OH239966   0.009   6.139  14.556 -0.7560 -0.3220  0.5026
 6184TIP3    H139967   0.074   6.163  14.622 -3.1711  2.7545  1.9383
 6184TIP3    H239968  -0.064   6.103  14.606 -1.8519  0.2382 -0.6581
 6185TIP3   OH239969   3.141   0.363   2.124 -0.0684  0.0554  0.2499
 6185TIP3    H139970   3.154   0.272   2.097  0.7211 -0.1277  1.2215
 6185TIP3    H239971   3.046   0.372   2.134 -0.0666 -1.0293  1.3863
 6186TIP3   OH239972   1.831   1.643   1.268  0.0775  0.2896 -0.1407
 6186TIP3    H139973   1.886   1.688   1.204  0.5547 -0.1369 -0.0377
 6186TIP3    H239974   1.883   1.567   1.295  0.4403  1.1725  1.7191
 6187TIP3   OH239975   0.734   0.254   3.481  0.2202  0.4113  0.6012
 6187TIP3    H139976   0.717   0.348   3.484 -0.5857  0.2310  2.3599
 6187TIP3    H239977   0.762   0.238   3.391 -0.2664  2.2172  0.0961
 6188TIP3   OH239978   2.609   0.848  16.657 -0.0505  0.2218  0.0218
 6188TIP3    H139979   2.526   0.890  16.678 -0.1596 -0.1710  0.3734
 6188TIP3    H239980   2.631   0.881  16.570 -0.1261  1.0200  0.2987
 6189TIP3   OH239981   6.184   0.830   3.015 -0.0692 -0.0705 -0.4561
 6189TIP3    H139982   6.097   0.815   3.051 -0.8063  0.6057 -1.8939
 6189TIP3    H239983   6.242   0.778   3.070 -1.7118 -2.7583 -1.1251
 6190TIP3   OH239984   1.871   1.387   4.988  0.4036 -0.0889  0.4931
 6190TIP3    H139985   1.850   1.468   4.942  0.2449 -0.8373 -0.7550
 6190TIP3    H239986   1.871   1.320   4.921 -2.2934 -1.6354  1.9299
 6191TIP3   OH239987   1.536   5.956   1.550 -0.4628 -0.4777 -0.0155
 6191TIP3    H139988   1.466   6.012   1.584  2.4430  2.4176  1.5668
 6191TIP3    H239989   1.563   5.903   1.625  0.7094  0.2681  0.1094
 6192TIP3   OH239990   6.247   0.009   5.764  0.1124 -0.1995  0.3759
 6192TIP3    H139991   6.286   0.088   5.803 -1.0821 -0.6949  2.6919
 6192TIP3    H239992   6.321  -0.037   5.725  1.1489  1.0323  0.8417
 6193TIP3   OH239993   5.123   0.944   1.349 -0.1368 -0.3336 -0.0494
 6193TIP3    H139994   5.190   0.910   1.409 -1.4788 -2.1281  0.4362
 6193TIP3    H239995   5.153   0.916   1.262  2.1233  2.7694 -0.3681
 6194TIP3   OH239996   4.328   5.188  11.729  0.3227  0.0975  0.8404
 6194TIP3    H139997   4.379   5.257  11.686  0.2083  0.2584  0.9600
 6194TIP3    H239998   4.246   5.231  11.753  0.5770  0.1442  1.6504
 6195TIP3   OH239999   3.493   2.790   2.578 -0.3332 -0.5359  0.2563
 6195TIP3    H140000   3.424   2.798   2.511 -1.3189 -1.9472  1.0848
 6195TIP3    H240001   3.555   2.727   2.541 -0.2108 -0.3380  0.1222
 6196TIP3   OH240002   2.133   1.431  13.791  0.3727  0.0059 -0.0074
 6196TIP3    H140003   2.166   1.495  13.729  0.6000  0.4865  0.5997
 6196TIP3    H240004   2.178   1.349  13.768  0.0013  0.0326 -0.8523
 6197TIP3   OH240005   0.476   2.478  13.714 -0.1564 -0.1069  0.4555
 6197TIP3    H140006   0.523   2.561  13.704  0.7131 -0.9269 -3.2377
 6197TIP3    H240007   0.545   2.412  13.725 -0.8164 -0.4640  2.7167
 6198TIP3   OH240008   2.653   6.689  16.555  0.2329  0.3999 -0.6784
 6198TIP3    H140009   2.732   6.698  16.608  0.1048 -0.2606 -0.3661
 6198TIP3    H240010   2.604   6.770  16.570  0.6587  0.6297 -0.5459
 6199TIP3   OH240011   4.244   1.320  16.108  0.4733  0.0920  0.2276
 6199TIP3    H140012   4.224   1.227  16.099  0.3552  0.2476 -1.1457
 6199TIP3    H240013   4.339   1.326  16.092  0.5642  0.1600  0.7530
 6200TIP3   OH240014   4.429   5.695   2.749  0.2346  0.1814  0.0613
 6200TIP3    H140015   4.346   5.649   2.735 -0.1463  1.0102 -0.4093
 6200TIP3    H240016   4.480   5.635   2.804  0.4085 -1.5926 -1.9381
 6201TIP3   OH240017   5.530   3.803   5.739  0.1550  0.1441 -0.2524
 6201TIP3    H140018   5.593   3.786   5.668  0.9391  1.0766  0.2139
 6201TIP3    H240019   5.476   3.724   5.742 -0.1553  0.2626 -2.1603
 6202TIP3   OH240020   5.619   3.796  13.863  0.0580 -0.0541  0.2774
 6202TIP3    H140021   5.570   3.857  13.918  1.4317  2.9068 -1.6526
 6202TIP3    H240022   5.572   3.795  13.779  0.9734 -0.3810 -0.2417
 6203TIP3   OH240023   2.506   1.696  13.005 -0.2183 -0.0886  0.2049
 6203TIP3    H140024   2.426   1.735  13.040 -0.2692 -1.0893  1.1960
 6203TIP3    H240025   2.556   1.771  12.973 -0.5060  0.7648  1.7036
 6204TIP3   OH240026   4.212   6.050   4.547  0.2720  0.8158  0.3120
 6204TIP3    H140027   4.178   6.022   4.461 -1.2472 -0.2428  1.2387
 6204TIP3    H240028   4.295   6.094   4.526  1.2946 -1.8182 -1.4828
 6205TIP3   OH240029   5.966   5.385   0.371 -0.0177 -0.4866  0.3811
 6205TIP3    H140030   5.945   5.400   0.279 -1.4766  0.9168  0.9239
 6205TIP3    H240031   5.980   5.291   0.377 -2.8575 -1.0327 -0.6907
 6206TIP3   OH240032   2.972   3.694   1.457  0.3156  0.3136 -0.0950
 6206TIP3    H140033   3.056   3.668   1.495  0.9538  1.8742 -0.3822
 6206TIP3    H240034   2.921   3.728   1.530 -0.0093 -0.4779  0.0505
 6207TIP3   OH240035   6.102   2.447   6.153  0.6359 -0.0848  0.2009
 6207TIP3    H140036   6.061   2.370   6.113  2.2540  0.5090 -2.7647
 6207TIP3    H240037   6.135   2.415   6.237  0.2626 -2.3269 -0.4562
 6208TIP3   OH240038   5.430   6.531  14.330 -0.1084 -0.0681  0.0494
 6208TIP3    H140039   5.377   6.514  14.408  1.9068  0.2290  1.5270
 6208TIP3    H240040   5.455   6.444  14.299  0.0035 -0.1555  0.3828
 6209TIP3   OH240041   6.641   1.241  15.628  0.0926 -0.1285  0.1201
 6209TIP3    H140042   6.683   1.166  15.586  0.5649  0.7315 -0.9819
 6209TIP3    H240043   6.667   1.236  15.719 -1.2055 -2.2129  0.3914
 6210TIP3   OH240044   2.887   1.410  15.216  0.2965 -0.4586  0.6118
 6210TIP3    H140045   2.980   1.391  15.223  0.6114  1.2196  1.1366
 6210TIP3    H240046   2.882   1.487  15.158 -0.8330 -1.1602 -0.2477
 6211TIP3   OH240047   1.814   0.722   5.827 -0.0339 -0.4004  0.4484
 6211TIP3    H140048   1.830   0.815   5.843 -2.9938  0.2449  0.1176
 6211TIP3    H240049   1.744   0.699   5.889 -2.1958 -1.3227 -2.2172
 6212TIP3   OH240050   5.189   2.741  11.596 -0.3131 -0.5150 -0.2376
 6212TIP3    H140051   5.269   2.724  11.646 -0.1751 -1.4749 -0.7639
 6212TIP3    H240052   5.220   2.774  11.512 -0.4693 -0.8088 -0.4108
 6213TIP3   OH240053   1.065   2.524   2.523  0.0604 -0.5457 -0.1605
 6213TIP3    H140054   1.019   2.598   2.483  1.4211  1.0825  1.2012
 6213TIP3    H240055   1.090   2.469   2.449 -2.6107 -0.6530 -1.0545
 6214TIP3   OH240056   2.305   0.205  12.028  0.2565  0.2190 -0.1979
 6214TIP3    H140057   2.320   0.226  12.120 -1.1043 -1.4374  0.4383
 6214TIP3    H240058   2.356   0.125  12.013 -1.9017 -1.2486 -0.0100
 6215TIP3   OH240059   6.640   2.942  17.136 -0.1990 -0.2066  0.0002
 6215TIP3    H140060   6.560   2.912  17.092 -0.7736 -0.4121  1.1709
 6215TIP3    H240061   6.710   2.919  17.075 -0.6434 -3.6924  0.7056
 6216TIP3   OH240062   0.881   0.755  11.368 -0.3868 -0.5462 -0.4659
 6216TIP3    H140063   0.800   0.705  11.354  0.3174 -1.5723 -0.9767
 6216TIP3    H240064   0.950   0.689  11.366  0.3683  0.1767  1.1269
 6217TIP3   OH240065   1.110   3.434   0.545  0.3150 -0.2250 -0.7156
 6217TIP3    H140066   1.077   3.523   0.530  0.0538  0.1989  2.1603
 6217TIP3    H240067   1.116   3.396   0.457  1.7311  3.0675 -2.1314
 6218TIP3   OH240068   2.348   2.857   3.992 -0.1236 -0.0657 -0.4325
 6218TIP3    H140069   2.356   2.762   4.000  0.6199  0.0660  0.4223
 6218TIP3    H240070   2.284   2.882   4.059  1.3219  0.2853  0.8368
 6219TIP3   OH240071   5.890   0.904   5.862  0.2850 -0.1514 -0.6025
 6219TIP3    H140072   5.884   0.999   5.866  1.1342 -0.0727 -1.1868
 6219TIP3    H240073   5.806   0.876   5.827 -0.9143  0.2171  1.8935
 6220TIP3   OH240074   3.182   0.200   3.359 -0.0939 -0.3203 -0.2311
 6220TIP3    H140075   3.245   0.270   3.373  1.7835 -2.6508  3.5761
 6220TIP3    H240076   3.214   0.155   3.280 -0.6575  2.2543 -2.0118
 6221TIP3   OH240077   5.005   5.553   2.692  0.4173  0.2383 -0.0808
 6221TIP3    H140078   5.006   5.505   2.774  1.2846 -0.8014 -0.6914
 6221TIP3    H240079   5.024   5.644   2.716  1.4955 -0.2103  0.7666
 6222TIP3   OH240080   5.588   2.338   3.467 -0.6520 -0.0790  0.2742
 6222TIP3    H140081   5.593   2.392   3.387  2.5903 -0.1490  0.3887
 6222TIP3    H240082   5.605   2.249   3.437  0.3919 -0.1303  1.0152
 6223TIP3   OH240083   1.476   2.393   2.662  0.4934 -0.3688  0.4196
 6223TIP3    H140084   1.506   2.483   2.657  0.3445 -0.3282  0.2550
 6223TIP3    H240085   1.391   2.397   2.706  0.1817 -0.3564 -0.1699
 6224TIP3   OH240086   2.681   5.555  11.691  0.1276 -0.0573  0.1130
 6224TIP3    H140087   2.685   5.521  11.781  1.4516 -1.4979 -0.4678
 6224TIP3    H240088   2.608   5.507  11.651  1.3881 -1.5574 -0.4239
 6225TIP3   OH240089   2.127   4.306  16.808  0.4216 -0.4731  0.2837
 6225TIP3    H140090   2.163   4.279  16.893  0.5587  0.6922  0.6080
 6225TIP3    H240091   2.156   4.397  16.798 -1.1310 -0.0139 -0.1619
 6226TIP3   OH240092   0.353   1.563   1.064 -0.3078 -0.4515  0.0253
 6226TIP3    H140093   0.303   1.635   1.101 -0.8287 -0.9236  0.2575
 6226TIP3    H240094   0.417   1.604   1.007 -0.0659  0.2359  0.7845
 6227TIP3   OH240095   2.789   2.701  12.216 -0.5609 -0.0080 -0.0528
 6227TIP3    H140096   2.794   2.765  12.287  0.5555 -0.7492  0.5491
 6227TIP3    H240097   2.800   2.753  12.136 -0.7247  0.6868  0.3767
 6228TIP3   OH240098   4.641   6.593  13.083 -0.3143 -0.6611  0.7425
 6228TIP3    H140099   4.710   6.606  13.018 -3.7320  0.4702 -2.8574
 6228TIP3    H240100   4.627   6.498  13.085  1.3952 -0.9224  1.6560
 6229TIP3   OH240101   1.030   6.721  11.478  0.2631 -0.0357  0.1406
 6229TIP3    H140102   0.996   6.637  11.447 -2.4070  0.2827  2.0013
 6229TIP3    H240103   0.970   6.786  11.441  1.8229  1.0156 -0.6057
 6230TIP3   OH240104   6.692   0.375   4.248  0.4466 -0.2530  0.1953
 6230TIP3    H140105   6.776   0.398   4.286  0.6269  0.3772 -0.5690
 6230TIP3    H240106   6.627   0.399   4.315  0.9628 -2.3109  1.4811
 6231TIP3   OH240107   0.803   3.720  11.921 -0.4226  0.3206  0.0898
 6231TIP3    H140108   0.814   3.699  11.828 -0.5035  1.4941 -0.1928
 6231TIP3    H240109   0.834   3.642  11.967  0.0011 -0.1127 -0.9123
 6232TIP3   OH240110   5.688   1.305  11.589  0.0536 -0.3660 -0.1233
 6232TIP3    H140111   5.782   1.294  11.582  0.1060  0.3645 -0.6054
 6232TIP3    H240112   5.656   1.298  11.499 -0.3655 -0.7288  0.0525
 6233TIP3   OH240113   5.938   4.226   2.532  0.3478 -0.4137 -0.0442
 6233TIP3    H140114   5.984   4.143   2.520  1.0485  0.1491 -1.4188
 6233TIP3    H240115   6.007   4.292   2.528 -0.1887  0.2282  1.1690
 6234TIP3   OH240116   0.825   2.715   1.762  0.1901 -0.2513 -0.0715
 6234TIP3    H140117   0.882   2.757   1.697 -0.0450 -0.6945 -0.5707
 6234TIP3    H240118   0.788   2.640   1.715 -1.6292  0.6366 -0.0916
 6235TIP3   OH240119   0.952   6.481   1.961 -0.1101  0.1810 -0.0952
 6235TIP3    H140120   0.978   6.412   1.900 -0.5650 -0.8377  0.8453
 6235TIP3    H240121   0.956   6.562   1.909 -0.8465 -0.7034 -1.5835
 6236TIP3   OH240122   1.589   4.529  16.325 -0.3877  0.2728 -0.4600
 6236TIP3    H140123   1.618   4.595  16.262  0.7354 -0.9281 -1.2485
 6236TIP3    H240124   1.671   4.495  16.363 -1.0375  0.9128  1.5992
 6237TIP3   OH240125   4.493   3.152  11.475  0.3294 -0.6215  0.5243
 6237TIP3    H140126   4.501   3.058  11.461  0.0952 -0.8261  1.6800
 6237TIP3    H240127   4.530   3.166  11.563 -0.4241  0.2358  0.7088
 6238TIP3   OH240128   0.074   0.169   0.608  0.0306 -0.0225 -0.2727
 6238TIP3    H140129   0.098   0.206   0.693  0.1601 -1.4128  0.3088
 6238TIP3    H240130  -0.010   0.125   0.623 -1.1074  1.6474 -1.4220
 6239TIP3   OH240131   0.175   6.631  17.084 -0.0129  0.0087  0.1005
 6239TIP3    H140132   0.215   6.583  17.156  1.2329  2.0057  0.7785
 6239TIP3    H240133   0.181   6.723  17.109 -2.0375  0.5848 -1.3244
 6240TIP3   OH240134   6.502   4.057   3.451  1.1868 -0.5293 -0.1089
 6240TIP3    H140135   6.580   4.037   3.502  1.0359 -0.0609  0.3120
 6240TIP3    H240136   6.535   4.109   3.377  1.0481  1.3445  1.1068
 6241TIP3   OH240137   0.375   0.466   4.838  0.5833 -0.4364 -0.2700
 6241TIP3    H140138   0.452   0.519   4.821 -0.9118  1.4429 -1.3919
 6241TIP3    H240139   0.341   0.498   4.922  0.1602 -0.1844 -0.5333
 6242TIP3   OH240140   6.180   3.539   4.240  0.2076  0.6671  0.0363
 6242TIP3    H140141   6.127   3.471   4.198  1.4852 -0.2895 -0.0608
 6242TIP3    H240142   6.139   3.621   4.213 -1.2555 -0.0377  0.0099
 6243TIP3   OH240143   0.556   1.734  12.692  0.3560 -0.1254 -0.2635
 6243TIP3    H140144   0.492   1.779  12.747 -0.4179 -1.7284  0.1897
 6243TIP3    H240145   0.502   1.683  12.631  1.2143  0.1179 -1.2379
 6244TIP3   OH240146   0.758   3.960   4.912  0.2765 -0.2984  0.0088
 6244TIP3    H140147   0.668   3.991   4.920  0.4407  0.6031 -1.3923
 6244TIP3    H240148   0.811   4.036   4.935  0.6773 -0.6962  0.3907
 6245TIP3   OH240149   0.175   1.919  16.853  0.1833  0.1308 -0.0532
 6245TIP3    H140150   0.106   1.853  16.866  0.5091 -0.6098 -1.8519
 6245TIP3    H240151   0.174   1.971  16.933 -1.5218 -0.7482  0.5333
 6246TIP3   OH240152   0.772   6.684   2.379  0.6390 -0.2730 -0.4043
 6246TIP3    H140153   0.750   6.754   2.441 -0.0309 -1.3993  0.6360
 6246TIP3    H240154   0.745   6.718   2.294 -2.3628 -0.4028  0.4401
 6247TIP3   OH240155   3.534   6.458  11.679  0.0467  0.2130 -0.0797
 6247TIP3    H140156   3.570   6.372  11.658 -1.0121  0.3033 -2.3062
 6247TIP3    H240157   3.580   6.519  11.622 -0.4081  0.9176  0.2876
 6248TIP3   OH240158   1.883   4.142  17.199  0.3758 -0.2113  0.7320
 6248TIP3    H140159   1.822   4.147  17.126 -1.7132 -2.3708  2.2489
 6248TIP3    H240160   1.868   4.222  17.249  0.3676  0.2961 -0.0780
 6249TIP3   OH240161   5.275   2.059   1.709  0.0253 -0.5420  0.4112
 6249TIP3    H140162   5.202   2.118   1.694 -0.8269 -1.7770 -0.3690
 6249TIP3    H240163   5.318   2.093   1.788 -1.2019  0.3697  0.6901
 6250TIP3   OH240164   4.196   1.917   1.122 -0.0242 -0.0210 -0.1674
 6250TIP3    H140165   4.257   1.982   1.089 -1.1647  1.2016  0.1044
 6250TIP3    H240166   4.112   1.963   1.129 -1.4428 -2.1550 -2.2758
 6251TIP3   OH240167   6.742   3.972  17.204 -0.1258 -0.0010 -0.0088
 6251TIP3    H140168   6.730   4.015  17.119 -0.0157  0.4503  0.2012
 6251TIP3    H240169   6.836   3.953  17.208 -0.5101 -2.1825 -1.0141
 6252TIP3   OH240170   6.536   4.708   4.849  0.6710 -0.4242  0.0958
 6252TIP3    H140171   6.566   4.790   4.888  0.4747 -0.8068  1.0505
 6252TIP3    H240172   6.440   4.712   4.856  0.4326  0.9091 -3.1653
 6253TIP3   OH240173   1.751   3.208   0.117 -0.1301  0.2312 -0.0902
 6253TIP3    H140174   1.807   3.144   0.159 -0.0251 -0.1176 -0.7670
 6253TIP3    H240175   1.811   3.270   0.076 -0.2279 -0.2786 -1.0250
 6254TIP3   OH240176   0.012   0.930  16.322  0.4265  0.1836 -0.1000
 6254TIP3    H140177   0.050   0.895  16.241  0.4281  0.2329 -0.1201
 6254TIP3    H240178  -0.081   0.943  16.301  0.2959 -0.3896  0.0991
 6255TIP3   OH240179   1.520   1.099   6.443  0.4243 -0.4741 -0.2737
 6255TIP3    H140180   1.613   1.115   6.458  0.6945 -0.8160 -1.5465
 6255TIP3    H240181   1.476   1.141   6.518  1.6449 -1.0693  0.7930
 6256TIP3   OH240182   2.441   1.836  13.407 -0.3585 -0.3613 -0.0192
 6256TIP3    H140183   2.361   1.881  13.433  0.8735  0.7571  1.9822
 6256TIP3    H240184   2.475   1.798  13.488  0.8253 -1.3375 -0.9447
 6257TIP3   OH240185   1.253   0.402   0.609 -0.0405  0.4869 -0.1810
 6257TIP3    H140186   1.302   0.477   0.577 -1.9683  1.0819 -1.8298
 6257TIP3    H240187   1.215   0.431   0.692 -2.2778  2.0232 -1.6846
 6258TIP3   OH240188   4.276   2.552   1.619  0.2591  0.3685 -0.7333
 6258TIP3    H140189   4.366   2.528   1.596  0.7517  2.1951 -0.7505
 6258TIP3    H240190   4.280   2.645   1.638 -1.2776  0.0764  1.1391
 6259TIP3   OH240191   4.416   6.011   4.082  0.3933 -0.1044 -0.3128
 6259TIP3    H140192   4.444   5.962   4.005  2.2188  1.3270 -0.6032
 6259TIP3    H240193   4.474   5.980   4.152  0.6922  0.6920 -0.2027
 6260TIP3   OH240194   4.258   1.427   4.611 -0.0907 -0.0629 -0.7725
 6260TIP3    H140195   4.254   1.336   4.582  0.9247 -1.1325  2.2753
 6260TIP3    H240196   4.297   1.474   4.538  2.5490 -2.6765 -1.1356
 6261TIP3   OH240197   3.967   5.741   6.572 -0.0741 -0.7852  0.4135
 6261TIP3    H140198   3.974   5.764   6.480 -0.0461  0.8877  0.8245
 6261TIP3    H240199   4.052   5.764   6.609  0.2964 -2.4752  0.6390
 6262TIP3   OH240200   2.243   1.222  14.521  0.2423  0.5266  0.4932
 6262TIP3    H140201   2.327   1.188  14.550  1.2117  2.2407 -0.2194
 6262TIP3    H240202   2.179   1.185  14.582  1.3024 -2.0490  0.0858
 6263TIP3   OH240203   4.412   5.288   2.722 -0.5787 -0.1051 -0.3798
 6263TIP3    H140204   4.374   5.375   2.739  0.0739  0.3342 -1.1369
 6263TIP3    H240205   4.337   5.234   2.698 -0.6993  0.8545 -2.2421
 6264TIP3   OH240206   2.520   4.658  13.703 -0.5026 -0.2329 -0.3786
 6264TIP3    H140207   2.595   4.648  13.644 -1.1969  1.6654 -1.6586
 6264TIP3    H240208   2.557   4.652  13.791  1.2187  1.0049 -0.9829
 6265TIP3   OH240209   5.270   5.282   0.819 -0.3785 -0.7065  0.7700
 6265TIP3    H140210   5.325   5.210   0.787 -0.4943  0.0333 -1.1870
 6265TIP3    H240211   5.332   5.343   0.858  0.1400 -0.1648 -0.8777
 6266TIP3   OH240212   0.838   5.710   3.255 -0.7363  0.5323  0.2597
 6266TIP3    H140213   0.831   5.706   3.160 -0.3523  2.8710  0.1133
 6266TIP3    H240214   0.762   5.759   3.283 -1.5833 -1.3078  1.3119
 6267TIP3   OH240215   5.211   6.390   3.875  0.1384 -0.0236  0.3314
 6267TIP3    H140216   5.265   6.419   3.949 -1.3555 -1.7678  2.1583
 6267TIP3    H240217   5.266   6.327   3.829 -0.1522 -1.4982  1.9551
 6268TIP3   OH240218   1.686   5.898   3.243  0.6932  0.0551  0.3711
 6268TIP3    H140219   1.667   5.848   3.163  0.5050 -0.9487  1.0354
 6268TIP3    H240220   1.604   5.894   3.293  1.7918 -2.0394  2.0613
 6269TIP3   OH240221   3.816   0.646  11.703 -0.6665  0.4093  0.3702
 6269TIP3    H140222   3.778   0.730  11.679  1.9742  1.2232 -1.1379
 6269TIP3    H240223   3.849   0.659  11.792 -1.4127  0.5559  0.6289
 6270TIP3   OH240224   4.013   0.802  14.900  0.9158 -0.7917  0.3738
 6270TIP3    H140225   3.990   0.784  14.992  2.1761 -0.1070  0.8283
 6270TIP3    H240226   4.092   0.856  14.905 -0.2095  1.0675 -1.0583
 6271TIP3   OH240227   5.131   2.146   2.366  0.3166 -0.1995 -0.9942
 6271TIP3    H140228   5.067   2.076   2.354 -1.0127  0.7890  0.2538
 6271TIP3    H240229   5.215   2.100   2.376  0.0079 -1.4642 -3.5966
 6272TIP3   OH240230   1.950   6.520   1.415 -0.4170 -0.5697 -0.0378
 6272TIP3    H140231   1.942   6.440   1.467 -3.9901 -0.1361  0.1641
 6272TIP3    H240232   1.877   6.516   1.353  0.5723  1.5629 -1.4006
 6273TIP3   OH240233   0.816   2.890   3.589 -0.2560 -0.0770 -0.1063
 6273TIP3    H140234   0.847   2.817   3.644 -0.7601 -0.0716  0.1939
 6273TIP3    H240235   0.893   2.945   3.577 -0.0614 -0.2421  0.3440
 6274TIP3   OH240236   0.154   2.013   4.325  0.3919 -0.4121  0.3652
 6274TIP3    H140237   0.213   2.037   4.254  0.0158  0.9259  0.4913
 6274TIP3    H240238   0.120   1.927   4.301  1.4488 -0.6468 -0.3062
 6275TIP3   OH240239   5.487   6.454  12.279 -0.1517  0.0532  0.0263
 6275TIP3    H140240   5.475   6.455  12.374 -1.4640  2.5291 -0.1228
 6275TIP3    H240241   5.581   6.445  12.266  0.2467  1.8667  1.6015
 6276TIP3   OH240242   4.208   5.899   5.518  0.0879  0.1571  0.0878
 6276TIP3    H140243   4.207   5.815   5.564 -4.7070  0.6024  1.0519
 6276TIP3    H240244   4.186   5.878   5.428  0.2675  0.2511  0.0211
 6277TIP3   OH240245   0.544   4.121   2.221 -0.5675  0.5934 -0.0484
 6277TIP3    H140246   0.465   4.076   2.250 -2.2283  1.8527 -2.4033
 6277TIP3    H240247   0.517   4.211   2.207  1.9575  1.6660  1.6245
 6278TIP3   OH240248   5.663   5.020   5.034  0.0700 -0.0740 -0.1614
 6278TIP3    H140249   5.629   5.046   5.120  1.5229  1.6703 -0.0847
 6278TIP3    H240250   5.747   5.066   5.027  2.3231 -4.0419 -0.4463
 6279TIP3   OH240251   6.142   4.539   2.188  0.7387  0.4429  0.3572
 6279TIP3    H140252   6.085   4.612   2.209  1.9765  0.9911  1.8409
 6279TIP3    H240253   6.083   4.464   2.183 -0.6109  1.5910 -1.6627
 6280TIP3   OH240254   5.913   5.336  16.854  0.1149 -0.5214  0.2142
 6280TIP3    H140255   5.918   5.241  16.862 -0.9943 -0.5645  0.4036
 6280TIP3    H240256   5.956   5.355  16.771 -0.5755 -1.2798 -0.3294
 6281TIP3   OH240257   6.243   6.355  15.219 -0.1482 -0.0808 -0.0051
 6281TIP3    H140258   6.304   6.298  15.174  0.6692 -0.0663  1.0632
 6281TIP3    H240259   6.294   6.395  15.290 -1.1611  0.6036  0.3620
 6282TIP3   OH240260   4.710   6.408  16.077  0.6528  0.7110  0.2437
 6282TIP3    H140261   4.659   6.372  16.150  0.2173  1.0046  0.0870
 6282TIP3    H240262   4.797   6.422  16.113  0.3648  1.1207  0.7985
 6283TIP3   OH240263   1.267   5.038   0.543  0.4690  0.0340  0.1171
 6283TIP3    H140264   1.311   5.011   0.462 -1.6308 -1.6460 -0.4952
 6283TIP3    H240265   1.246   5.130   0.530  0.0161 -0.2687 -1.3080
 6284TIP3   OH240266   0.999   4.217   3.946 -0.0224  0.6440  0.6093
 6284TIP3    H140267   1.065   4.264   3.997  0.1099 -0.3847  1.4058
 6284TIP3    H240268   0.925   4.209   4.006  0.5929 -1.6774  1.1102
 6285TIP3   OH240269   5.106   1.252   1.360 -0.5559  0.3816  0.5288
 6285TIP3    H140270   5.100   1.161   1.388 -1.8523 -0.1674 -1.4681
 6285TIP3    H240271   5.025   1.293   1.392 -0.7835  0.4015 -0.0613
 6286TIP3   OH240272   0.880   1.673   0.567  0.3432  0.8819 -0.1589
 6286TIP3    H140273   0.828   1.601   0.602  1.0317  0.6123  0.3184
 6286TIP3    H240274   0.820   1.720   0.508 -1.1758  1.9593  2.1667
 6287TIP3   OH240275   3.019   3.178   1.585  0.3162 -0.2952 -0.6969
 6287TIP3    H140276   2.967   3.256   1.601 -0.1648 -0.8540  0.6353
 6287TIP3    H240277   3.001   3.122   1.661 -0.5060 -2.3234 -2.3192
 6288TIP3   OH240278   2.688   4.203  14.789  0.0655  0.0704 -0.1267
 6288TIP3    H140279   2.640   4.213  14.871  0.7405 -0.4548  0.3422
 6288TIP3    H240280   2.733   4.287  14.777 -0.2073  0.2230 -0.0701
 6289TIP3   OH240281   5.703   2.830  14.648 -0.1176 -0.0848 -0.7470
 6289TIP3    H140282   5.658   2.859  14.568 -0.6137 -2.2030 -1.2807
 6289TIP3    H240283   5.787   2.877  14.647  0.1960 -0.6460 -2.9170
 6290TIP3   OH240284   3.757   1.162   5.863  0.2206 -0.2919  0.1765
 6290TIP3    H140285   3.751   1.214   5.944 -1.7638 -0.3371  0.0909
 6290TIP3    H240286   3.730   1.074   5.890 -1.4453 -0.0789 -0.7068
 6291TIP3   OH240287   2.439   2.652   6.071 -0.7491  0.1623  0.4527
 6291TIP3    H140288   2.363   2.702   6.101 -0.8469  1.2947 -1.6301
 6291TIP3    H240289   2.515   2.702   6.104 -0.8782 -0.2569  1.4042
 6292TIP3   OH240290   2.182   0.182  17.055 -0.2076  0.0609  0.2727
 6292TIP3    H140291   2.248   0.215  17.117  0.4064  0.5981 -0.6448
 6292TIP3    H240292   2.160   0.259  17.002 -0.3146 -0.5201 -0.5250
 6293TIP3   OH240293   4.947   6.363   0.364 -0.1626 -1.2093  0.5384
 6293TIP3    H140294   5.030   6.317   0.374  1.3695  1.3931  0.3701
 6293TIP3    H240295   4.910   6.327   0.283  1.8613 -0.9098 -0.5807
 6294TIP3   OH240296   3.313   1.575  15.038 -0.2426  0.1657  0.1083
 6294TIP3    H140297   3.361   1.649  15.001 -0.7829  1.0985  1.2624
 6294TIP3    H240298   3.260   1.542  14.966  0.5019  0.4772 -0.5879
 6295TIP3   OH240299   2.850   1.670   3.570 -0.8810 -0.2270  0.6344
 6295TIP3    H140300   2.801   1.589   3.561 -0.7122 -0.1860 -0.7609
 6295TIP3    H240301   2.793   1.737   3.532 -1.4507  0.4819  2.6934
 6296TIP3   OH240302   2.718   0.150   5.824 -0.1878 -0.3624 -0.0629
 6296TIP3    H140303   2.647   0.087   5.838 -0.3558 -0.1792 -0.0869
 6296TIP3    H240304   2.674   0.235   5.821 -0.1570 -0.3961 -1.8111
 6297TIP3   OH240305   4.190   6.362   0.454 -0.3526  0.0439  0.3894
 6297TIP3    H140306   4.134   6.347   0.531  0.5893 -2.2474  0.6482
 6297TIP3    H240307   4.255   6.293   0.457  2.8325  2.9002  0.3105
 6298TIP3   OH240308   1.342   5.431   4.728 -0.1009 -0.0147 -0.5009
 6298TIP3    H140309   1.384   5.514   4.709 -1.8924  0.5257 -2.2736
 6298TIP3    H240310   1.331   5.389   4.642 -3.2308 -0.0536 -0.1563
 6299TIP3   OH240311   5.565   4.930  13.112  0.3940 -0.2146 -0.2177
 6299TIP3    H140312   5.598   4.953  13.199  0.5309  0.1998 -0.3751
 6299TIP3    H240313   5.479   4.892  13.128  0.2044  0.3280  0.0670
 6300TIP3   OH240314   0.070   3.673  11.394 -0.1705 -0.1154  0.2837
 6300TIP3    H140315   0.008   3.641  11.328  2.5086  0.8054 -2.7923
 6300TIP3    H240316   0.122   3.597  11.418 -0.9574 -0.3889  1.1355
 6301TIP3   OH240317   2.098   5.415  11.325 -0.2061 -0.7770  0.2910
 6301TIP3    H140318   2.014   5.439  11.287 -0.2302  0.0422  0.8454
 6301TIP3    H240319   2.152   5.389  11.250  0.0312  1.6580 -0.4204
 6302TIP3   OH240320   3.408   3.474  15.197 -0.2855 -0.0765 -0.6186
 6302TIP3    H140321   3.470   3.505  15.131 -3.2901  1.6565 -2.7357
 6302TIP3    H240322   3.422   3.532  15.272  0.7086  0.2266 -1.0277
 6303TIP3   OH240323   3.002   0.159   6.802 -1.3073  0.7975  0.2127
 6303TIP3    H140324   3.068   0.125   6.742 -2.1589 -0.8910  0.2057
 6303TIP3    H240325   2.924   0.106   6.785 -2.0873  1.4785  1.5589
 6304TIP3   OH240326   0.229   1.530   5.414 -0.4429 -0.1645  0.0554
 6304TIP3    H140327   0.150   1.554   5.365  0.2259 -0.9087 -1.4295
 6304TIP3    H240328   0.227   1.434   5.417  1.3526 -0.3124 -1.6912
 6305TIP3   OH240329   6.673   4.367   2.070  0.4394  0.3330 -0.3356
 6305TIP3    H140330   6.613   4.307   2.114  0.4829  1.8159  1.8727
 6305TIP3    H240331   6.677   4.443   2.129  1.9160  1.6446 -2.0769
 6306TIP3   OH240332   1.621   5.614  11.812  0.8276 -0.1364 -0.2027
 6306TIP3    H140333   1.548   5.562  11.777  0.1930 -0.3368  1.4022
 6306TIP3    H240334   1.638   5.679  11.744 -0.6465 -0.2797 -0.7300
 6307TIP3   OH240335   2.453   5.393  15.884 -0.0642 -0.3927 -0.0250
 6307TIP3    H140336   2.406   5.466  15.844 -1.4681 -1.1779  0.1613
 6307TIP3    H240337   2.533   5.433  15.918 -1.0721  1.1844  0.5789
 6308TIP3   OH240338   5.153   1.238  16.713 -0.2652 -0.0016 -0.2159
 6308TIP3    H140339   5.119   1.149  16.711 -0.3507  0.0100  0.6946
 6308TIP3    H240340   5.160   1.259  16.806  0.8200  0.5346 -0.4165
 6309TIP3   OH240341   5.213   4.013  11.077  0.5701  0.4998  0.0630
 6309TIP3    H140342   5.135   4.068  11.076 -1.3030 -2.0700 -1.3898
 6309TIP3    H240343   5.180   3.925  11.094  3.4017 -0.3332  1.5556
 6310TIP3   OH240344   2.652   0.975   1.752 -0.3770  0.0576  1.1328
 6310TIP3    H140345   2.688   1.034   1.818  0.1096  1.7069 -0.5548
 6310TIP3    H240346   2.585   1.028   1.707 -1.4488 -1.3813  0.9901
 6311TIP3   OH240347   5.387   5.933   6.553  0.2561 -0.3483 -0.2285
 6311TIP3    H140348   5.430   5.950   6.637 -0.5414  0.0174  0.1142
 6311TIP3    H240349   5.385   6.018   6.509 -2.0769  0.1079  0.6984
 6312TIP3   OH240350   5.288   1.506  13.875 -0.0699 -0.3774  0.6307
 6312TIP3    H140351   5.225   1.484  13.806  0.2950 -0.7826  0.4206
 6312TIP3    H240352   5.373   1.503  13.831  0.0571  0.6058  0.8092
 6313TIP3   OH240353   2.779   1.235  16.786  0.0957 -0.2138  0.0109
 6313TIP3    H140354   2.692   1.202  16.764 -0.0990 -1.3540  2.3363
 6313TIP3    H240355   2.764   1.326  16.813 -0.5469 -0.7136  1.3891
 6314TIP3   OH240356   0.142   4.660   0.565 -0.2321 -0.2224 -0.1456
 6314TIP3    H140357   0.172   4.643   0.655  0.4784 -0.1718 -0.3654
 6314TIP3    H240358   0.158   4.578   0.519  1.0005  0.2771 -0.6352
 6315TIP3   OH240359   2.866   0.865   4.007 -0.0207  0.6164  0.2696
 6315TIP3    H140360   2.864   0.925   4.081  0.7986  0.1313  0.6964
 6315TIP3    H240361   2.920   0.792   4.037 -1.5344 -0.6307 -0.0166
 6316TIP3   OH240362   0.162   0.118  17.234 -0.0994 -0.3936 -0.2618
 6316TIP3    H140363   0.216   0.062  17.289  0.3946 -2.2961 -2.5707
 6316TIP3    H240364   0.195   0.206  17.249  0.3234 -0.9152  2.0700
 6317TIP3   OH240365   6.766   2.348  15.770  0.1918  0.1290 -0.1399
 6317TIP3    H140366   6.777   2.353  15.865 -0.6917 -2.6164  0.1805
 6317TIP3    H240367   6.832   2.406  15.734  1.0116  0.6563  2.1466
 6318TIP3   OH240368   4.395   6.670   5.592  0.0433  0.1887 -0.0160
 6318TIP3    H140369   4.458   6.626   5.535 -0.2052 -1.5320  0.9886
 6318TIP3    H240370   4.311   6.630   5.571 -0.7308  2.4172 -1.2927
 6319TIP3   OH240371   1.780   5.690   4.622 -0.0002  0.1771  0.0976
 6319TIP3    H140372   1.844   5.710   4.553  0.6857 -0.4442  0.5363
 6319TIP3    H240373   1.823   5.717   4.703  0.1090 -1.1299  0.4936
 6320TIP3   OH240374   1.715   6.428  15.237 -0.0155  0.0596 -0.5688
 6320TIP3    H140375   1.713   6.467  15.150  0.2357 -0.7174 -0.9268
 6320TIP3    H240376   1.686   6.338  15.224 -2.9848  0.7736  0.5982
 6321TIP3   OH240377   5.372   4.791  16.300 -0.2295 -0.2914  0.2646
 6321TIP3    H140378   5.321   4.732  16.244  0.1302 -0.6351  0.2945
 6321TIP3    H240379   5.449   4.740  16.325 -1.1674 -0.7152  2.3811
 6322TIP3   OH240380   5.257   0.390   0.864  0.3531 -0.1566 -0.0200
 6322TIP3    H140381   5.350   0.397   0.843  0.4086  0.9620  0.5759
 6322TIP3    H240382   5.250   0.423   0.953 -0.6977  0.2495 -0.2472
 6323TIP3   OH240383   5.204   5.248  12.410 -0.1788 -0.2966  0.4247
 6323TIP3    H140384   5.128   5.251  12.352 -0.4362  0.8387  0.8103
 6323TIP3    H240385   5.192   5.323  12.468  1.0369 -0.3488  0.7408
 6324TIP3   OH240386   0.246   6.029   6.223 -0.5774  0.2911 -0.1032
 6324TIP3    H140387   0.210   5.941   6.230 -1.7798  0.8813  1.1796
 6324TIP3    H240388   0.170   6.087   6.224  0.2569  1.4097 -0.0199
 6325TIP3   OH240389   5.117   0.613   1.369 -0.0183 -0.6261  0.2535
 6325TIP3    H140390   5.043   0.624   1.430  0.2652  3.8541 -0.0753
 6325TIP3    H240391   5.190   0.588   1.426 -0.7544 -0.7927  1.1526
 6326TIP3   OH240392   4.362   5.392   1.227 -0.3611  0.4361 -0.1743
 6326TIP3    H140393   4.342   5.323   1.165 -0.0226  0.0235  0.1718
 6326TIP3    H240394   4.292   5.388   1.292 -0.4151  0.5067 -0.2276
 6327TIP3   OH240395   5.653   6.110   1.812  0.0390  0.3093  0.3464
 6327TIP3    H140396   5.671   6.022   1.779 -1.3812  0.2257 -0.2073
 6327TIP3    H240397   5.686   6.108   1.902  2.8798  0.2016 -0.6276
 6328TIP3   OH240398   4.023   5.978  15.591 -0.2976  0.5373 -0.5095
 6328TIP3    H140399   4.063   5.949  15.509 -0.6976  1.9297 -1.2295
 6328TIP3    H240400   4.096   6.010  15.643 -0.1328  0.3928 -0.6512
 6329TIP3   OH240401   3.315   6.404   3.793 -0.0059 -0.0449 -0.0629
 6329TIP3    H140402   3.297   6.455   3.714  1.5152 -0.7831 -0.9296
 6329TIP3    H240403   3.311   6.467   3.864 -3.0277  0.3252 -0.5138
 6330TIP3   OH240404   5.861   3.786   4.922 -0.0583 -0.7299 -0.2097
 6330TIP3    H140405   5.931   3.835   4.879 -0.5927  1.1614  0.9816
 6330TIP3    H240406   5.873   3.806   5.015 -2.0990 -0.5112  0.0096
 6331TIP3   OH240407   5.230   4.524  15.310  0.2000 -0.2789  0.4461
 6331TIP3    H140408   5.188   4.464  15.249  1.0034 -1.3216  0.9018
 6331TIP3    H240409   5.177   4.519  15.389  0.8727 -1.2196  0.8516
 6332TIP3   OH240410   4.667   2.773   4.193  0.4984 -0.6526 -0.4234
 6332TIP3    H140411   4.640   2.802   4.106  1.9474 -0.3575 -0.7867
 6332TIP3    H240412   4.613   2.696   4.211 -1.5725  0.7427 -0.5168
 6333TIP3   OH240413   5.037   4.276  16.093 -0.3924  0.2171  0.6185
 6333TIP3    H140414   5.056   4.280  16.187  2.1709  0.0636  0.1539
 6333TIP3    H240415   4.978   4.349  16.076 -1.3052 -0.0815  2.4347
 6334TIP3   OH240416   4.811   1.700   3.913 -0.1989  0.7182  0.2259
 6334TIP3    H140417   4.820   1.698   4.009 -1.3463  0.3390  0.3383
 6334TIP3    H240418   4.876   1.637   3.881  0.8658  1.5674  0.6941
 6335TIP3   OH240419   4.777   3.824  15.659 -0.0720 -0.3410  0.1294
 6335TIP3    H140420   4.830   3.893  15.699  2.3559 -1.8934 -0.3124
 6335TIP3    H240421   4.789   3.836  15.565  0.0348 -1.1315  0.0414
 6336TIP3   OH240422   3.773   0.389  17.150 -0.1492 -0.6707  0.1837
 6336TIP3    H140423   3.708   0.427  17.092  1.0387  0.2236 -0.5900
 6336TIP3    H240424   3.800   0.308  17.106  0.2902 -0.3171 -0.1954
 6337TIP3   OH240425   6.169   3.280   5.522  0.1205 -0.2268  0.2636
 6337TIP3    H140426   6.086   3.312   5.487 -0.4352 -1.0944  0.7600
 6337TIP3    H240427   6.144   3.208   5.579  1.2814 -0.9206 -0.1002
 6338TIP3   OH240428   3.942   1.546  12.521 -0.3209  0.1395 -0.3698
 6338TIP3    H140429   4.028   1.505  12.527 -0.1140  0.4714 -0.9501
 6338TIP3    H240430   3.952   1.614  12.454 -0.5535  1.4021  0.8425
 6339TIP3   OH240431   4.838   2.699  13.606 -0.0786 -0.3360 -0.4359
 6339TIP3    H140432   4.816   2.606  13.602 -1.6892  0.0710 -1.5481
 6339TIP3    H240433   4.869   2.713  13.696  1.3311 -2.1821 -0.6229
 6340TIP3   OH240434   3.512   0.392  15.654 -0.3619  0.3051  0.3838
 6340TIP3    H140435   3.568   0.470  15.653  1.7776 -1.1552 -3.1096
 6340TIP3    H240436   3.425   0.425  15.630  0.7749  1.5024 -2.3092
 6341TIP3   OH240437   0.057   4.550  10.744 -0.0865  0.4701 -0.2305
 6341TIP3    H140438   0.143   4.590  10.735  0.2077  0.0228  0.5417
 6341TIP3    H240439   0.074   4.464  10.782 -0.5927 -0.9198 -2.9934
 6342TIP3   OH240440   0.677   5.258  16.483 -0.0655  0.3158  0.2708
 6342TIP3    H140441   0.751   5.297  16.438 -0.0817  0.3952  0.3103
 6342TIP3    H240442   0.633   5.205  16.416  1.1357 -1.3018  0.7273
 6343TIP3   OH240443   5.888   2.041   2.083 -0.3704 -0.4167 -1.0327
 6343TIP3    H140444   5.907   2.059   2.175  0.2304 -1.1959 -0.9979
 6343TIP3    H240445   5.944   2.101   2.034 -2.0660  1.3205 -0.8821
 6344TIP3   OH240446   2.086   5.893  13.102 -0.5296 -0.0398 -0.4186
 6344TIP3    H140447   2.140   5.960  13.144 -1.8478 -0.1758  1.5739
 6344TIP3    H240448   2.078   5.824  13.168 -1.8932 -0.6971 -1.2558
 6345TIP3   OH240449   2.365   2.228   1.623  0.1253 -0.0275  0.1804
 6345TIP3    H140450   2.420   2.291   1.577  1.1877 -1.8599 -1.1222
 6345TIP3    H240451   2.410   2.211   1.705  0.0257  0.6290  0.3701
 6346TIP3   OH240452   3.552   1.357   0.692  0.1267 -0.0679 -0.1305
 6346TIP3    H140453   3.548   1.344   0.787  1.0709 -1.6392 -0.2862
 6346TIP3    H240454   3.596   1.441   0.680 -0.3150  0.3007  0.8239
 6347TIP3   OH240455   3.490   3.226  15.266  0.0963  0.5498 -0.5659
 6347TIP3    H140456   3.426   3.192  15.329 -1.7321 -1.2631 -3.2644
 6347TIP3    H240457   3.454   3.309  15.237  0.9216  1.3686  0.7069
 6348TIP3   OH240458   2.668   2.043   4.556 -0.4482 -0.3616  0.2022
 6348TIP3    H140459   2.733   2.096   4.509 -2.0093  0.2583 -1.2689
 6348TIP3    H240460   2.687   2.060   4.649  1.5870 -0.3078 -0.1956
 6349TIP3   OH240461   6.381   0.834   5.268  0.1448 -0.3828  0.6684
 6349TIP3    H140462   6.394   0.811   5.176 -2.0397 -0.1931  0.2807
 6349TIP3    H240463   6.299   0.884   5.269  1.0676  1.1758  2.4758
 6350TIP3   OH240464   6.361   5.962  10.992  0.1876 -0.3678 -0.5634
 6350TIP3    H140465   6.398   5.992  10.909  0.1593  1.1841 -0.0319
 6350TIP3    H240466   6.425   5.899  11.025 -0.0034 -1.3267 -1.9409
 6351TIP3   OH240467   6.221   3.061  12.823 -0.3923 -0.0100  0.1372
 6351TIP3    H140468   6.267   3.135  12.863  0.9930 -1.2746  0.9118
 6351TIP3    H240469   6.207   2.999  12.895 -0.9855 -0.7821 -0.6277
 6352TIP3   OH240470   5.080   1.537   0.443  0.8384 -0.3985  0.1074
 6352TIP3    H140471   5.173   1.543   0.423  1.1188  1.2846  1.8028
 6352TIP3    H240472   5.072   1.461   0.500  1.1181 -0.7734 -0.3529
 6353TIP3   OH240473   4.841   0.446  16.452  0.0724 -0.1051  0.5025
 6353TIP3    H140474   4.761   0.405  16.418 -0.3360  2.7539 -2.1909
 6353TIP3    H240475   4.854   0.523  16.397  3.3759  0.8351  2.4537
 6354TIP3   OH240476   6.200   5.770   2.457 -0.2647 -0.4347 -0.3380
 6354TIP3    H140477   6.210   5.745   2.549  0.2454 -0.5567 -0.4273
 6354TIP3    H240478   6.289   5.768   2.422 -0.3777  0.2709 -0.6667
 6355TIP3   OH240479   0.235   5.736   5.189  0.4848  0.4326  0.3150
 6355TIP3    H140480   0.242   5.736   5.285  2.4619 -0.9107  0.2045
 6355TIP3    H240481   0.296   5.668   5.161  1.2108  1.9942 -2.0100
 6356TIP3   OH240482   4.233   4.292   0.377 -0.0039 -0.5745  0.0313
 6356TIP3    H140483   4.208   4.221   0.436 -2.4156  0.0317 -0.1891
 6356TIP3    H240484   4.191   4.271   0.294 -0.4065  0.8814 -0.1476
 6357TIP3   OH240485   4.907   4.210  11.548  0.1345  0.1783 -0.5590
 6357TIP3    H140486   4.958   4.190  11.469  0.2262 -1.0351 -0.1966
 6357TIP3    H240487   4.816   4.211  11.518  0.0659 -1.5837 -0.4282
 6358TIP3   OH240488   0.545   4.247   0.721 -0.5183 -0.2034 -0.5000
 6358TIP3    H140489   0.550   4.310   0.793 -1.9061  0.3945 -0.8894
 6358TIP3    H240490   0.456   4.211   0.727 -0.5381 -0.3923 -1.6893
 6359TIP3   OH240491   4.230   5.750   6.654 -0.0202 -0.0131 -0.1121
 6359TIP3    H140492   4.256   5.738   6.745  1.3078  0.2516 -0.4406
 6359TIP3    H240493   4.285   5.689   6.605 -0.2652  0.3048 -0.7973
 6360TIP3   OH240494   3.272   4.314   2.851 -0.5946  0.1801  0.9448
 6360TIP3    H140495   3.232   4.346   2.931 -1.6208 -1.4105  1.0975
 6360TIP3    H240496   3.202   4.265   2.807  0.2041  0.2760 -0.4775
 6361TIP3   OH240497   3.096   0.035  15.680 -0.0551 -0.1467 -0.5573
 6361TIP3    H140498   3.135   0.038  15.767  0.6977  3.4107 -0.9400
 6361TIP3    H240499   3.167   0.007  15.623  0.2447  0.2432 -0.3824
 6362TIP3   OH240500   6.099   3.838   5.358  0.2592 -0.1073  0.2468
 6362TIP3    H140501   6.180   3.802   5.394 -0.4575  0.1191  2.1258
 6362TIP3    H240502   6.121   3.930   5.340  0.7120 -0.2984 -0.1933
 6363TIP3   OH240503   1.845   1.794   5.013  0.0359  0.5045  0.7021
 6363TIP3    H140504   1.856   1.874   4.962  1.2746  0.3818  0.7568
 6363TIP3    H240505   1.839   1.724   4.948 -0.6201  0.5901  0.6672
 6364TIP3   OH240506   0.737   1.550   4.188  0.4438  0.0359  0.1671
 6364TIP3    H140507   0.756   1.636   4.225  1.2920  0.7152 -1.8031
 6364TIP3    H240508   0.651   1.560   4.145  0.2228 -0.2954  0.5271
 6365TIP3   OH240509   5.942   2.890   1.392  0.0993 -0.4438 -0.1403
 6365TIP3    H140510   5.951   2.892   1.297 -0.7886  0.0343 -0.2168
 6365TIP3    H240511   5.926   2.981   1.417  0.9509 -0.4687  0.5336
 6366TIP3   OH240512   6.041   5.074  13.454  0.1642  0.5054  0.1008
 6366TIP3    H140513   5.989   5.134  13.507 -0.7531  0.4411 -0.7053
 6366TIP3    H240514   6.026   4.988  13.493 -0.4460  0.4696 -0.2027
 6367TIP3   OH240515   3.924   0.431  12.499 -0.4142  0.2008 -0.3633
 6367TIP3    H140516   3.962   0.515  12.525  1.2926 -0.7604  0.3206
 6367TIP3    H240517   3.874   0.403  12.576  1.2036 -0.6523  0.4061
 6368TIP3   OH240518   5.468   5.459   0.905  0.0844 -0.1893 -0.2020
 6368TIP3    H140519   5.553   5.425   0.934  0.5436  1.8543  0.9040
 6368TIP3    H240520   5.487   5.509   0.826 -0.6419 -2.6406 -2.0060
 6369TIP3   OH240521   2.904   0.233  15.866 -0.2489 -0.4528 -0.1821
 6369TIP3    H140522   2.945   0.248  15.951  1.5754  2.0736 -1.4239
 6369TIP3    H240523   2.961   0.169  15.823  0.2424  0.1616 -0.4490
 6370TIP3   OH240524   2.488   2.524   4.210  0.6121  0.6223  0.0447
 6370TIP3    H140525   2.457   2.545   4.121 -1.0577  1.9908  0.9027
 6370TIP3    H240526   2.452   2.438   4.228 -0.5421  1.0791  0.0232
 6371TIP3   OH240527   1.283   6.174   3.362 -0.0756  0.1609 -0.2569
 6371TIP3    H140528   1.202   6.186   3.412 -0.5455 -3.8339  0.1363
 6371TIP3    H240529   1.348   6.227   3.409 -1.8569  1.3470  0.9505
 6372TIP3   OH240530   5.825   4.521   0.507  0.0639 -0.6039  0.5718
 6372TIP3    H140531   5.849   4.534   0.599 -1.4116  1.3148  0.7058
 6372TIP3    H240532   5.857   4.599   0.463 -0.5538 -0.8323 -0.2876
 6373TIP3   OH240533   1.283   2.467  14.251  0.0722  0.4649  0.0620
 6373TIP3    H140534   1.207   2.417  14.282  0.5847 -1.4995 -1.7009
 6373TIP3    H240535   1.264   2.484  14.159  2.2997 -1.1591 -0.7431
 6374TIP3   OH240536   5.514   2.905  16.716 -0.2508 -0.2631  0.1652
 6374TIP3    H140537   5.561   2.934  16.795 -1.0269  1.9763 -0.1456
 6374TIP3    H240538   5.521   2.810  16.717  0.9301 -0.1833  2.2155
 6375TIP3   OH240539   4.216   2.806  14.998  0.2384 -0.7126 -0.6083
 6375TIP3    H140540   4.228   2.851  15.082  0.4936 -1.8019 -0.0630
 6375TIP3    H240541   4.136   2.845  14.962 -1.7755 -2.5344  1.6723
 6376TIP3   OH240542   6.126   6.696   3.193 -0.0028  0.5937 -0.0198
 6376TIP3    H140543   6.150   6.769   3.136  2.6217 -1.4292 -1.6556
 6376TIP3    H240544   6.061   6.647   3.143  0.0820  0.4534  0.0071
 6377TIP3   OH240545   1.684   1.336  12.901 -0.8928 -0.2495  0.4217
 6377TIP3    H140546   1.659   1.248  12.872 -0.3875 -0.9744  2.1544
 6377TIP3    H240547   1.695   1.328  12.995  0.7406  1.2926  0.3837
 6378TIP3   OH240548   2.048   3.565   4.577  0.0764  0.1109  0.0572
 6378TIP3    H140549   2.036   3.651   4.617 -2.0025  0.5934 -1.5356
 6378TIP3    H240550   2.084   3.583   4.490 -2.5713 -0.4405 -1.2010
 6379TIP3   OH240551   1.182   4.850  14.062  0.5112  0.5034  0.4601
 6379TIP3    H140552   1.242   4.792  14.109 -0.1653  0.5440  1.4095
 6379TIP3    H240553   1.202   4.937  14.096 -1.0561  0.3476  1.9064
 6380TIP3   OH240554   6.493   0.379  15.126 -0.5075 -0.1064  0.3307
 6380TIP3    H140555   6.508   0.386  15.032  0.1570 -1.8822  0.2913
 6380TIP3    H240556   6.406   0.417  15.139 -1.8537 -2.4864 -1.4279
 6381TIP3   OH240557   4.586   6.716  15.265  0.3126 -0.5961  0.5272
 6381TIP3    H140558   4.632   6.638  15.297  2.2788  0.5152  0.5612
 6381TIP3    H240559   4.657   6.780  15.250 -1.1383  0.7611 -0.6600
 6382TIP3   OH240560   2.592   5.287   1.010  0.2810 -0.3930 -0.9719
 6382TIP3    H140561   2.626   5.357   1.066  1.4774 -0.8583 -1.1094
 6382TIP3    H240562   2.549   5.333   0.937  2.5216  0.2185 -1.9464
 6383TIP3   OH240563   4.555   6.358   0.199  0.4497  0.0855  0.3234
 6383TIP3    H140564   4.555   6.357   0.103  0.9841  1.2679  0.2864
 6383TIP3    H240565   4.541   6.267   0.225  0.7818 -0.3181 -0.8807
 6384TIP3   OH240566   6.517   6.596   0.578 -0.2131  0.4887  0.1913
 6384TIP3    H140567   6.542   6.504   0.585 -0.4442  0.5002  1.2681
 6384TIP3    H240568   6.433   6.602   0.625  0.7272  1.6101  1.7846
 6385TIP3   OH240569   1.846   4.448   2.912 -0.0814 -0.0617  0.8430
 6385TIP3    H140570   1.762   4.420   2.949 -1.3303  0.8535 -1.1841
 6385TIP3    H240571   1.823   4.523   2.857  1.8639 -0.7663 -0.9531
 6386TIP3   OH240572   3.648   4.994   5.987 -0.5217  0.6547  0.3998
 6386TIP3    H140573   3.633   5.001   5.893  0.2752  1.8001  0.3325
 6386TIP3    H240574   3.589   4.925   6.017 -0.2460 -0.2364 -1.0610
 6387TIP3   OH240575   5.225   4.798  16.531  0.2644  0.2317 -0.4736
 6387TIP3    H140576   5.295   4.817  16.594  1.6445 -0.5760 -1.7163
 6387TIP3    H240577   5.269   4.801  16.446 -0.7689 -2.2398 -1.1389
 6388TIP3   OH240578   5.169   2.095   5.193 -0.4736 -0.7247  0.0484
 6388TIP3    H140579   5.174   2.126   5.283  0.5471 -0.7069 -0.0099
 6388TIP3    H240580   5.259   2.076   5.169 -0.5970  0.3597 -1.3505
 6389TIP3   OH240581   1.613   0.429   0.388  0.4208 -0.2123 -0.7332
 6389TIP3    H140582   1.654   0.446   0.303  1.0222  2.9517  0.0908
 6389TIP3    H240583   1.539   0.490   0.392  1.7598  1.3863  1.8622
 6390TIP3   OH240584   5.125   6.033  14.835 -0.2149  0.0610 -0.1106
 6390TIP3    H140585   5.168   5.991  14.761  0.4282  0.4429  0.0481
 6390TIP3    H240586   5.031   6.026  14.815 -0.1318 -1.5287 -0.0408
 6391TIP3   OH240587   5.413   0.691  16.621  0.4085  0.5391  0.1850
 6391TIP3    H140588   5.351   0.663  16.554  1.4788  1.1768 -1.1037
 6391TIP3    H240589   5.421   0.786  16.607  0.9378  0.6116  0.9722
 6392TIP3   OH240590   2.725   1.219   0.926 -0.1977  0.0338  0.0715
 6392TIP3    H140591   2.747   1.288   0.863 -1.7783  0.2772 -0.2197
 6392TIP3    H240592   2.733   1.137   0.877  1.2889  0.0074  0.3133
 6393TIP3   OH240593   0.129   0.321   6.362  0.3848  0.0607  0.0915
 6393TIP3    H140594   0.098   0.283   6.445  1.3957  0.8522  0.8318
 6393TIP3    H240595   0.155   0.245   6.311  2.9247 -0.2650  1.7826
 6394TIP3   OH240596   0.607   5.903   5.126 -0.0106 -0.5748  1.0365
 6394TIP3    H140597   0.555   5.837   5.080  3.4240 -2.0433 -0.9713
 6394TIP3    H240598   0.602   5.980   5.070  0.3542 -0.8688  0.5937
 6395TIP3   OH240599   3.301   0.171   2.864  0.0739  0.1241  0.1943
 6395TIP3    H140600   3.214   0.209   2.863  1.0123  2.3709 -1.1552
 6395TIP3    H240601   3.342   0.204   2.784  2.3298 -0.4795  1.0584
 6396TIP3   OH240602   4.898   3.909  11.279 -0.0102 -0.1257  0.1542
 6396TIP3    H140603   4.958   3.854  11.229  2.1629  1.3233  1.0800
 6396TIP3    H240604   4.953   3.980  11.312 -2.0629  0.7430  1.8174
 6397TIP3   OH240605   1.322   4.963   4.477 -0.0627 -0.0429 -0.3407
 6397TIP3    H140606   1.245   4.984   4.531 -0.9324  0.0613 -1.5919
 6397TIP3    H240607   1.375   4.907   4.532 -1.4715 -0.8379  0.2351
 6398TIP3   OH240608   5.911   4.078  11.927  0.1829  0.2514 -0.2252
 6398TIP3    H140609   5.942   4.163  11.897  0.9253 -0.4330 -1.4563
 6398TIP3    H240610   5.815   4.085  11.927  0.1722  0.4707 -2.2300
 6399TIP3   OH240611   5.512   0.201  12.082 -0.4709  0.0263 -0.6450
 6399TIP3    H140612   5.591   0.206  12.135 -0.0528  0.2387 -1.2914
 6399TIP3    H240613   5.526   0.263  12.010 -0.5816 -1.0452 -1.6077
 6400TIP3   OH240614   2.989   4.444   4.621 -0.3050 -0.0113 -0.4900
 6400TIP3    H140615   3.028   4.492   4.693 -4.4411  1.2998  1.0002
 6400TIP3    H240616   2.980   4.508   4.551 -1.2203  0.1478 -0.2422
 6401TIP3   OH240617   0.476   4.654  15.344  0.1320  0.1259  0.4482
 6401TIP3    H140618   0.423   4.733  15.342 -1.0361 -0.5619  2.6760
 6401TIP3    H240619   0.446   4.604  15.268  0.5868  1.6122 -0.7311
 6402TIP3   OH240620   2.124   5.643  12.964 -0.1269  0.1175  0.0505
 6402TIP3    H140621   2.121   5.663  12.871 -0.6835  1.3155  0.3122
 6402TIP3    H240622   2.105   5.727  13.007  2.6115  0.1541  1.2883
 6403TIP3   OH240623   6.491   2.640   2.935  0.5521  0.4582  0.1507
 6403TIP3    H140624   6.495   2.595   2.851 -1.0865 -1.5582  1.1149
 6403TIP3    H240625   6.582   2.659   2.957  1.1243 -0.6888 -1.1740
 6404TIP3   OH240626   5.507   5.442  11.906 -0.7385  0.4718 -0.2298
 6404TIP3    H140627   5.489   5.507  11.974 -0.3611 -1.0182  1.3162
 6404TIP3    H240628   5.457   5.364  11.933  2.5412 -1.4543  0.5186
 6405TIP3   OH240629   2.082   5.491  12.515 -0.0499 -0.4464  0.3269
 6405TIP3    H140630   2.091   5.457  12.603 -1.2792 -0.5992  0.4077
 6405TIP3    H240631   2.134   5.433  12.460  0.0395 -0.8426  0.8355
 6406TIP3   OH240632   4.860   0.784  13.566  0.3347 -0.0302 -0.2145
 6406TIP3    H140633   4.875   0.694  13.540 -0.1071  0.1684 -1.1635
 6406TIP3    H240634   4.827   0.778  13.656  1.4732 -0.7282  0.1672
 6407TIP3   OH240635   1.240   6.140  13.283  0.3214  0.1256  0.1056
 6407TIP3    H140636   1.174   6.084  13.324  0.1715  0.5726  0.4789
 6407TIP3    H240637   1.247   6.216  13.341 -1.9633  2.1467 -2.1306
 6408TIP3   OH240638   1.098   2.059   5.278  0.7354  0.5836  0.1409
 6408TIP3    H140639   1.036   2.126   5.249 -0.5314 -0.8098 -0.4410
 6408TIP3    H240640   1.085   1.987   5.216  2.8239  0.2093  0.1181
 6409TIP3   OH240641   4.968   6.278  12.136 -0.6102  0.1622 -0.2596
 6409TIP3    H140642   5.026   6.299  12.063 -0.3845  2.6837  0.5984
 6409TIP3    H240643   4.880   6.299  12.104 -0.8199 -1.3167 -0.7085
 6410TIP3   OH240644   2.997   4.468  14.822  0.0411 -0.5002  0.7074
 6410TIP3    H140645   2.982   4.492  14.914  1.8406 -1.2292  1.2199
 6410TIP3    H240646   3.007   4.552  14.777  1.6906 -0.1679  1.6542
 6411TIP3   OH240647   5.366   1.523  14.351  0.5623 -0.1913  0.3457
 6411TIP3    H140648   5.448   1.539  14.306 -0.1067  2.1073 -0.1080
 6411TIP3    H240649   5.391   1.514  14.443  1.1562  2.4886  0.4982
 6412TIP3   OH240650   1.442   6.694   0.391 -0.1488  0.0472  0.8014
 6412TIP3    H140651   1.481   6.781   0.392 -0.4655  0.2740 -2.1145
 6412TIP3    H240652   1.348   6.710   0.406 -0.5186  0.4524 -1.7024
 6413TIP3   OH240653   1.721   6.067   2.327  0.2710  0.0013 -0.6359
 6413TIP3    H140654   1.781   6.116   2.383  0.2150  0.2283 -0.7746
 6413TIP3    H240655   1.757   5.978   2.326  1.5934  0.5140 -2.1002
 6414TIP3   OH240656   1.946   2.635   1.327 -0.7113  0.6232 -0.0423
 6414TIP3    H140657   1.983   2.597   1.247 -0.1454 -0.7168  0.8616
 6414TIP3    H240658   1.860   2.669   1.299 -0.9697 -0.7745 -0.9901
 6415TIP3   OH240659   1.256   5.590  16.100 -0.0426  0.0699 -0.5726
 6415TIP3    H140660   1.350   5.577  16.114 -0.1538 -0.1539 -0.0092
 6415TIP3    H240661   1.242   5.683  16.117  0.0489  0.0691 -0.4915
 6416TIP3   OH240662   2.758   4.639   6.432 -0.6183 -0.2425 -0.3715
 6416TIP3    H140663   2.678   4.595   6.462 -0.3923 -0.8001 -0.5837
 6416TIP3    H240664   2.822   4.622   6.501 -0.9032  0.8733  0.1783
 6417TIP3   OH240665   3.316   2.854  16.374 -0.1367 -0.4379 -0.7647
 6417TIP3    H140666   3.351   2.839  16.286 -2.2569  0.8490 -1.8770
 6417TIP3    H240667   3.222   2.840  16.365 -0.5578  1.0281  1.0057
 6418TIP3   OH240668   4.748   5.426   5.573  0.1219 -0.3100  0.1084
 6418TIP3    H140669   4.793   5.342   5.586 -0.5772 -0.9435 -1.4097
 6418TIP3    H240670   4.738   5.432   5.478  0.1940  1.5237  0.2050
 6419TIP3   OH240671   5.950   5.104  11.721 -0.5299 -0.0586  0.6830
 6419TIP3    H140672   5.992   5.065  11.797 -1.3033 -0.3100  0.9869
 6419TIP3    H240673   6.022   5.129  11.663  0.0376 -0.2874  1.2935
 6420TIP3   OH240674   4.096   0.489  14.064 -0.3529 -0.6510  0.0032
 6420TIP3    H140675   4.024   0.551  14.053 -0.0053 -0.1729  0.4265
 6420TIP3    H240676   4.106   0.479  14.158  1.2092  0.5430 -0.0157
 6421TIP3   OH240677   5.463   1.363  17.102  0.3592 -0.3678 -0.0160
 6421TIP3    H140678   5.380   1.324  17.075  0.4243  0.3919 -1.3754
 6421TIP3    H240679   5.441   1.421  17.174  0.4369 -3.8314  2.9612
 6422TIP3   OH240680   1.925   4.866  16.620  0.2780  0.3565  0.1701
 6422TIP3    H140681   1.849   4.823  16.660  1.1357 -1.0711  0.3017
 6422TIP3    H240682   1.887   4.921  16.551 -0.8303 -0.8956 -0.2425
 6423TIP3   OH240683   1.624   6.313   0.033 -0.0499 -0.2958 -0.1527
 6423TIP3    H140684   1.597   6.311  -0.058  1.9505 -1.8100 -0.7619
 6423TIP3    H240685   1.695   6.249   0.038  1.1563  1.1274  2.0405
 6424TIP3   OH240686   5.698   4.571  11.397  0.0396 -0.1434  0.2876
 6424TIP3    H140687   5.702   4.660  11.361  0.4534 -0.6733 -0.9962
 6424TIP3    H240688   5.605   4.558  11.418 -0.3034  0.0007 -1.0618
 6425TIP3   OH240689   6.663   0.782   0.695  0.0689  0.9999  0.5419
 6425TIP3    H140690   6.616   0.758   0.776 -0.8296  2.0660  0.3516
 6425TIP3    H240691   6.754   0.760   0.713 -0.3557 -0.2648  1.2601
 6426TIP3   OH240692   4.177   1.373   3.942  0.1998  0.4302 -0.7709
 6426TIP3    H140693   4.167   1.454   3.991  1.6074  0.5468 -0.6584
 6426TIP3    H240694   4.142   1.305   4.000  0.8950  0.7019 -0.0263
 6427TIP3   OH240695   6.752   1.551   5.570  0.3699  0.0730  0.4714
 6427TIP3    H140696   6.789   1.523   5.654  1.7721 -0.3938 -0.2821
 6427TIP3    H240697   6.768   1.645   5.567 -0.6065  0.2718  1.1683
 6428TIP3   OH240698   3.048   6.562   4.002 -0.4733 -0.2075  0.7082
 6428TIP3    H140699   3.121   6.501   4.010  1.0754  1.3946 -0.7821
 6428TIP3    H240700   3.035   6.573   3.908 -2.1376  0.1206  0.9587
 6429TIP3   OH240701   4.970   2.126   4.712  0.2006 -0.2888  0.1002
 6429TIP3    H140702   5.027   2.203   4.716  1.6135 -1.4140  2.5155
 6429TIP3    H240703   4.961   2.108   4.618  2.7948  0.6807 -0.3891
 6430TIP3   OH240704   3.618   5.627   3.479  0.1041  0.2735 -0.1673
 6430TIP3    H140705   3.600   5.716   3.508 -3.0957 -1.1129  2.3397
 6430TIP3    H240706   3.583   5.623   3.390 -2.1689  0.8380  0.6568
 6431TIP3   OH240707   0.919   0.685  15.953  0.5805 -0.0264 -0.4559
 6431TIP3    H140708   0.920   0.590  15.944  0.6198  0.0079 -0.8368
 6431TIP3    H240709   0.983   0.716  15.888  1.9196  0.1585  0.9238
 6432TIP3   OH240710   6.177   4.079  15.717  0.4335 -0.3442 -0.1374
 6432TIP3    H140711   6.178   4.171  15.745  1.9026 -0.5356  0.4880
 6432TIP3    H240712   6.084   4.058  15.709  0.0466  0.8441  0.9004
 6433TIP3   OH240713   4.144   2.061  11.745  0.3352  0.1358  0.0310
 6433TIP3    H140714   4.056   2.045  11.711  1.3070 -3.4521 -1.0196
 6433TIP3    H240715   4.140   2.034  11.837  0.2306  0.4619  0.1231
 6434TIP3   OH240716   6.740   3.119  15.009 -0.0265  0.3116 -0.0079
 6434TIP3    H140717   6.664   3.113  14.952 -0.3255  1.0594  0.3084
 6434TIP3    H240718   6.762   3.028  15.030 -2.0062  0.1384  1.4572
 6435TIP3   OH240719   3.734   0.793   5.285 -0.2364  0.6225 -0.3680
 6435TIP3    H140720   3.705   0.881   5.308 -1.0700  0.4061 -0.5738
 6435TIP3    H240721   3.821   0.805   5.248  0.2752  1.2017  0.9809
 6436TIP3   OH240722   6.225   2.438   3.486 -0.5220 -0.4026  0.2760
 6436TIP3    H140723   6.212   2.470   3.397 -1.3079 -1.1179  0.1308
 6436TIP3    H240724   6.173   2.497   3.541 -2.0133 -1.4582  0.0043
 6437TIP3   OH240725   5.468   3.990  14.019  0.0086  0.1227 -0.2409
 6437TIP3    H140726   5.512   4.011  14.102  1.0710  0.3768 -0.8636
 6437TIP3    H240727   5.396   4.054  14.014 -0.0609  0.1098  0.4808
 6438TIP3   OH240728   0.609   5.063  16.942  0.4610  0.0578 -0.6269
 6438TIP3    H140729   0.649   5.117  16.874  0.4359 -0.1995 -0.8477
 6438TIP3    H240730   0.542   5.012  16.896  0.1223  0.2307 -0.3201
 6439TIP3   OH240731   4.058   4.905   1.431  0.8195  0.3287 -0.3681
 6439TIP3    H140732   4.142   4.951   1.442  2.3764 -2.4360 -0.0500
 6439TIP3    H240733   4.056   4.842   1.503 -1.2073 -0.1451 -0.8181
 6440TIP3   OH240734   3.644   2.223  12.145  0.6819  0.4713 -0.2110
 6440TIP3    H140735   3.671   2.308  12.111  0.1759  0.3784 -0.8386
 6440TIP3    H240736   3.696   2.212  12.225 -0.1809  1.9568  0.5896
 6441TIP3   OH240737   3.103   2.950  16.818  0.4948  0.5697  0.9483
 6441TIP3    H140738   3.016   2.944  16.779  1.3026 -0.3050 -0.7968
 6441TIP3    H240739   3.105   2.881  16.885 -0.2243  0.7416  1.1469
 6442TIP3   OH240740   4.832   3.986   6.328 -0.5266 -0.6093  0.2112
 6442TIP3    H140741   4.829   3.925   6.402 -1.7144 -0.3894  0.3512
 6442TIP3    H240742   4.922   4.017   6.326 -0.1148 -1.7672  0.6396
 6443TIP3   OH240743   3.197   1.239   1.689 -0.1540 -0.2472  0.5405
 6443TIP3    H140744   3.253   1.308   1.654 -0.2556 -0.7145 -0.5874
 6443TIP3    H240745   3.257   1.180   1.735  0.0051  0.3138  1.0446
 6444TIP3   OH240746   5.528   5.334  16.448 -0.1397 -0.0319 -0.3517
 6444TIP3    H140747   5.561   5.300  16.365  0.6045 -1.7973  0.6507
 6444TIP3    H240748   5.590   5.302  16.514 -2.6019 -1.5323  1.3134
 6445TIP3   OH240749   0.595   4.360   0.155 -0.2082 -0.3240  0.0817
 6445TIP3    H140750   0.574   4.319   0.239 -1.6667 -1.8874 -1.0133
 6445TIP3    H240751   0.523   4.335   0.098  0.7510  0.7631 -1.6380
 6446TIP3   OH240752   1.443   2.411  12.687  0.1523  0.3620  0.0202
 6446TIP3    H140753   1.528   2.425  12.644  0.2118  0.0528  0.0342
 6446TIP3    H240754   1.449   2.322  12.723 -0.3512  0.1584 -0.3862
 6447TIP3   OH240755   1.274   2.235   0.810  0.1339  0.0337 -0.3742
 6447TIP3    H140756   1.267   2.307   0.873 -0.0844  0.7297 -1.1794
 6447TIP3    H240757   1.364   2.240   0.777  0.3442 -0.5244  0.1069
 6448TIP3   OH240758   1.066   1.707  13.191  0.1387  0.4900  0.4179
 6448TIP3    H140759   1.100   1.632  13.240 -0.2061  0.1564  0.1566
 6448TIP3    H240760   1.142   1.745  13.149  0.0104 -1.1708 -1.4217
 6449TIP3   OH240761   2.065   1.357   1.956  0.6157  0.4888 -0.0438
 6449TIP3    H140762   1.978   1.319   1.970  0.2459  1.4302  0.2641
 6449TIP3    H240763   2.107   1.354   2.042  1.1797 -0.6800 -0.3594
 6450TIP3   OH240764   0.959   3.959   3.765  0.4169  0.2334  0.2614
 6450TIP3    H140765   0.934   3.981   3.676  0.6843 -0.5499 -0.0049
 6450TIP3    H240766   0.967   4.044   3.809  1.5186  0.6805 -0.7860
 6451TIP3   OH240767   4.650   1.663   1.801  0.6133 -0.1371 -0.3287
 6451TIP3    H140768   4.645   1.749   1.759  0.4331  0.4231  0.8003
 6451TIP3    H240769   4.722   1.671   1.863 -0.1944 -0.3977  0.6604
 6452TIP3   OH240770   4.081   2.435   6.424 -0.0313  0.3131 -0.0846
 6452TIP3    H140771   4.158   2.383   6.403 -0.6077  0.5413 -2.9974
 6452TIP3    H240772   4.115   2.508   6.476  1.4705 -0.4737  0.0732
 6453TIP3   OH240773   5.949   5.844  15.820  0.0453 -0.1815 -0.6535
 6453TIP3    H140774   6.023   5.906  15.824  0.1647 -0.2707 -1.4704
 6453TIP3    H240775   5.887   5.885  15.760 -0.4032 -0.2962 -0.2715
 6454TIP3   OH240776   1.762   6.634   2.957  0.0016  0.2596  0.0276
 6454TIP3    H140777   1.740   6.543   2.976 -0.0822  0.4675  0.9507
 6454TIP3    H240778   1.760   6.640   2.861  0.3688 -0.7929 -0.0478
 6455TIP3   OH240779   3.231   1.232   3.381  1.0564  0.3457 -0.3567
 6455TIP3    H140780   3.266   1.197   3.299 -0.5288 -2.5433  0.1570
 6455TIP3    H240781   3.154   1.282   3.355  0.1407 -1.1590 -0.5935
 6456TIP3   OH240782   6.667   3.926   4.236  0.1846 -0.2403  0.3995
 6456TIP3    H140783   6.658   3.832   4.219 -0.4698  0.0316 -0.8074
 6456TIP3    H240784   6.673   3.966   4.149  1.9882  0.6978  0.9370
 6457TIP3   OH240785   3.306   1.076  13.092  0.2485  0.8316  0.0166
 6457TIP3    H140786   3.331   1.110  13.177 -0.3192  0.6115  0.2800
 6457TIP3    H240787   3.211   1.062  13.099  0.3704 -0.2163 -0.2796
 6458TIP3   OH240788   1.584   1.189   6.753  0.0712 -0.2724  0.0917
 6458TIP3    H140789   1.498   1.149   6.746 -1.2414  2.5518 -0.5362
 6458TIP3    H240790   1.567   1.275   6.791  2.5044  0.7189 -0.9748
 6459TIP3   OH240791   3.457   5.435  11.583 -0.3768 -0.2232 -0.2943
 6459TIP3    H140792   3.380   5.489  11.565  0.1399 -0.0899 -2.2421
 6459TIP3    H240793   3.500   5.480  11.656 -1.5108  0.3630  0.0333
 6460TIP3   OH240794   5.470   3.507   0.845  0.3520 -0.1023  0.4697
 6460TIP3    H140795   5.484   3.602   0.843  1.6724 -0.2918  0.0618
 6460TIP3    H240796   5.484   3.483   0.937 -2.9188  0.4863  1.1888
 6461TIP3   OH240797   3.461   1.020   2.468  0.5950  0.1287 -0.4237
 6461TIP3    H140798   3.381   1.068   2.494 -0.1169 -0.5464 -1.3648
 6461TIP3    H240799   3.445   0.930   2.496  0.9016 -0.0713 -0.8951
 6462TIP3   OH240800   3.978   4.235   3.058  0.2768  1.0646  0.1619
 6462TIP3    H140801   4.005   4.300   3.123  0.1978  0.7226  0.5330
 6462TIP3    H240802   3.939   4.288   2.988  0.1956  1.4208  0.4698
 6463TIP3   OH240803   3.298   5.979   0.024  0.2214 -0.1983 -0.7540
 6463TIP3    H140804   3.302   5.906  -0.039 -0.5583 -0.6075 -0.3349
 6463TIP3    H240805   3.271   5.938   0.106  0.6958  0.4250 -0.2841
 6464TIP3   OH240806   5.619   5.004  16.372  0.0654  0.1166 -0.2937
 6464TIP3    H140807   5.693   5.028  16.428  0.1196  1.9394 -1.1172
 6464TIP3    H240808   5.545   4.997  16.432  0.4310  0.5547  0.2154
 6465TIP3   OH240809   6.036   2.597  16.920 -0.0660  0.2215  0.0252
 6465TIP3    H140810   6.120   2.610  16.877 -0.4618  1.3689 -0.4221
 6465TIP3    H240811   5.979   2.563  16.851 -0.1816  0.2011  0.1295
 6466TIP3   OH240812   1.840   4.137  12.159  0.0299 -0.3216 -0.0540
 6466TIP3    H140813   1.804   4.101  12.240  3.1402  0.0036  1.5609
 6466TIP3    H240814   1.835   4.065  12.096 -0.6717 -1.1942  0.9879
 6467TIP3   OH240815   0.705   0.935   3.057  0.2061  0.3107  0.4785
 6467TIP3    H140816   0.794   0.966   3.071 -0.1343  0.8575  1.4774
 6467TIP3    H240817   0.654   0.975   3.128 -0.8933  0.2714 -0.2772
 6468TIP3   OH240818   5.993   2.762   2.623 -0.0956  0.0197  0.2582
 6468TIP3    H140819   5.911   2.797   2.587  0.7713 -0.3743 -2.2094
 6468TIP3    H240820   6.044   2.840   2.645  0.3944  0.3553 -1.8910
 6469TIP3   OH240821   0.065   2.192  14.493  0.0128  0.5858 -0.4529
 6469TIP3    H140822   0.035   2.183  14.584 -0.2310  0.2498 -0.5667
 6469TIP3    H240823  -0.013   2.176  14.440  0.4067 -0.4314 -0.7529
 6470TIP3   OH240824   0.187   4.163   3.243 -0.0453  0.2524  0.3845
 6470TIP3    H140825   0.182   4.216   3.322  1.5861 -0.6184  1.1048
 6470TIP3    H240826   0.281   4.153   3.226 -0.3696  1.6390 -2.5186
 6471TIP3   OH240827   6.246   0.965   0.477 -1.2225 -0.6837 -0.4879
 6471TIP3    H140828   6.292   1.042   0.511 -1.4678 -0.1370 -1.3653
 6471TIP3    H240829   6.315   0.913   0.436 -1.1453 -0.6371 -0.4170
 6472TIP3   OH240830   5.250   3.347   2.733  0.6504  0.4312 -0.0137
 6472TIP3    H140831   5.277   3.265   2.775  0.4583  0.7176  0.6735
 6472TIP3    H240832   5.317   3.410   2.758 -0.0744  0.8838  0.8089
 6473TIP3   OH240833   6.199   1.142  15.882  0.5106 -0.0561  0.4731
 6473TIP3    H140834   6.113   1.140  15.924  0.8441  0.6499  1.2083
 6473TIP3    H240835   6.242   1.219  15.919  0.5491  1.0335 -1.7078
 6474TIP3   OH240836   4.116   3.754  11.845 -0.2593 -0.6893 -0.3151
 6474TIP3    H140837   4.077   3.712  11.768  0.2324 -0.4284 -0.7099
 6474TIP3    H240838   4.198   3.707  11.858 -0.5953 -1.0919  0.3838
 6475TIP3   OH240839   4.061   1.730   4.782 -0.1427 -0.7508  0.1164
 6475TIP3    H140840   3.992   1.793   4.799 -0.4218 -1.7297  2.8644
 6475TIP3    H240841   4.142   1.780   4.789 -0.4082 -0.4679  1.2117
 6476TIP3   OH240842   6.176   5.593  12.198  0.5230 -0.0524  0.0689
 6476TIP3    H140843   6.249   5.607  12.258  0.3203 -0.3458  0.3874
 6476TIP3    H240844   6.098   5.600  12.253  0.3111  0.2591 -0.2703
 6477TIP3   OH240845   3.508   4.933  11.720  0.2053  0.2928  0.3562
 6477TIP3    H140846   3.443   4.879  11.763  0.5495  0.1998  0.7641
 6477TIP3    H240847   3.468   5.020  11.713  0.3202  0.4171  1.2606
 6478TIP3   OH240848   3.405   4.842   0.535 -0.3700 -0.2114  0.6201
 6478TIP3    H140849   3.430   4.915   0.592  0.2326  0.3556 -0.3708
 6478TIP3    H240850   3.315   4.860   0.510 -0.1698  0.2677  0.2516
 6479TIP3   OH240851   4.897   3.649   2.270 -0.1377 -0.1062  0.3074
 6479TIP3    H140852   4.940   3.565   2.253 -1.6277 -0.7398 -0.3591
 6479TIP3    H240853   4.944   3.684   2.346 -0.0649 -1.9523  1.1485
 6480TIP3   OH240854   5.333   2.430   4.153 -0.0696 -0.1685 -0.0590
 6480TIP3    H140855   5.283   2.450   4.074 -1.1160 -2.5690 -0.0405
 6480TIP3    H240856   5.422   2.412   4.122 -0.6216 -1.7396 -0.8105
 6481TIP3   OH240857   2.468   1.157   1.370 -0.3354 -0.7208 -0.1834
 6481TIP3    H140858   2.543   1.106   1.399  0.2099  0.7357  1.0012
 6481TIP3    H240859   2.485   1.176   1.278 -0.4129 -2.4087 -0.5655
 6482TIP3   OH240860   0.437   6.045  11.456  0.4783 -0.1829 -0.0543
 6482TIP3    H140861   0.489   6.096  11.395 -0.6842  0.6464 -0.3796
 6482TIP3    H240862   0.461   5.954  11.440 -1.2179 -0.1409 -3.0999
 6483TIP3   OH240863   5.283   0.230   1.647 -0.3736 -0.0486 -0.8144
 6483TIP3    H140864   5.309   0.149   1.692 -0.6692  0.4903  0.3149
 6483TIP3    H240865   5.339   0.232   1.569  0.2003 -0.9369 -0.4358
 6484TIP3   OH240866   5.676   5.899   5.988 -0.8638 -0.7244 -0.1029
 6484TIP3    H140867   5.583   5.915   6.005 -1.3540 -0.7681 -2.5880
 6484TIP3    H240868   5.678   5.818   5.938  0.4739 -0.4737 -0.4835
 6485TIP3   OH240869   1.697   4.787  14.637 -0.3942  0.3779  0.3951
 6485TIP3    H140870   1.613   4.768  14.680  1.2123 -4.0842  1.7466
 6485TIP3    H240871   1.752   4.822  14.707 -0.1954  0.6235  0.1194
 6486TIP3   OH240872   0.102   0.101  14.161 -0.3157  0.0286 -0.0665
 6486TIP3    H140873   0.099   0.005  14.163  0.2691 -0.0439 -1.7828
 6486TIP3    H240874   0.186   0.124  14.200 -0.6157 -0.1298  0.6875
 6487TIP3   OH240875   3.076   1.735   1.139  0.6414 -0.3455 -0.3812
 6487TIP3    H140876   3.001   1.748   1.080  0.3064  0.4065  0.1935
 6487TIP3    H240877   3.152   1.760   1.086  0.6193 -2.2676 -1.3555
 6488TIP3   OH240878   4.474   6.745  11.953  0.6241 -0.0736  0.9707
 6488TIP3    H140879   4.556   6.785  11.982  0.8902 -1.6414  2.4448
 6488TIP3    H240880   4.408   6.813  11.968  1.7283  1.5810 -1.1575
 6489TIP3   OH240881   1.807   1.634   3.816  0.0182  0.2329 -0.1423
 6489TIP3    H140882   1.826   1.600   3.728 -0.7823  1.6667 -0.8902
 6489TIP3    H240883   1.787   1.727   3.802  1.2919  0.8199  1.7415
 6490TIP3   OH240884   0.129   2.817   2.775  0.1399  0.1961 -0.6290
 6490TIP3    H140885   0.193   2.887   2.785 -0.2159  0.4485 -0.1082
 6490TIP3    H240886   0.153   2.775   2.692 -0.4426  1.7435 -1.5948
 6491TIP3   OH240887   4.985   6.663   3.968  0.2979 -0.0924  0.0956
 6491TIP3    H140888   4.920   6.732   3.955  1.0128  0.6805  0.5715
 6491TIP3    H240889   5.047   6.676   3.897  0.2243 -0.4913 -0.0396
 6492TIP3   OH240890   6.373   2.645   3.666  0.4064  0.0623 -0.0133
 6492TIP3    H140891   6.426   2.581   3.714  0.8415  0.5487  0.1484
 6492TIP3    H240892   6.326   2.592   3.601 -0.0488 -0.5771  0.8167
 6493TIP3   OH240893   3.540   6.226  12.967 -0.5203 -0.0272 -0.3816
 6493TIP3    H140894   3.596   6.208  13.042 -1.0749  0.4461  0.1473
 6493TIP3    H240895   3.599   6.268  12.904  0.0563 -0.8595 -0.4152
 6494TIP3   OH240896   0.831   3.413  16.023 -0.2242 -0.1339  0.1426
 6494TIP3    H140897   0.896   3.364  15.972  1.3902  2.0786  0.0444
 6494TIP3    H240898   0.775   3.345  16.061  0.0736 -1.9349 -2.5156
 6495TIP3   OH240899   5.587   2.312  16.111 -0.6135 -0.7047 -0.1967
 6495TIP3    H140900   5.649   2.384  16.100 -1.8259  0.2097 -1.2772
 6495TIP3    H240901   5.641   2.236  16.131  0.7921  0.2415 -0.3434
 6496TIP3   OH240902   4.682   0.121  13.481  0.5603  0.1402  0.2026
 6496TIP3    H140903   4.692   0.216  13.482 -0.1794  0.2774 -2.4944
 6496TIP3    H240904   4.588   0.106  13.495  0.8435 -0.2543  1.7795
 6497TIP3   OH240905   2.404   4.439  15.463  0.3601 -0.0486 -0.6039
 6497TIP3    H140906   2.467   4.374  15.430  0.4312 -0.5476  0.5007
 6497TIP3    H240907   2.322   4.390  15.472 -0.0186  0.4362 -1.3965
 6498TIP3   OH240908   1.412   0.858  16.069 -0.2230 -0.5017  0.2567
 6498TIP3    H140909   1.444   0.818  15.988  0.3413 -2.6928  1.5002
 6498TIP3    H240910   1.408   0.951  16.050  1.8853 -0.7394 -1.6308
 6499TIP3   OH240911   5.351   1.535  16.739  0.7211  0.4827  0.2185
 6499TIP3    H140912   5.298   1.568  16.812  0.2330  0.9010 -0.3286
 6499TIP3    H240913   5.398   1.460  16.776 -2.2809 -1.5803 -0.0242
 6500TIP3   OH240914   5.496   1.260   2.063  0.1265 -0.1332 -0.5312
 6500TIP3    H140915   5.423   1.282   2.121 -0.9678 -0.8758 -1.6192
 6500TIP3    H240916   5.481   1.169   2.039  1.7555 -0.4883 -0.2796
 6501TIP3   OH240917   6.683   1.385   3.011 -0.1693  0.0224  0.3989
 6501TIP3    H140918   6.699   1.319   2.944 -1.6729 -0.8152  0.8444
 6501TIP3    H240919   6.765   1.391   3.059 -0.2914 -2.2110  0.9334
 6502TIP3   OH240920   3.402   6.127  16.720 -0.1330 -0.0830  0.3534
 6502TIP3    H140921   3.345   6.050  16.711  2.2107 -1.6724 -1.4862
 6502TIP3    H240922   3.397   6.170  16.634  0.0342  0.7974  0.7809
 6503TIP3   OH240923   1.397   3.517  13.600 -0.2863  0.3268 -0.6880
 6503TIP3    H140924   1.385   3.519  13.505 -1.3281  0.8293 -0.5504
 6503TIP3    H240925   1.334   3.451  13.631  0.1586  0.0487 -0.3568
 6504TIP3   OH240926   5.015   0.809  14.504 -0.6636 -0.0027 -0.2277
 6504TIP3    H140927   4.972   0.758  14.436  1.0945 -1.7490 -0.0809
 6504TIP3    H240928   5.097   0.763  14.520 -0.4188  1.1544  2.0931
 6505TIP3   OH240929   4.483   0.111   5.239 -0.0193  0.0669  0.2872
 6505TIP3    H140930   4.417   0.041   5.235 -0.0039  0.0765 -0.1417
 6505TIP3    H240931   4.550   0.076   5.298 -0.5720  0.1985  1.0054
 6506TIP3   OH240932   2.140   1.173   5.629  0.0232 -0.0567  0.2760
 6506TIP3    H140933   2.165   1.185   5.537 -1.1517 -1.7761 -0.3097
 6506TIP3    H240934   2.145   1.078   5.642 -0.9163  0.0679  1.6518
 6507TIP3   OH240935   0.077   2.465  16.447  0.3701  0.3459 -0.1606
 6507TIP3    H140936   0.163   2.459  16.406  0.2168  2.8436 -0.9519
 6507TIP3    H240937   0.029   2.529  16.394 -1.2868  0.4773  1.4270
 6508TIP3   OH240938   4.388   2.098   1.505  0.3166 -0.1401  0.2761
 6508TIP3    H140939   4.313   2.134   1.552  0.0292  0.4813 -0.6349
 6508TIP3    H240940   4.457   2.163   1.515  0.1352  0.1736 -0.4685
 6509TIP3   OH240941   1.998   0.805  15.822 -0.3428  0.4983  0.2018
 6509TIP3    H140942   2.044   0.736  15.775 -0.4098 -0.2283  1.1879
 6509TIP3    H240943   2.048   0.817  15.903  1.0292  3.2568 -1.0214
 6510TIP3   OH240944   2.728   6.148  14.004 -0.5560  0.1846 -0.3250
 6510TIP3    H140945   2.705   6.230  13.961  0.4970  1.4838  1.5241
 6510TIP3    H240946   2.818   6.130  13.976  0.2215  1.1616  1.4393
 6511TIP3   OH240947   6.314   0.610   6.358  0.1816  0.1352  0.0462
 6511TIP3    H140948   6.333   0.630   6.267 -0.1451  1.9221  0.3638
 6511TIP3    H240949   6.389   0.558   6.387 -0.0236 -0.9953 -1.4091
 6512TIP3   OH240950   0.742   0.660  13.845  0.2534  0.1698 -0.0100
 6512TIP3    H140951   0.699   0.593  13.792  0.4095 -0.0598  0.1505
 6512TIP3    H240952   0.815   0.614  13.888  1.6230  0.9109 -1.4949
 6513TIP3   OH240953   6.364   3.340  13.745  0.0582  0.2702 -0.1792
 6513TIP3    H140954   6.280   3.300  13.724 -0.6163  0.3286  2.2596
 6513TIP3    H240955   6.402   3.361  13.660 -2.3527  0.1697 -1.3375
 6514TIP3   OH240956   2.664   5.048  15.383 -0.4133 -0.1675 -0.5088
 6514TIP3    H140957   2.733   5.067  15.319  0.4377 -0.3218  0.3412
 6514TIP3    H240958   2.596   5.113  15.366  0.6398  0.9852 -0.3387
 6515TIP3   OH240959   6.588   4.503  12.089  0.1279 -0.5162 -0.1073
 6515TIP3    H140960   6.624   4.592  12.088  0.4010 -0.6285 -2.0622
 6515TIP3    H240961   6.662   4.447  12.111  0.1975 -0.3753  0.0205
 6516TIP3   OH240962   4.845   0.282   5.995 -0.2725  0.7354 -0.6563
 6516TIP3    H140963   4.884   0.294   6.081  1.0309  1.6519 -1.3529
 6516TIP3    H240964   4.857   0.366   5.951 -0.8712  0.2655 -1.7483
 6517TIP3   OH240965   1.885   2.809   2.388  0.0766 -0.0015  0.0578
 6517TIP3    H140966   1.975   2.836   2.375  0.2819  1.0277  3.0887
 6517TIP3    H240967   1.854   2.782   2.302  3.1778 -0.0901 -1.0638
 6518TIP3   OH240968   6.173   5.072   6.250  0.2741 -0.0115  0.1885
 6518TIP3    H140969   6.265   5.048   6.243  0.4227  0.4542  0.5486
 6518TIP3    H240970   6.153   5.116   6.167  0.2973 -0.3669 -0.0077
 6519TIP3   OH240971   0.405   2.976  13.351  0.5222  0.3014  0.1607
 6519TIP3    H140972   0.318   2.981  13.311  0.7537 -0.6771 -0.4895
 6519TIP3    H240973   0.453   2.914  13.296  1.8461  1.3462  0.1035
 6520TIP3   OH240974   2.956   5.637   3.147  0.7298  0.7251  0.0653
 6520TIP3    H140975   2.989   5.548   3.158 -2.0347 -0.4752 -0.9295
 6520TIP3    H240976   2.922   5.661   3.233  3.8445  1.9334  1.0731
 6521TIP3   OH240977   2.415   1.016   1.613 -0.2462  0.0404 -0.3402
 6521TIP3    H140978   2.443   1.037   1.523 -0.1503 -0.6524 -0.4738
 6521TIP3    H240979   2.322   1.038   1.615 -0.2343  0.1186 -0.5958
 6522TIP3   OH240980   2.974   4.127   2.185 -0.4798 -0.2188  0.1223
 6522TIP3    H140981   2.953   4.169   2.102 -1.0590 -1.3433 -0.3107
 6522TIP3    H240982   2.894   4.079   2.209  0.3604 -1.5802  0.2737
 6523TIP3   OH240983   6.267   3.944  15.477  0.2507  0.1310 -0.4810
 6523TIP3    H140984   6.243   3.997  15.553 -0.3764 -0.8499  0.0106
 6523TIP3    H240985   6.195   3.957  15.415  0.8070  1.0062 -0.9608
 6524TIP3   OH240986   1.200   1.500   6.698 -0.0215  0.2668  0.4267
 6524TIP3    H140987   1.222   1.531   6.610  1.1898 -0.2869  0.5186
 6524TIP3    H240988   1.210   1.578   6.754  1.8779  0.0075  0.4812
 6525TIP3   OH240989   0.217   2.920  16.139 -0.3372 -0.0057  0.0111
 6525TIP3    H140990   0.221   2.944  16.232 -0.0888 -0.3239  0.0842
 6525TIP3    H240991   0.212   2.825  16.139 -3.1052  0.0800 -0.2175
 6526TIP3   OH240992   5.357   4.266  11.732 -0.5775  0.3107 -0.6002
 6526TIP3    H140993   5.338   4.196  11.669 -0.3143 -1.2051  0.9821
 6526TIP3    H240994   5.450   4.285  11.718 -0.5122 -0.0391 -0.6287
 6527TIP3   OH240995   1.052   1.380  15.853  0.0410  0.0166 -0.3775
 6527TIP3    H140996   1.064   1.378  15.758 -1.7927 -1.9715 -0.6128
 6527TIP3    H240997   1.037   1.472  15.874  0.1296  0.4269 -2.0477
 6528TIP3   OH240998   6.150   6.755  15.985  0.5798 -0.2075 -0.4395
 6528TIP3    H140999   6.082   6.820  16.006 -1.1619 -1.9299 -0.6523
 6528TIP3    H241000   6.169   6.713  16.068  0.8596 -0.2345 -0.5159
 6529TIP3   OH241001   2.991   1.440  17.198 -0.2496  0.1491 -0.6267
 6529TIP3    H141002   3.063   1.502  17.183 -0.4866  0.1408 -1.8450
 6529TIP3    H241003   2.919   1.495  17.230  0.5904  0.0201  1.5577
 6530TIP3   OH241004   4.147   5.646  11.127  0.1827  0.4164  0.0759
 6530TIP3    H141005   4.205   5.682  11.061  2.0049 -0.3060  1.2513
 6530TIP3    H241006   4.077   5.603  11.077  2.5983 -1.9012 -1.4572
 6531TIP3   OH241007   0.441   2.625   5.853  0.5664  0.5736 -0.9391
 6531TIP3    H141008   0.428   2.534   5.882 -0.1053  1.1276  0.5520
 6531TIP3    H241009   0.498   2.663   5.920 -0.5187  1.7230 -0.6659
 6532TIP3   OH241010   6.468   6.458   5.381  0.1869 -0.1740 -0.4788
 6532TIP3    H141011   6.552   6.472   5.424  0.5672  0.2458 -1.3431
 6532TIP3    H241012   6.481   6.490   5.292 -2.1874  4.1432  0.5505
 6533TIP3   OH241013   6.464   5.457  13.414 -0.4770  0.1399  1.1192
 6533TIP3    H141014   6.491   5.365  13.407 -0.7001  0.1408  0.2866
 6533TIP3    H241015   6.451   5.470  13.508  0.6370 -0.3660  1.3586
 6534TIP3   OH241016   1.972   5.499   4.755 -0.2203  0.1653  0.0496
 6534TIP3    H141017   1.940   5.580   4.796  1.7271  0.5865  0.7759
 6534TIP3    H241018   2.057   5.523   4.718  0.1791 -1.4545 -0.0817
 6535TIP3   OH241019   1.309   5.324  15.045 -0.8120 -0.0053 -0.3619
 6535TIP3    H141020   1.298   5.233  15.021 -0.9198  0.0436 -0.4954
 6535TIP3    H241021   1.220   5.359  15.050 -0.8416 -0.2385  0.9541
 6536TIP3   OH241022   6.696   5.869   2.551 -0.0678 -0.1069  0.3080
 6536TIP3    H141023   6.694   5.850   2.645 -0.1505  2.0707  0.7802
 6536TIP3    H241024   6.605   5.857   2.523 -0.1086 -0.4476  0.5889
 6537TIP3   OH241025   3.118   5.908   2.077  0.1785 -0.3395 -0.2708
 6537TIP3    H141026   3.053   5.854   2.123 -1.0130  0.0166 -1.5225
 6537TIP3    H241027   3.180   5.934   2.145 -1.3454 -0.1526  1.0720
 6538TIP3   OH241028   0.671   6.708  11.187 -0.2528 -0.0253  0.2458
 6538TIP3    H141029   0.703   6.641  11.127 -0.5643 -1.2557  1.4294
 6538TIP3    H241030   0.671   6.666  11.273  0.4520  1.7892  1.1694
 6539TIP3   OH241031   2.871   3.517   5.102  0.2002 -1.1180 -0.0438
 6539TIP3    H141032   2.784   3.495   5.135 -0.8352  1.1098 -1.2433
 6539TIP3    H241033   2.929   3.500   5.176 -1.6502  0.3192  1.7926
 6540TIP3   OH241034   2.139   3.557   0.676 -0.2002  0.7008  0.3953
 6540TIP3    H141035   2.092   3.517   0.602  1.4681 -1.6323  0.5397
 6540TIP3    H241036   2.106   3.512   0.753  0.7185  0.5467  0.7060
 6541TIP3   OH241037   0.483   5.185   4.751  0.4246  0.0592  0.8600
 6541TIP3    H141038   0.520   5.214   4.834  1.5346 -1.4557  0.9039
 6541TIP3    H241039   0.558   5.154   4.700 -0.5452 -1.2192  0.1929
 6542TIP3   OH241040   0.988   3.911  11.311 -0.5100 -0.3387  0.5878
 6542TIP3    H141041   0.943   3.995  11.323  0.7411  0.3772  0.3169
 6542TIP3    H241042   1.065   3.932  11.258 -0.0251 -1.6056  0.7765
 6543TIP3   OH241043   3.617   5.963   6.777 -0.1649 -0.5830 -0.5340
 6543TIP3    H141044   3.550   6.026   6.803 -0.4473 -0.1730 -2.1873
 6543TIP3    H241045   3.570   5.879   6.776 -0.0504 -0.6695  0.6306
 6544TIP3   OH241046   0.702   2.420   1.943 -0.4008  0.2155  0.0570
 6544TIP3    H141047   0.673   2.489   2.002  0.8123  1.1107 -0.3589
 6544TIP3    H241048   0.649   2.344   1.966 -1.2508  1.0849  1.0106
 6545TIP3   OH241049   4.786   6.537  15.359 -0.1062 -0.0878 -0.9415
 6545TIP3    H141050   4.774   6.560  15.452  0.1649  1.9493 -1.3867
 6545TIP3    H241051   4.878   6.554  15.342 -0.0906 -0.7528 -1.5224
 6546TIP3   OH241052   4.644   3.524  13.041  0.2292  0.0988 -0.2143
 6546TIP3    H141053   4.740   3.521  13.038  0.1826  0.3727 -4.3678
 6546TIP3    H241054   4.619   3.441  13.081  2.1880 -0.4578 -0.0886
 6547TIP3   OH241055   4.734   2.020   5.012 -0.0135  0.1817  0.3287
 6547TIP3    H141056   4.741   2.057   5.100  2.7141  0.3208  0.0985
 6547TIP3    H241057   4.738   2.095   4.953 -0.6616 -0.0016  0.0470
 6548TIP3   OH241058   5.050   3.039   0.209 -0.3395  0.1400  0.3977
 6548TIP3    H141059   5.106   3.046   0.287 -0.3472  1.4245  0.2952
 6548TIP3    H241060   5.072   2.954   0.172 -0.9975 -0.9014  2.3134
 6549TIP3   OH241061   4.523   5.674  10.487 -0.2492  0.0998 -0.0154
 6549TIP3    H141062   4.613   5.702  10.501 -0.3208  0.5322 -0.3959
 6549TIP3    H241063   4.521   5.582  10.513  0.4366 -0.0723 -0.5738
 6550TIP3   OH241064   2.334   4.569  14.626  0.4071  0.6187 -0.2867
 6550TIP3    H141065   2.309   4.495  14.570  0.1445 -0.3388  1.0902
 6550TIP3    H241066   2.414   4.540  14.669 -1.9686 -0.6469  3.5527
 6551TIP3   OH241067   1.242   0.146  15.406  0.1623  0.4485 -0.1416
 6551TIP3    H141068   1.296   0.204  15.460  1.6605 -0.2809 -0.8443
 6551TIP3    H241069   1.195   0.092  15.469  0.8456  0.5489  0.4589
 6552TIP3   OH241070   1.588   0.207   1.352  0.1809  0.1211 -0.4656
 6552TIP3    H141071   1.637   0.146   1.408 -1.8334 -1.4961 -0.4224
 6552TIP3    H241072   1.511   0.230   1.403  1.0467  2.9764 -0.3699
 6553TIP3   OH241073   4.609   6.162  14.534 -0.1128  0.3993  0.2087
 6553TIP3    H141074   4.580   6.253  14.544  0.1633  0.4505  0.5340
 6553TIP3    H241075   4.649   6.159  14.447  2.0880  1.1887  1.1706
 6554TIP3   OH241076   1.289   3.057  10.155 -0.3986 -0.4014 -0.1351
 6554TIP3    H141077   1.224   2.993  10.185 -0.7203 -0.0657 -0.1023
 6554TIP3    H241078   1.301   3.116  10.230 -0.4046 -0.1898 -0.3010
 6555TIP3   OH241079   1.144   0.171  10.711 -0.6451  0.1389 -0.2738
 6555TIP3    H141080   1.120   0.258  10.681 -0.4880  0.5186  0.6834
 6555TIP3    H241081   1.072   0.115  10.684 -0.7913  0.5827 -0.8052
 6556TIP3   OH241082   1.405   4.877  16.061 -0.6988 -0.0104  0.3218
 6556TIP3    H141083   1.368   4.790  16.072  0.6252 -0.6909 -0.4904
 6556TIP3    H241084   1.358   4.915  15.987 -1.5113  0.0992  0.8892
 6557TIP3   OH241085   3.468   3.317  12.718 -0.3510 -0.3595 -0.1639
 6557TIP3    H141086   3.457   3.284  12.807 -1.4316 -0.8576 -0.4737
 6557TIP3    H241087   3.400   3.274  12.668  0.8305 -0.7883 -1.4380
 6558TIP3   OH241088   5.134   4.603  17.105 -0.1488  0.1252  0.4443
 6558TIP3    H141089   5.172   4.619  17.192  0.4015  1.4446 -0.0300
 6558TIP3    H241090   5.090   4.685  17.082  1.0117  0.3118 -1.1814
 6559TIP3   OH241091   4.191   4.845   2.209 -0.3601 -0.2969  0.2754
 6559TIP3    H141092   4.160   4.758   2.183  0.2848 -0.3935 -0.1879
 6559TIP3    H241093   4.198   4.894   2.128  1.1734 -0.4390  0.2961
 6560TIP3   OH241094   1.127   6.689  12.407  0.5047 -0.1026  0.3151
 6560TIP3    H141095   1.060   6.632  12.370 -4.5522  3.9585  2.3808
 6560TIP3    H241096   1.178   6.719  12.332 -0.6950 -2.4686 -1.5155
 6561TIP3   OH241097   4.352   3.572   5.398 -0.6489 -0.8909  0.2374
 6561TIP3    H141098   4.305   3.541   5.320 -2.4157  1.6328  0.2517
 6561TIP3    H241099   4.286   3.622   5.446  0.6849 -1.6647  2.9088
 6562TIP3   OH241100   2.296   4.980   4.509  0.1594  0.5984  0.4150
 6562TIP3    H141101   2.334   5.032   4.438  1.8398 -1.1915 -0.0750
 6562TIP3    H241102   2.358   4.990   4.581  1.3823 -1.9335 -0.2148
 6563TIP3   OH241103   3.823   0.866  14.256 -0.4068  0.4630  0.1333
 6563TIP3    H141104   3.867   0.798  14.204 -2.7006  0.6010 -2.0887
 6563TIP3    H241105   3.797   0.821  14.337  0.1457 -0.6751 -0.3042
 6564TIP3   OH241106   0.603   1.817   0.658  0.5015 -0.7657 -0.5370
 6564TIP3    H141107   0.671   1.883   0.656 -1.3274  1.3061  1.6997
 6564TIP3    H241108   0.553   1.830   0.578 -0.8019  1.6915  0.6302
 6565TIP3   OH241109   6.138   2.278   4.167  0.4438 -0.0289  0.0066
 6565TIP3    H141110   6.142   2.369   4.135  0.7111  0.1838  0.6487
 6565TIP3    H241111   6.206   2.232   4.119  1.0452  0.3593  0.4892
 6566TIP3   OH241112   4.211   1.308   2.339 -0.2166 -0.3708  0.2716
 6566TIP3    H141113   4.248   1.377   2.394 -0.2440 -0.7723  0.7958
 6566TIP3    H241114   4.148   1.263   2.396 -0.2221 -0.8065 -0.0786
 6567TIP3   OH241115   6.398   0.801  15.477 -0.2345  0.4579 -0.5015
 6567TIP3    H141116   6.340   0.748  15.423  0.5044 -0.2608 -0.6172
 6567TIP3    H241117   6.481   0.803  15.429 -0.1862  1.5298 -0.3815
 6568TIP3   OH241118   0.208   4.897   2.461  0.1486 -0.0005  0.3639
 6568TIP3    H141119   0.119   4.903   2.498 -0.3612  1.5352 -1.0666
 6568TIP3    H241120   0.225   4.984   2.425  1.6933 -0.6932 -0.6167
 6569TIP3   OH241121   2.288   4.005  16.748 -0.0054 -0.3354  0.4467
 6569TIP3    H141122   2.361   3.985  16.806  1.0406  1.4604 -0.2018
 6569TIP3    H241123   2.250   4.085  16.783 -2.4473 -1.8757  1.4648
 6570TIP3   OH241124   2.961   3.396   4.498  0.0078  0.3746 -0.2626
 6570TIP3    H141125   3.031   3.382   4.563  0.0661 -0.9353 -0.5928
 6570TIP3    H241126   2.972   3.325   4.435 -1.6017  0.1768 -0.3432
 6571TIP3   OH241127   2.303   0.099   4.503  0.0469 -0.3298 -0.3068
 6571TIP3    H141128   2.281   0.189   4.527  0.4450 -0.2350 -0.3041
 6571TIP3    H241129   2.305   0.100   4.407  0.7008 -0.1841 -0.2916
 6572TIP3   OH241130   0.625   0.897   0.316  0.4101  0.7109  0.2191
 6572TIP3    H141131   0.532   0.892   0.339  0.2038 -0.1387 -0.8089
 6572TIP3    H241132   0.655   0.806   0.315  0.8919  0.8758 -0.9512
 6573TIP3   OH241133   3.823   5.737   5.179  0.0904 -0.0005 -0.9186
 6573TIP3    H141134   3.904   5.742   5.230 -0.1241 -1.4908 -0.4263
 6573TIP3    H241135   3.787   5.651   5.199 -1.4007  0.4861 -1.4775
 6574TIP3   OH241136   0.318   4.456  16.277 -0.3850  0.0327 -0.5197
 6574TIP3    H141137   0.284   4.389  16.336 -0.1530  1.5433  1.4094
 6574TIP3    H241138   0.240   4.500  16.243 -0.5067  1.5825  1.6201
 6575TIP3   OH241139   5.006   1.001   1.992  0.2579  0.2199  0.0629
 6575TIP3    H141140   4.957   1.082   1.978 -0.5307  0.1849  2.3656
 6575TIP3    H241141   4.950   0.948   2.048  2.0299 -0.6962  1.0224
 6576TIP3   OH241142   1.502   0.621  14.930  0.0258  0.0555  0.0826
 6576TIP3    H141143   1.486   0.691  14.867 -1.7343 -1.9712 -1.7727
 6576TIP3    H241144   1.559   0.559  14.884 -1.4682 -1.5588  0.3872
 6577TIP3   OH241145   4.841   5.011   2.677  0.0941  0.3607 -0.1657
 6577TIP3    H141146   4.793   5.092   2.661 -0.6652 -0.1128 -0.3090
 6577TIP3    H241147   4.778   4.942   2.657  0.7707 -0.2640 -0.1436
 6578TIP3   OH241148   3.085   3.746   2.188 -0.2948 -0.2528 -0.2700
 6578TIP3    H141149   3.077   3.768   2.095  1.7541 -1.1267 -0.6693
 6578TIP3    H241150   3.004   3.700   2.208 -0.2085 -1.1684 -1.9492
 6579TIP3   OH241151   4.341   2.904   4.266  0.5130 -0.5806  0.5030
 6579TIP3    H141152   4.333   2.872   4.356  0.5968 -1.1102  0.3231
 6579TIP3    H241153   4.293   2.987   4.265 -1.2807 -1.6062  0.5104
 6580TIP3   OH241154   6.202   0.304   3.991 -0.6470  0.0249  0.3287
 6580TIP3    H141155   6.256   0.253   3.931 -0.4979  1.2483 -0.5957
 6580TIP3    H241156   6.194   0.249   4.069 -1.1502 -1.7552 -0.9404
 6581TIP3   OH241157   2.379   3.999   1.231 -0.1069  0.1201 -0.3994
 6581TIP3    H141158   2.322   4.060   1.276 -1.1485 -0.7428 -0.5493
 6581TIP3    H241159   2.389   3.925   1.290 -1.4163 -0.9825 -1.5208
 6582TIP3   OH241160   2.173   5.009   0.605 -0.6830  0.0741 -0.2972
 6582TIP3    H141161   2.238   4.938   0.605 -1.2687 -0.4617  0.2542
 6582TIP3    H241162   2.109   4.983   0.539  0.5998  1.4919 -2.1944
 6583TIP3   OH241163   3.727   4.179   5.863  0.0560  0.2819  0.7997
 6583TIP3    H141164   3.761   4.111   5.805  0.1999  1.2138 -0.2305
 6583TIP3    H241165   3.790   4.251   5.854 -1.1577  1.2966  0.3493
 6584TIP3   OH241166   4.031   2.622  13.865 -0.0863  0.6516 -0.3305
 6584TIP3    H141167   4.059   2.667  13.945  0.4554  3.9684 -2.3135
 6584TIP3    H241168   4.105   2.565  13.842  0.3119  0.7197  0.7441
 6585TIP3   OH241169   1.167   5.849  11.561 -0.6174  0.2726 -0.0955
 6585TIP3    H141170   1.097   5.792  11.592 -1.8679 -0.7377 -4.3595
 6585TIP3    H241171   1.215   5.794  11.498  1.3265  2.3492 -0.4943
 6586TIP3   OH241172   4.010   1.942   0.415  0.6346  0.2491  0.2573
 6586TIP3    H141173   4.047   1.853   0.417  0.0217 -0.0633 -1.2022
 6586TIP3    H241174   3.916   1.928   0.403  0.8603  1.0957 -2.9442
 6587TIP3   OH241175   1.180   2.456  14.603 -0.0802 -0.1860  0.2685
 6587TIP3    H141176   1.131   2.401  14.663  1.5307 -0.7903  1.0637
 6587TIP3    H241177   1.265   2.468  14.645  0.2896  1.2573 -0.8304
 6588TIP3   OH241178   6.577   1.233   0.241  0.3025  0.2585  0.0835
 6588TIP3    H141179   6.532   1.151   0.220  2.0877 -1.0422  1.1919
 6588TIP3    H241180   6.514   1.282   0.294 -0.1165 -1.1875  0.9601
 6589TIP3   OH241181   5.418   1.046  15.781 -0.4520 -0.3964 -0.4506
 6589TIP3    H141182   5.334   1.090  15.789 -0.2031  0.3000 -1.6290
 6589TIP3    H241183   5.418   1.008  15.693 -0.5862 -2.6178  0.4552
 6590TIP3   OH241184   6.145   2.628   3.255  0.0142  0.2434 -0.4495
 6590TIP3    H141185   6.224   2.587   3.222 -1.0901 -2.6239  0.3794
 6590TIP3    H241186   6.090   2.640   3.177  0.5899  0.7480 -0.7826
 6591TIP3   OH241187   2.129   1.597   4.685 -0.4685 -0.1094  0.4258
 6591TIP3    H141188   2.143   1.662   4.617  0.3276 -1.8885 -1.1554
 6591TIP3    H241189   2.213   1.591   4.730 -0.2908 -0.6164  0.0359
 6592TIP3   OH241190   3.111   3.057  10.977 -0.0453 -0.1366 -0.3106
 6592TIP3    H141191   3.168   3.134  10.973 -0.9287  0.4609 -2.2815
 6592TIP3    H241192   3.156   2.990  10.927  0.2676 -0.6009  0.5832
 6593TIP3   OH241193   3.254   4.165   1.816 -0.6394 -0.7568  0.4626
 6593TIP3    H141194   3.212   4.094   1.767 -0.5331  0.4735 -1.4972
 6593TIP3    H241195   3.195   4.183   1.889 -1.2534 -2.0578  0.2979
 6594TIP3   OH241196   5.471   3.787   3.614 -0.1560 -0.6083 -0.5096
 6594TIP3    H141197   5.504   3.720   3.674  2.6647 -0.6108 -1.9846
 6594TIP3    H241198   5.456   3.864   3.669  1.4198 -0.9095  0.3642
 6595TIP3   OH241199   5.644   0.909  13.520  0.2714 -0.8165  0.0206
 6595TIP3    H141200   5.595   0.964  13.460  0.2692 -1.1551 -0.2881
 6595TIP3    H241201   5.715   0.965  13.551  0.3644 -0.6967 -0.4146
 6596TIP3   OH241202   4.741   0.656   5.434  0.2435 -0.2725 -0.0237
 6596TIP3    H141203   4.746   0.604   5.515 -1.6125 -0.6689 -0.1550
 6596TIP3    H241204   4.667   0.619   5.386  0.9953  0.3195 -1.6747
 6597TIP3   OH241205   2.596   0.536   2.340 -0.4905 -0.1103  0.1803
 6597TIP3    H141206   2.588   0.608   2.278  0.4566 -0.6898 -0.6258
 6597TIP3    H241207   2.640   0.574   2.416  0.0264  0.1482 -0.2510
 6598TIP3   OH241208   0.673   6.550  11.434  0.2247 -0.2672 -0.0707
 6598TIP3    H141209   0.648   6.458  11.435 -0.7472 -0.0229  2.6530
 6598TIP3    H241210   0.630   6.587  11.511  1.8180  2.1446 -0.3036
 6599TIP3   OH241211   6.060   3.458  16.638  0.0130 -0.1474  0.8855
 6599TIP3    H141212   5.967   3.480  16.636 -0.0187 -0.2828  0.8808
 6599TIP3    H241213   6.101   3.531  16.685  0.2339  1.1119 -1.1648
 6600TIP3   OH241214   4.850   5.202   3.333  0.1672  0.6451  0.1204
 6600TIP3    H141215   4.827   5.237   3.419  0.4674  0.5611  0.2382
 6600TIP3    H241216   4.801   5.255   3.271 -0.7023  0.1628  0.3834
 6601TIP3   OH241217   2.940   0.244   5.258 -0.4245  0.0224 -0.1407
 6601TIP3    H141218   2.880   0.302   5.212 -1.9596 -1.7355 -0.4021
 6601TIP3    H241219   2.977   0.187   5.190 -0.0475 -0.2816  0.3104
 6602TIP3   OH241220   0.005   5.476  15.114  0.1964 -0.3312 -0.3073
 6602TIP3    H141221   0.097   5.451  15.098  0.1690 -0.1725 -0.7219
 6602TIP3    H241222  -0.018   5.431  15.196  0.6897 -0.2566 -0.1242
 6603TIP3   OH241223   0.792   5.397   1.310 -0.1004 -0.0546 -0.2894
 6603TIP3    H141224   0.792   5.392   1.406 -0.3873  1.2675 -0.2109
 6603TIP3    H241225   0.849   5.471   1.290 -1.1471  0.5406 -1.0889
 6604TIP3   OH241226   4.769   6.207  16.467  0.3286  0.0108 -0.3466
 6604TIP3    H141227   4.762   6.112  16.479  1.5869 -0.1419 -0.7330
 6604TIP3    H241228   4.863   6.224  16.467  0.1926  0.9494 -2.5339
 6605TIP3   OH241229   4.441   4.411   4.993  0.4985 -0.8195 -0.3677
 6605TIP3    H141230   4.371   4.386   4.932  0.3166 -1.1846 -0.0128
 6605TIP3    H241231   4.411   4.380   5.078  1.7820 -2.3454 -0.4505
 6606TIP3   OH241232   1.712   4.089   0.882  0.1351 -0.4149  0.7150
 6606TIP3    H141233   1.795   4.136   0.887 -0.5045  0.8129 -0.2200
 6606TIP3    H241234   1.663   4.118   0.958 -0.2289  0.3982  0.1802
 6607TIP3   OH241235   4.915   6.785   1.731 -0.0945 -0.0041 -0.5784
 6607TIP3    H141236   4.839   6.815   1.781  0.3564  0.7976 -0.3823
 6607TIP3    H241237   4.977   6.753   1.797  0.9111  1.9748 -0.5449
 6608TIP3   OH241238   4.068   4.101   0.478  0.1231 -0.2038 -0.1156
 6608TIP3    H141239   3.977   4.114   0.502 -0.3925 -0.2202 -2.0106
 6608TIP3    H241240   4.069   4.021   0.426  0.8170  1.1057 -2.1919
 6609TIP3   OH241241   1.505   3.743  11.919  0.2744  0.0513  0.3857
 6609TIP3    H141242   1.502   3.656  11.958 -0.2568 -0.4896 -0.8280
 6609TIP3    H241243   1.598   3.763  11.911  0.4529 -1.3774 -1.4300
 6610TIP3   OH241244   2.107   3.174  16.412 -0.0239 -0.0275 -0.0654
 6610TIP3    H141245   2.051   3.251  16.404  1.5910  1.0258 -1.2621
 6610TIP3    H241246   2.176   3.186  16.347  1.3822 -1.5149  1.1029
 6611TIP3   OH241247   1.414   1.920   1.250 -0.1688 -0.0914  0.1718
 6611TIP3    H141248   1.510   1.922   1.252 -0.2060  1.3036  0.7666
 6611TIP3    H241249   1.392   1.957   1.164 -0.1566 -1.8754 -0.6318
 6612TIP3   OH241250   3.722   3.108   6.774 -0.5792  0.5136 -0.7244
 6612TIP3    H141251   3.700   3.078   6.686 -2.3316 -0.2101 -0.0769
 6612TIP3    H241252   3.699   3.201   6.774  0.8907  0.8947 -1.4750
 6613TIP3   OH241253   2.360   1.659   2.865 -0.3647  0.3432  0.3543
 6613TIP3    H141254   2.312   1.693   2.789  0.1013 -0.9097 -0.5063
 6613TIP3    H241255   2.297   1.603   2.911  0.3360 -1.5631 -0.9552
 6614TIP3   OH241256   2.140   1.414   5.148  0.3066 -0.1002 -0.3716
 6614TIP3    H141257   2.064   1.419   5.090 -1.7229  1.8109  2.3369
 6614TIP3    H241258   2.202   1.477   5.110 -1.1693  1.4604 -0.2961
 6615TIP3   OH241259   5.131   6.164   0.124  0.0755  0.2348  0.1618
 6615TIP3    H141260   5.181   6.095   0.079 -1.0952 -0.2037 -0.4737
 6615TIP3    H241261   5.169   6.167   0.212  0.9009 -0.4347 -0.1611
 6616TIP3   OH241262   2.433   1.983   4.782 -0.4028 -0.0885  0.3001
 6616TIP3    H141263   2.357   1.955   4.835  1.3831 -1.9197  2.0061
 6616TIP3    H241264   2.509   1.958   4.835  1.4942 -2.2058 -3.2252
 6617TIP3   OH241265   0.633   5.528   4.181 -0.0479 -0.5475 -0.5757
 6617TIP3    H141266   0.652   5.457   4.242 -0.4395  0.3717  0.6476
 6617TIP3    H241267   0.558   5.498   4.131 -0.8355 -0.5960  0.6236
 6618TIP3   OH241268   3.742   1.446   2.316 -0.0376 -0.2230  0.1354
 6618TIP3    H141269   3.723   1.399   2.235  0.1842 -2.6544  1.4638
 6618TIP3    H241270   3.808   1.511   2.291 -1.0409  0.0581 -1.9115
 6619TIP3   OH241271   6.665   1.444  16.648  0.6147  0.2861 -0.0891
 6619TIP3    H141272   6.708   1.435  16.562 -1.1784 -0.5429 -0.9339
 6619TIP3    H241273   6.671   1.357  16.686 -0.2836  0.1607 -0.2169
 6620TIP3   OH241274   6.195   0.969   4.808 -0.2033  0.9119 -0.1539
 6620TIP3    H141275   6.115   0.942   4.853 -0.9998 -0.0608 -2.1153
 6620TIP3    H241276   6.231   0.888   4.772 -0.0695  1.7613 -2.0083
 6621TIP3   OH241277   1.661   4.235  12.670 -0.3796  0.1528  0.0996
 6621TIP3    H141278   1.583   4.282  12.699 -0.8599 -1.5773  1.7628
 6621TIP3    H241279   1.698   4.199  12.751  0.5727 -1.3939 -0.9979
 6622TIP3   OH241280   6.013   5.980  15.502 -0.1506 -0.5017  0.3640
 6622TIP3    H141281   6.018   6.046  15.433 -0.9550  0.3525  1.1177
 6622TIP3    H241282   5.928   5.994  15.543  0.5152 -0.7023  1.8356
 6623TIP3   OH241283   6.527   1.717  12.918 -0.3967  0.0689 -0.8508
 6623TIP3    H141284   6.558   1.628  12.899 -0.1827 -0.4799  1.8620
 6623TIP3    H241285   6.467   1.706  12.992 -0.9279  2.1037 -0.9607
 6624TIP3   OH241286   1.388   2.769  16.176  0.0881  0.0346 -0.1455
 6624TIP3    H141287   1.467   2.730  16.139 -0.4355  0.3404 -1.6016
 6624TIP3    H241288   1.416   2.856  16.206  0.1736  0.3698 -1.1936
 6625TIP3   OH241289   0.357   1.763  16.688  0.0468 -0.7094  0.1150
 6625TIP3    H141290   0.286   1.706  16.659 -0.4060  0.5766 -1.3400
 6625TIP3    H241291   0.315   1.828  16.744  0.0403  0.1237 -0.8394
 6626TIP3   OH241292   0.186   2.234   3.006  0.1313  0.5959 -0.7960
 6626TIP3    H141293   0.248   2.295   3.047 -1.4320  1.0870  0.9178
 6626TIP3    H241294   0.225   2.147   3.021  0.7946  0.9507 -0.4149
 6627TIP3   OH241295   4.786   1.385   5.381  0.3526 -0.1942 -0.2493
 6627TIP3    H141296   4.826   1.304   5.413  0.1370 -0.2817 -0.2018
 6627TIP3    H241297   4.805   1.449   5.450  1.0349 -0.0571 -0.5616
 6628TIP3   OH241298   3.170   3.249  11.481 -0.8067 -0.1796  0.2039
 6628TIP3    H141299   3.075   3.253  11.482 -0.7645  1.1904  0.3940
 6628TIP3    H241300   3.195   3.283  11.395 -0.5404 -2.7185 -0.7678
 6629TIP3   OH241301   2.899   1.592  11.980 -0.1984 -0.1122  0.4710
 6629TIP3    H141302   2.827   1.588  12.043 -0.7145  0.1642 -0.0978
 6629TIP3    H241303   2.948   1.510  11.993 -0.6311 -0.3088  0.8408
 6630TIP3   OH241304   1.091   0.783  17.229  0.7031 -0.4562  0.0639
 6630TIP3    H141305   1.086   0.690  17.203 -0.1535 -0.1904 -0.7493
 6630TIP3    H241306   1.148   0.823  17.163 -2.0431  0.3658 -1.9274
 6631TIP3   OH241307   0.102   5.189   5.850 -0.2929 -0.1161  0.0679
 6631TIP3    H141308   0.034   5.137   5.806  0.3444 -1.0737  0.1996
 6631TIP3    H241309   0.057   5.228   5.925 -0.5126 -1.3793  0.6033
 6632TIP3   OH241310   4.398   5.977   3.724 -0.0690 -0.7665 -0.1071
 6632TIP3    H141311   4.490   5.974   3.753  0.5498 -0.8579 -1.9932
 6632TIP3    H241312   4.354   6.032   3.789  1.4356 -0.2373  0.4903
 6633TIP3   OH241313   5.218   6.111  13.151 -0.0476  0.8396 -0.2313
 6633TIP3    H141314   5.265   6.046  13.099 -1.3225  0.9756 -1.5787
 6633TIP3    H241315   5.286   6.154  13.203  1.0688 -0.1763 -0.8307
 6634TIP3   OH241316   6.458   1.884   1.555  0.2012  0.1187 -0.3517
 6634TIP3    H141317   6.377   1.935   1.552  1.3871  2.0618 -0.1424
 6634TIP3    H241318   6.509   1.915   1.480  0.2927 -1.9240 -1.1664
 6635TIP3   OH241319   3.865   2.240   4.625 -1.0464 -0.1039  0.1043
 6635TIP3    H141320   3.958   2.234   4.647 -1.0283  0.5749  0.2287
 6635TIP3    H241321   3.854   2.330   4.593 -1.4553 -0.4884 -0.8597
 6636TIP3   OH241322   0.718   5.819  14.467 -0.6154  0.0716  0.5512
 6636TIP3    H141323   0.725   5.832  14.562 -0.3292 -1.2991  0.7358
 6636TIP3    H241324   0.644   5.759  14.457  0.7444 -1.5822  0.0885
 6637TIP3   OH241325   0.115   0.318   5.206  0.7806  0.2101  0.1331
 6637TIP3    H141326   0.147   0.315   5.296  1.9414 -2.3613 -0.3130
 6637TIP3    H241327   0.032   0.271   5.208  0.7162  0.3078 -0.1151
 6638TIP3   OH241328   6.218   3.285   2.137 -0.0544  0.7575  0.0684
 6638TIP3    H141329   6.126   3.276   2.112  0.1820 -0.6612 -0.3669
 6638TIP3    H241330   6.265   3.290   2.053  0.3251  0.7312  0.2778
 6639TIP3   OH241331   1.921   6.488   5.206 -0.0201  0.0313  0.5179
 6639TIP3    H141332   1.826   6.473   5.205 -0.1535  0.8763 -0.0481
 6639TIP3    H241333   1.940   6.527   5.121  0.8660 -0.2797  0.5679
 6640TIP3   OH241334   2.122   3.894   2.612 -0.6493 -0.1943 -0.0408
 6640TIP3    H141335   2.122   3.940   2.528 -1.5180 -0.2815 -0.0945
 6640TIP3    H241336   2.030   3.870   2.625 -0.4134 -0.7017  0.6476
 6641TIP3   OH241337   6.059   4.435  15.260  0.4677 -0.4138  0.2130
 6641TIP3    H141338   6.147   4.471  15.244 -0.4500  0.9075 -2.0749
 6641TIP3    H241339   6.006   4.470  15.189 -1.2341 -3.7425 -0.2547
 6642TIP3   OH241340   5.737   4.446   3.250  0.1400 -0.3249  0.3507
 6642TIP3    H141341   5.645   4.424   3.238  0.1341 -1.0433  1.6501
 6642TIP3    H241342   5.778   4.424   3.167 -1.0130  0.8213 -0.5336
 6643TIP3   OH241343   4.633   0.842   2.579 -0.6402 -0.1955 -0.4860
 6643TIP3    H141344   4.549   0.882   2.556 -0.6807 -0.0444 -0.0830
 6643TIP3    H241345   4.660   0.888   2.659  0.0156  0.0290 -0.8385
 6644TIP3   OH241346   0.761   0.827  12.035 -0.1110  0.1747 -0.0142
 6644TIP3    H141347   0.680   0.825  11.985  0.0100  0.2113 -0.2104
 6644TIP3    H241348   0.829   0.805  11.972 -0.4344 -4.5432  1.0982
 6645TIP3   OH241349   4.519   2.583  15.516  0.1807  0.0127  0.1054
 6645TIP3    H141350   4.559   2.563  15.600  1.3967  4.4906  0.7057
 6645TIP3    H241351   4.590   2.575  15.452 -0.0421 -0.4718 -0.0880
 6646TIP3   OH241352   5.755   4.693  12.026  0.2191  0.2608 -0.2671
 6646TIP3    H141353   5.848   4.718  12.029  0.4768 -0.4079 -1.9948
 6646TIP3    H241354   5.708   4.776  12.031  0.9321  0.6354  0.2794
 6647TIP3   OH241355   5.868   0.636   2.790  0.1038 -0.7720 -0.0635
 6647TIP3    H141356   5.922   0.666   2.717 -0.7136  0.0580 -0.3288
 6647TIP3    H241357   5.845   0.716   2.838 -0.1161 -1.2194  0.5911
 6648TIP3   OH241358   1.492   4.402  12.457  0.1439 -0.0567  0.3224
 6648TIP3    H141359   1.515   4.318  12.417  0.4618  0.7990 -1.3285
 6648TIP3    H241360   1.445   4.378  12.537  1.2565 -1.8104  0.4845
 6649TIP3   OH241361   2.639   0.266   4.570 -0.0627  0.5668 -0.1086
 6649TIP3    H141362   2.584   0.231   4.640  0.1513  0.7670  0.1582
 6649TIP3    H241363   2.578   0.281   4.497 -0.6749  2.4553  0.7660
 6650TIP3   OH241364   6.503   1.267  13.262 -0.1332 -0.8159  0.4415
 6650TIP3    H141365   6.598   1.263  13.268 -0.0518 -0.0715 -0.3337
 6650TIP3    H241366   6.472   1.250  13.351  0.7268 -0.6735  0.7639
 6651TIP3   OH241367   4.152   4.818   5.205  0.0288 -0.4876  0.5052
 6651TIP3    H141368   4.183   4.757   5.138 -1.0827  0.5549 -1.0069
 6651TIP3    H241369   4.188   4.785   5.287  1.3076 -1.8695 -0.5943
 6652TIP3   OH241370   5.065   5.080  16.809  0.4826 -0.1804  0.2956
 6652TIP3    H141371   5.055   5.137  16.885  0.0302  1.1714 -0.7574
 6652TIP3    H241372   4.994   5.016  16.818 -1.4729  1.7793 -0.5165
 6653TIP3   OH241373   3.789   1.552  12.215 -0.5137  0.0999 -0.1252
 6653TIP3    H141374   3.699   1.579  12.198 -0.4368 -0.5821 -1.7631
 6653TIP3    H241375   3.787   1.515  12.303 -1.4755  1.5991  0.5079
 6654TIP3   OH241376   1.432   1.638   4.371 -0.4086 -0.5365 -0.2696
 6654TIP3    H141377   1.523   1.637   4.343  0.1256 -0.3593  1.4573
 6654TIP3    H241378   1.411   1.731   4.382 -0.0492 -0.6678  1.7035
 6655TIP3   OH241379   4.235   3.491   6.280 -0.5790 -0.3747  0.3785
 6655TIP3    H141380   4.149   3.471   6.243 -0.5072 -2.1210  1.0846
 6655TIP3    H241381   4.282   3.537   6.210 -2.4161  1.4826  0.3293
 6656TIP3   OH241382   0.667   5.890   4.050 -0.5880  0.7791 -0.5735
 6656TIP3    H141383   0.629   5.822   3.993  1.9084  1.2007 -2.8593
 6656TIP3    H241384   0.648   5.972   4.005  0.3144  1.2180 -0.1694
 6657TIP3   OH241385   1.283   3.051   5.234  0.3822 -0.6066  0.0829
 6657TIP3    H141386   1.321   2.970   5.269  2.3446  1.3849  2.7852
 6657TIP3    H241387   1.343   3.077   5.164  1.5387  0.1554  1.3385
 6658TIP3   OH241388   3.406   1.685  10.792  0.0697  0.3092  0.8710
 6658TIP3    H141389   3.390   1.598  10.829  0.1162 -0.0622  0.0385
 6658TIP3    H241390   3.325   1.734  10.810 -0.3461 -0.2219  0.4679
 6659TIP3   OH241391   2.238   4.867  16.089  0.2648  0.3784  0.6450
 6659TIP3    H141392   2.318   4.905  16.125  1.7533 -0.4736 -1.6726
 6659TIP3    H241393   2.248   4.773  16.103 -0.3086  0.2549  0.2442
 6660TIP3   OH241394   0.856   4.225  15.078  0.2604  0.1577 -0.0442
 6660TIP3    H141395   0.891   4.306  15.114  0.6361  0.2814 -0.6768
 6660TIP3    H241396   0.763   4.227  15.099  0.2207  0.8850 -0.3015
 6661TIP3   OH241397   6.546   5.715  14.044 -0.3684 -0.2722  0.0605
 6661TIP3    H141398   6.573   5.800  14.080  0.6548 -0.7209  0.3537
 6661TIP3    H241399   6.459   5.700  14.081 -1.2063  1.3519 -1.1671
 6662TIP3   OH241400   0.105   5.449  16.056  0.0840 -0.2178 -0.3267
 6662TIP3    H141401   0.165   5.524  16.047  1.8037 -1.3361  1.5284
 6662TIP3    H241402   0.039   5.479  16.119  0.9055 -0.3456  0.5996
 6663TIP3   OH241403   0.158   6.532  14.296  0.6949  0.4034 -0.3437
 6663TIP3    H141404   0.133   6.569  14.211  2.6182 -0.2180 -1.2031
 6663TIP3    H241405   0.115   6.446  14.298  0.2458  0.6253 -0.4773
 6664TIP3   OH241406   6.697   2.391   0.906 -0.7801 -0.2883  0.1234
 6664TIP3    H141407   6.766   2.430   0.958 -2.7945 -0.1920  2.8384
 6664TIP3    H241408   6.699   2.438   0.823  1.6945  0.3871  0.5400
 6665TIP3   OH241409   4.248   6.656  15.516 -0.2217 -0.3708 -0.6302
 6665TIP3    H141410   4.328   6.611  15.546 -0.3788 -1.0877 -1.2706
 6665TIP3    H241411   4.278   6.743  15.490 -0.0402  0.2060  1.3844
 6666TIP3   OH241412   3.064   1.164   1.998  0.1573  0.4887 -0.2907
 6666TIP3    H141413   3.097   1.117   2.075  0.5357  0.4647 -0.4662
 6666TIP3    H241414   3.077   1.256   2.019 -1.3310  0.5571  0.3913
 6667TIP3   OH241415   4.445   3.647  12.204  0.3436 -0.0722 -0.4984
 6667TIP3    H141416   4.426   3.671  12.294 -2.2042 -1.2413 -0.6492
 6667TIP3    H241417   4.471   3.728  12.161 -2.1375  1.2621  0.4180
 6668TIP3   OH241418   4.778   3.757   5.415 -0.0841  0.4048 -0.2196
 6668TIP3    H141419   4.721   3.720   5.482 -1.1929 -0.3067 -1.5270
 6668TIP3    H241420   4.861   3.712   5.427 -0.4787 -0.2178  0.2348
 6669TIP3   OH241421   1.078   6.065   0.910 -0.4881  0.8955  0.0302
 6669TIP3    H141422   1.061   6.101   0.997  1.9768 -0.9602  1.3473
 6669TIP3    H241423   1.005   6.006   0.893 -0.5768  0.6626  1.1820
 6670TIP3   OH241424   5.313   0.114  16.016 -0.1341 -0.3408  0.4271
 6670TIP3    H141425   5.221   0.114  16.043 -0.0457 -1.0545  0.7283
 6670TIP3    H241426   5.361   0.084  16.093  0.2608 -0.9027 -0.0341
 6671TIP3   OH241427   6.579   6.729   4.883 -0.2362  0.0777 -0.5419
 6671TIP3    H141428   6.637   6.786   4.834  0.3218  0.1000  0.1399
 6671TIP3    H241429   6.493   6.772   4.877 -0.3660 -0.3755 -2.2312
 6672TIP3   OH241430   5.074   3.794  16.619  0.0914  0.6241  0.5308
 6672TIP3    H141431   5.095   3.710  16.578  2.9528  0.6106  1.8467
 6672TIP3    H241432   5.052   3.772  16.710  0.6546  1.2487  0.8258
 6673TIP3   OH241433   3.834   3.434   4.739  0.4232  0.1257 -0.4949
 6673TIP3    H141434   3.819   3.470   4.826  0.5349  0.1310 -0.4782
 6673TIP3    H241435   3.918   3.390   4.745  0.3305 -0.0551 -0.5425
 6674TIP3   OH241436   0.959   6.202  12.012  0.3674  0.2521 -0.2871
 6674TIP3    H141437   0.956   6.112  12.044 -0.4004  0.4334  0.1676
 6674TIP3    H241438   0.868   6.233  12.020  0.1275  0.2876 -2.6681
 6675TIP3   OH241439   0.483   1.333  12.489  0.2117  0.2146  0.3763
 6675TIP3    H141440   0.526   1.322  12.573 -2.1800 -0.5569  1.5368
 6675TIP3    H241441   0.444   1.248  12.470  0.7884  0.3617 -1.5444
 6676TIP3   OH241442   4.830   4.382   0.657  0.0378 -0.5772 -0.0754
 6676TIP3    H141443   4.905   4.323   0.655  0.6836  0.1878  1.1935
 6676TIP3    H241444   4.868   4.469   0.666 -0.9079  0.0653 -2.0241
 6677TIP3   OH241445   2.165   4.209  15.048  0.0432 -0.0139  0.1727
 6677TIP3    H141446   2.183   4.159  15.128 -0.6370 -1.9818 -0.8687
 6677TIP3    H241447   2.251   4.227  15.011  0.2360 -2.2644 -0.5245
 6678TIP3   OH241448   0.779   0.625  15.092 -0.6571  0.0617 -0.1460
 6678TIP3    H141449   0.801   0.716  15.072  0.2847  0.0804  0.9879
 6678TIP3    H241450   0.862   0.584  15.116 -1.4797 -0.4479  1.9043
 6679TIP3   OH241451   1.277   4.156   2.509 -0.0327 -0.4127  0.1150
 6679TIP3    H141452   1.217   4.129   2.439 -1.1686  0.0562  0.8961
 6679TIP3    H241453   1.282   4.079   2.566  0.2639 -0.5199 -0.0552
 6680TIP3   OH241454   1.872   4.626  13.863  0.1858 -0.1348 -0.2522
 6680TIP3    H141455   1.800   4.570  13.893 -0.7360  1.4407  0.5395
 6680TIP3    H241456   1.905   4.582  13.785 -1.4156 -1.0670 -0.4370
 6681TIP3   OH241457   4.357   0.830  16.260  0.5616 -0.6087  0.1613
 6681TIP3    H141458   4.447   0.796  16.256  0.6878 -0.5061  1.7719
 6681TIP3    H241459   4.303   0.761  16.221  1.2569 -0.9726 -0.1684
 6682TIP3   OH241460   5.988   2.180  16.668 -0.4484 -0.4121  0.4069
 6682TIP3    H141461   6.040   2.166  16.747 -2.2728  0.9604  1.8925
 6682TIP3    H241462   6.032   2.252  16.622 -0.4745  0.0717  1.1440
 6683TIP3   OH241463   4.926   1.365  12.201 -0.2542 -0.0285  0.7027
 6683TIP3    H141464   4.865   1.417  12.148 -1.0339 -0.1893  1.4338
 6683TIP3    H241465   4.872   1.299  12.243  0.4915 -0.4342  1.0460
 6684TIP3   OH241466   3.439   6.363   5.231 -0.0059 -0.4350 -0.4640
 6684TIP3    H141467   3.429   6.269   5.213  0.3172 -0.8453  1.3808
 6684TIP3    H241468   3.508   6.367   5.297  0.0574  1.1201 -0.6121
 6685TIP3   OH241469   5.158   0.832   1.093  0.0168 -0.1431 -0.2457
 6685TIP3    H141470   5.200   0.750   1.119  0.5138  0.3986  0.7301
 6685TIP3    H241471   5.134   0.820   1.002  1.8845 -0.6419 -0.6819
 6686TIP3   OH241472   2.899   1.241   0.344  0.2269  0.0856  0.4833
 6686TIP3    H141473   2.852   1.172   0.391  1.3623 -0.0560  1.4350
 6686TIP3    H241474   2.965   1.272   0.406  0.5798  1.1338 -0.3948
 6687TIP3   OH241475   0.687   2.531   4.394 -0.5682  0.8723 -0.7324
 6687TIP3    H141476   0.738   2.570   4.465 -0.1251  0.4902 -0.8374
 6687TIP3    H241477   0.620   2.596   4.373 -0.4593  1.1462 -0.2254
 6688TIP3   OH241478   5.074   1.804  16.918 -0.0043  0.6709  0.4019
 6688TIP3    H141479   5.097   1.717  16.950 -3.0273 -0.5983 -0.6255
 6688TIP3    H241480   5.125   1.814  16.838 -1.3040 -1.1911 -0.7287
 6689TIP3   OH241481   3.094   6.539   5.312 -0.3371 -0.0425  0.2758
 6689TIP3    H141482   3.093   6.443   5.309 -1.0526 -0.1313  2.6585
 6689TIP3    H241483   3.083   6.561   5.404 -0.2988  2.3512 -0.2465
 6690TIP3   OH241484   0.624   1.491   2.677  0.0613  0.0447  0.5023
 6690TIP3    H141485   0.704   1.480   2.728  0.7017  0.0811 -0.4891
 6690TIP3    H241486   0.637   1.437   2.599 -0.2196  1.2843 -0.4207
 6691TIP3   OH241487   0.225   1.565  14.401  0.5669 -0.2958 -0.3473
 6691TIP3    H141488   0.250   1.549  14.310  2.4858 -0.4799  0.1833
 6691TIP3    H241489   0.294   1.523  14.452 -0.6965 -0.5396  1.2123
 6692TIP3   OH241490   0.613   0.503   4.446  0.1397 -0.1281  0.3752
 6692TIP3    H141491   0.621   0.517   4.541 -0.9203  1.5004  0.2559
 6692TIP3    H241492   0.610   0.592   4.410  0.5882 -0.7503 -1.1910
 6693TIP3   OH241493   6.422   5.406  13.932 -0.0650  0.3879 -0.7476
 6693TIP3    H141494   6.507   5.418  13.889  0.4659 -2.5730 -0.6314
 6693TIP3    H241495   6.444   5.362  14.014 -1.7635 -1.0157 -1.0240
 6694TIP3   OH241496   6.519   3.298   3.077  0.0228  0.2775  0.6726
 6694TIP3    H141497   6.606   3.321   3.111 -0.6793  1.4023  1.7554
 6694TIP3    H241498   6.467   3.378   3.089 -0.7129  0.1631 -1.5428
 6695TIP3   OH241499   2.763   0.617  16.704  0.1823 -0.1819  0.1126
 6695TIP3    H141500   2.722   0.703  16.702 -0.2004 -0.3752 -0.3081
 6695TIP3    H241501   2.846   0.629  16.659 -0.6616 -0.4499 -1.5377
 6696TIP3   OH241502   3.924   5.214  16.216 -0.1000  0.2647  0.5334
 6696TIP3    H141503   3.937   5.191  16.124  0.8089 -0.0022  0.7299
 6696TIP3    H241504   3.940   5.308  16.219  0.2086  0.2158  0.4758
 6697TIP3   OH241505   1.898   3.371  17.094  0.5182  0.2617 -0.2689
 6697TIP3    H141506   1.992   3.359  17.110  0.6872  1.8004 -0.0133
 6697TIP3    H241507   1.878   3.311  17.023  1.6342 -0.3095 -0.1119
 6698TIP3   OH241508   6.051   5.180   3.765  0.8786  0.4536  0.0491
 6698TIP3    H141509   5.998   5.109   3.730 -1.5936  2.7050 -0.8788
 6698TIP3    H241510   6.094   5.218   3.689  1.8105  0.2867  0.4845
 6699TIP3   OH241511   3.286   0.193  11.875 -0.4099 -0.2675 -0.3160
 6699TIP3    H141512   3.340   0.116  11.858 -1.3456 -1.1965  0.8417
 6699TIP3    H241513   3.348   0.266  11.869  0.7657 -1.2123 -0.0739
 6700TIP3   OH241514   2.764   3.177  14.194 -0.2677 -0.1814 -0.2900
 6700TIP3    H141515   2.698   3.110  14.183 -1.4621  0.8515  0.4858
 6700TIP3    H241516   2.831   3.136  14.249 -1.5164 -0.3791  1.1128
 6701TIP3   OH241517   0.616   6.766   3.552 -0.0547  0.6053  0.1310
 6701TIP3    H141518   0.656   6.851   3.538 -2.2963  1.6874  0.0844
 6701TIP3    H241519   0.601   6.732   3.463 -0.3190  0.7342  0.1242
 6702TIP3   OH241520   3.799   4.204   2.763  0.4685 -0.0752  0.0759
 6702TIP3    H141521   3.721   4.223   2.712 -0.4242  0.2785  1.5397
 6702TIP3    H241522   3.804   4.274   2.827  2.1326  0.0406 -0.1501
 6703TIP3   OH241523   4.595   3.072   0.405 -0.2685  0.0543 -0.7966
 6703TIP3    H141524   4.589   3.163   0.433  1.2601 -0.7217  2.1890
 6703TIP3    H241525   4.585   3.076   0.310 -1.3747  3.2002 -0.6055
 6704TIP3   OH241526   0.100   3.194  12.351  0.4570 -0.0132  0.8147
 6704TIP3    H141527   0.132   3.114  12.309  1.7637  0.9419 -0.0448
 6704TIP3    H241528   0.017   3.211  12.306  1.9185  1.0890 -1.5892
 6705TIP3   OH241529   4.341   0.169   4.812  0.3016  0.3772  0.2254
 6705TIP3    H141530   4.404   0.235   4.843 -1.2279  2.2699 -0.5820
 6705TIP3    H241531   4.268   0.175   4.872 -1.4544  2.0815 -1.9934
 6706TIP3   OH241532   6.558   2.408   3.076  0.1668  0.0318 -0.4412
 6706TIP3    H141533   6.509   2.378   3.153  1.1165 -1.4215 -0.3859
 6706TIP3    H241534   6.539   2.502   3.071 -2.1339 -0.3675 -0.0667
 6707TIP3   OH241535   1.312   1.575  11.305 -0.4513 -0.0123 -0.4463
 6707TIP3    H141536   1.237   1.607  11.355 -1.9764 -0.8493 -2.1686
 6707TIP3    H241537   1.282   1.492  11.267  1.5451 -0.6643 -0.6748
 6708TIP3   OH241538   6.557   5.995  16.729 -0.2145 -0.2118  0.9138
 6708TIP3    H141539   6.534   5.906  16.703 -2.3242 -0.1140  2.3837
 6708TIP3    H241540   6.500   6.051  16.677 -0.2095  0.2098  1.3629
 6709TIP3   OH241541   0.956   0.309   0.034  0.4641  0.4289  0.1366
 6709TIP3    H141542   0.974   0.383   0.092 -0.9970  1.0487 -0.2028
 6709TIP3    H241543   0.986   0.338  -0.052  1.2943  0.0490  0.2922
 6710TIP3   OH241544   1.538   3.022  11.904 -0.5692  0.0596 -0.0849
 6710TIP3    H141545   1.537   2.968  11.825  0.4833  0.6735 -0.5288
 6710TIP3    H241546   1.505   2.964  11.973 -2.5187 -0.1641 -1.1603
 6711TIP3   OH241547   1.466   3.608   1.186 -0.3165 -0.3648  0.2641
 6711TIP3    H141548   1.495   3.654   1.108  1.0150  1.1159  1.5902
 6711TIP3    H241549   1.495   3.517   1.173  2.7716  0.5380  0.4306
 6712TIP3   OH241550   1.909   3.923  11.692  0.0992  0.9558  0.2396
 6712TIP3    H141551   1.882   3.884  11.776  1.9279  0.1263  0.4622
 6712TIP3    H241552   1.996   3.959  11.709 -0.0407  1.8950 -0.9826
 6713TIP3   OH241553   0.231   1.007  13.287  0.0216  0.3414  0.3255
 6713TIP3    H141554   0.233   1.006  13.191 -1.1590  0.5953  0.3001
 6713TIP3    H241555   0.162   1.070  13.310 -0.3691 -0.4416  1.3372
 6714TIP3   OH241556   0.121   6.573   2.035 -0.5957 -0.2595 -0.1891
 6714TIP3    H141557   0.080   6.659   2.023 -0.9938 -0.3282  0.6231
 6714TIP3    H241558   0.212   6.587   2.010 -0.8435  0.1955 -0.8618
 6715TIP3   OH241559   2.363   4.148  13.982 -0.4597  0.4577 -0.1418
 6715TIP3    H141560   2.410   4.155  13.899  1.0962 -0.5877  0.6350
 6715TIP3    H241561   2.360   4.238  14.014 -0.7245  0.8155 -1.1318
 6716TIP3   OH241562   5.821   1.814   1.918 -0.2791 -0.6144  0.1272
 6716TIP3    H141563   5.856   1.877   1.980 -2.3868  0.0367  0.7023
 6716TIP3    H241564   5.729   1.804   1.943 -0.9231 -1.0619 -2.2851
 6717TIP3   OH241565   5.859   0.030  17.073  0.4780 -0.4449  0.5146
 6717TIP3    H141566   5.911  -0.045  17.046 -1.0456 -1.7472  1.1606
 6717TIP3    H241567   5.798  -0.004  17.138 -0.2409  1.3457  0.8226
 6718TIP3   OH241568   5.780   0.171   1.646 -0.3730 -0.0255 -0.2227
 6718TIP3    H141569   5.714   0.116   1.689 -1.5740  0.0611 -1.8901
 6718TIP3    H241570   5.730   0.244   1.609  1.2336  2.4494  2.2451
 6719TIP3   OH241571   2.885   1.298  11.395 -0.2460 -0.1084 -0.7230
 6719TIP3    H141572   2.895   1.326  11.304  0.1774  1.1544 -0.3072
 6719TIP3    H241573   2.944   1.356  11.444  1.0367 -2.1025  0.1349
 6720TIP3   OH241574   5.344   4.907  13.775  0.3371  0.0600 -0.1637
 6720TIP3    H141575   5.378   4.861  13.698  0.9019  0.2005 -0.0008
 6720TIP3    H241576   5.265   4.859  13.798  0.3280 -0.1633 -0.6579
 6721TIP3   OH241577   5.370   5.497  12.340  0.2319 -0.4241 -0.0098
 6721TIP3    H141578   5.324   5.579  12.358  0.6530  0.4798 -2.8421
 6721TIP3    H241579   5.309   5.429  12.368 -0.9315  0.8026  0.5398
 6722TIP3   OH241580   4.569   5.694   4.659  0.1231 -0.4256  0.2838
 6722TIP3    H141581   4.497   5.753   4.681 -0.0705 -0.3061 -0.6427
 6722TIP3    H241582   4.648   5.741   4.683  0.0162  0.6437 -1.3998
 6723TIP3   OH241583   4.558   4.876  15.032  0.1405  0.6628  0.1721
 6723TIP3    H141584   4.494   4.856  14.963  1.1603  0.5833 -0.7773
 6723TIP3    H241585   4.552   4.971  15.043  0.3423  0.7429 -0.3993
 6724TIP3   OH241586   1.395   2.045   4.531 -0.5554 -0.0820  0.0715
 6724TIP3    H141587   1.447   1.966   4.547  0.1584  0.3615 -0.0811
 6724TIP3    H241588   1.384   2.084   4.618 -0.4792 -0.0701  0.0752
 6725TIP3   OH241589   1.902   1.605   4.824 -0.2793  0.8178 -0.1364
 6725TIP3    H141590   1.844   1.598   4.748 -1.0017 -0.8204  0.5362
 6725TIP3    H241591   1.990   1.596   4.787 -0.6334 -0.1003 -0.7836
 6726TIP3   OH241592   1.709   1.167   4.272  0.1537  0.3626  0.2784
 6726TIP3    H141593   1.788   1.221   4.281  0.9821 -0.8514  0.4144
 6726TIP3    H241594   1.730   1.106   4.201  0.5747 -2.0460  2.3985
 6727TIP3   OH241595   0.192   0.877  12.900  0.1561  0.0733 -0.3580
 6727TIP3    H141596   0.191   0.961  12.946 -0.2977  0.1705 -0.5446
 6727TIP3    H241597   0.256   0.889  12.830  0.7674 -0.0383  0.1783
 6728TIP3   OH241598   1.637   3.776   5.140 -0.5815  0.0449 -0.2003
 6728TIP3    H141599   1.616   3.861   5.102 -0.4510 -0.0728 -0.5358
 6728TIP3    H241600   1.732   3.776   5.147 -0.3969 -1.0123 -2.4038
 6729TIP3   OH241601   0.613   6.478   6.034 -0.6965 -0.1499 -0.0898
 6729TIP3    H141602   0.667   6.418   5.983  0.4543  1.0847 -0.3663
 6729TIP3    H241603   0.605   6.436   6.120  1.2604 -0.0709  0.1672
 6730TIP3   OH241604   6.141   1.365   3.393  0.0561  0.5843  0.2375
 6730TIP3    H141605   6.102   1.354   3.306 -1.8812  0.3931  1.1101
 6730TIP3    H241606   6.208   1.297   3.398 -1.0430 -0.5579 -0.4291
 6731TIP3   OH241607   4.294   4.320  13.307  0.5387 -0.0586 -0.3172
 6731TIP3    H141608   4.379   4.305  13.265  0.7569  0.3410 -0.0251
 6731TIP3    H241609   4.256   4.392  13.256  0.7607  0.3599  0.1025
 6732TIP3   OH241610   4.395   3.324   3.336  0.4279 -0.1480 -0.0771
 6732TIP3    H141611   4.339   3.325   3.258  1.3132 -1.7903 -0.7725
 6732TIP3    H241612   4.334   3.320   3.409 -0.4525  3.0027 -0.5941
 6733TIP3   OH241613   4.539   5.829   0.259 -0.0575 -0.1927 -0.4488
 6733TIP3    H141614   4.600   5.759   0.236  0.5754 -0.1590  1.0929
 6733TIP3    H241615   4.459   5.809   0.210  0.4762 -1.4106 -0.8253
 6734TIP3   OH241616   2.060   2.373  10.919  0.2434  0.2094 -0.1941
 6734TIP3    H141617   2.018   2.326  10.992  2.4740 -0.2903  0.8195
 6734TIP3    H241618   1.988   2.418  10.875 -1.3232 -0.4761  1.5864
 6735TIP3   OH241619   2.788   1.298   5.738 -0.1674 -0.2284 -0.1387
 6735TIP3    H141620   2.754   1.315   5.650 -1.0232 -0.8130  0.0752
 6735TIP3    H241621   2.754   1.211   5.761  1.1174 -0.6424  0.2526
 6736TIP3   OH241622   2.025   5.690  14.163 -0.2755 -0.1980 -0.2858
 6736TIP3    H141623   2.101   5.636  14.186  0.3706  1.3888  1.4221
 6736TIP3    H241624   1.968   5.685  14.240  0.4744  2.6913  0.4994
 6737TIP3   OH241625   0.333   3.650   3.525 -0.1387  0.2101 -0.4604
 6737TIP3    H141626   0.321   3.698   3.443  0.4643 -0.3174 -0.8667
 6737TIP3    H241627   0.335   3.558   3.498 -1.5875 -0.0629  0.3418
 6738TIP3   OH241628   4.876   1.633   1.456  0.2611  0.2733  0.0676
 6738TIP3    H141629   4.846   1.615   1.545 -1.9864  2.2411 -0.2500
 6738TIP3    H241630   4.934   1.709   1.465 -0.6208  0.9878 -0.2404
 6739TIP3   OH241631   2.089   2.878  11.007  0.0700  0.2498 -0.7632
 6739TIP3    H141632   2.122   2.788  11.005 -0.3406  0.0576  0.4463
 6739TIP3    H241633   2.083   2.899  11.100 -1.8929  0.7605 -0.9787
 6740TIP3   OH241634   2.734   4.648  14.706  0.3030 -0.6258 -0.3041
 6740TIP3    H141635   2.765   4.715  14.766  1.6268 -0.6958 -0.8903
 6740TIP3    H241636   2.699   4.580  14.762  0.3215 -0.1077  0.3462
 6741TIP3   OH241637   0.072   0.665  16.534 -0.0863 -0.3445 -0.6668
 6741TIP3    H141638   0.051   0.754  16.563 -1.9690 -0.2669 -2.1025
 6741TIP3    H241639   0.022   0.655  16.453 -0.0679 -2.7974 -0.4092
 6742TIP3   OH241640   0.511   1.145  16.669 -0.2101 -0.2980 -0.3872
 6742TIP3    H141641   0.597   1.103  16.659  0.4258  1.5760 -3.6665
 6742TIP3    H241642   0.528   1.237  16.650 -2.8550  0.1938 -0.4549
 6743TIP3   OH241643   3.469   4.941   2.881 -0.2757 -0.0212 -0.3291
 6743TIP3    H141644   3.522   4.934   2.802  0.5544 -1.3450  0.3052
 6743TIP3    H241645   3.404   5.007   2.862  0.6280  0.4814 -1.7146
 6744TIP3   OH241646   0.064   1.539   3.861  0.2387  0.1873 -0.3623
 6744TIP3    H141647   0.130   1.608   3.855  2.2960 -1.7689 -0.9843
 6744TIP3    H241648   0.106   1.462   3.822 -2.7172 -0.9219 -1.5023
 6745TIP3   OH241649   3.454   3.025   4.370  0.0610 -0.4928 -0.2508
 6745TIP3    H141650   3.390   2.976   4.422  1.4542 -0.7719  1.2383
 6745TIP3    H241651   3.530   2.967   4.364  1.4744  1.1859  0.9494
 6746TIP3   OH241652   0.276   5.103   4.927  0.1467 -0.3884 -0.5999
 6746TIP3    H141653   0.346   5.115   4.863  1.0334 -1.5027  0.1299
 6746TIP3    H241654   0.320   5.106   5.012 -0.6123 -1.5309 -0.1510
 6747TIP3   OH241655   1.071   5.830  14.830 -0.6132 -0.0897  1.1693
 6747TIP3    H141656   1.009   5.762  14.803  1.1536 -0.8569 -1.1960
 6747TIP3    H241657   1.146   5.782  14.865  1.0660  0.5319 -1.4258
 6748TIP3   OH241658   2.582   5.517   3.188 -0.5454  0.1337 -0.9185
 6748TIP3    H141659   2.515   5.570   3.146  0.2257  1.8497 -0.0447
 6748TIP3    H241660   2.647   5.581   3.219  0.2937 -1.2995  0.3485
 6749TIP3   OH241661   4.570   3.405   2.495  0.1113  0.1462 -0.9924
 6749TIP3    H141662   4.546   3.364   2.412 -1.2246  0.3213 -0.7051
 6749TIP3    H241663   4.489   3.447   2.525 -0.5981 -3.3977  2.4276
 6750TIP3   OH241664   3.640   6.684  15.659 -0.4363  0.0168 -0.5005
 6750TIP3    H141665   3.591   6.764  15.641  1.4790  0.8903 -2.0351
 6750TIP3    H241666   3.629   6.670  15.753 -1.4024  1.6754 -0.3457
 6751TIP3   OH241667   1.823   1.101  15.226 -1.1396 -0.0493  0.4776
 6751TIP3    H141668   1.841   1.181  15.276  0.0975  1.7212 -2.6186
 6751TIP3    H241669   1.731   1.082  15.243 -0.9580  0.9244  2.7495
 6752TIP3   OH241670   5.211   5.774  13.502 -0.0401  0.1042 -0.3301
 6752TIP3    H141671   5.276   5.842  13.485  0.4698 -0.3171 -0.0791
 6752TIP3    H241672   5.140   5.820  13.547  0.4122  0.4214  0.0620
 6753TIP3   OH241673   5.468   6.787   5.274 -0.5188  0.0074 -0.3750
 6753TIP3    H141674   5.530   6.835   5.328 -1.3718  0.0459  0.5673
 6753TIP3    H241675   5.435   6.851   5.211 -0.9753  0.4393  0.2985
 6754TIP3   OH241676   0.387   3.085  13.626 -0.1689 -0.2307  0.0603
 6754TIP3    H141677   0.468   3.048  13.662 -0.7210 -1.6220 -0.1110
 6754TIP3    H241678   0.370   3.034  13.547 -1.5392 -0.3681  0.4294
 6755TIP3   OH241679   0.648   2.371   2.954  0.2440 -0.3672  0.1812
 6755TIP3    H141680   0.574   2.421   2.990 -1.2374 -1.8357 -0.7587
 6755TIP3    H241681   0.716   2.377   3.022 -0.6951  1.0643  1.0287
 6756TIP3   OH241682   1.382   3.167   2.661 -0.2242 -0.0815 -0.4151
 6756TIP3    H141683   1.304   3.170   2.606 -0.4779 -1.5496 -0.1448
 6756TIP3    H241684   1.349   3.150   2.749  0.3561 -0.1690 -0.2099
 6757TIP3   OH241685   2.095   5.919   2.083 -0.3027 -0.2585 -0.6194
 6757TIP3    H141686   2.062   6.006   2.061 -0.0437 -0.1861 -0.7175
 6757TIP3    H241687   2.090   5.870   2.001  0.5345 -0.0286 -0.8096
 6758TIP3   OH241688   5.236   3.484  11.363 -0.1012  0.5937  0.0554
 6758TIP3    H141689   5.210   3.477  11.272  2.0444  0.0953 -0.5445
 6758TIP3    H241690   5.187   3.414  11.407 -0.5365  0.3218 -0.8490
 6759TIP3   OH241691   0.923   0.738  11.750  0.0481  0.5570  0.3662
 6759TIP3    H141692   0.882   0.652  11.745 -0.3793  0.6333  2.2339
 6759TIP3    H241693   0.876   0.791  11.686 -1.9712  0.3077  1.5936
 6760TIP3   OH241694   2.342   5.932   0.535 -0.5703  0.0226 -0.3758
 6760TIP3    H141695   2.305   5.874   0.468 -2.0617 -0.6271  0.9718
 6760TIP3    H241696   2.362   5.875   0.609  1.0429  0.7341 -0.2393
 6761TIP3   OH241697   0.506   6.683  11.671 -0.1388  0.0885 -0.0008
 6761TIP3    H141698   0.544   6.755  11.722  0.0529 -1.1452  1.6477
 6761TIP3    H241699   0.440   6.725  11.616  0.3875  1.6103  0.5045
 6762TIP3   OH241700   0.419   2.949   0.689 -0.3234 -0.2241 -0.7049
 6762TIP3    H141701   0.421   2.876   0.627  0.3631 -2.0894  1.4695
 6762TIP3    H241702   0.509   2.979   0.694 -1.0691  3.0086 -4.0563
 6763TIP3   OH241703   1.384   4.068   3.298 -0.0194 -0.1314  0.3070
 6763TIP3    H141704   1.357   4.079   3.389 -0.6786 -2.3509  0.4228
 6763TIP3    H241705   1.339   3.988   3.269  0.4805  0.3158 -1.8501
 6764TIP3   OH241706   5.812   1.045   2.305  0.0991 -0.2689 -0.3172
 6764TIP3    H141707   5.863   1.005   2.375  0.2420 -2.6931 -1.7632
 6764TIP3    H241708   5.721   1.034   2.332  0.1968  0.3965  0.3058
 6765TIP3   OH241709   6.510   6.039   0.433  0.1824 -0.0156 -0.2610
 6765TIP3    H141710   6.590   6.039   0.381  0.0430 -2.0522 -0.5353
 6765TIP3    H241711   6.441   6.062   0.371  0.3473  0.1312 -0.3911
 6766TIP3   OH241712   6.763   5.470   5.433 -0.0625 -0.1834 -1.0289
 6766TIP3    H141713   6.855   5.443   5.434  0.3392  1.1505  0.2099
 6766TIP3    H241714   6.766   5.564   5.451 -1.7542 -0.4317  0.7103
 6767TIP3   OH241715   4.081   4.036   5.358 -0.3572  0.4096  0.4560
 6767TIP3    H141716   4.079   4.131   5.345 -0.5184  0.3169 -0.1754
 6767TIP3    H241717   4.036   4.000   5.282  1.0948 -0.2613 -0.1139
 6768TIP3   OH241718   0.923   5.980   5.004 -0.2077  0.3318  0.3563
 6768TIP3    H141719   0.895   5.946   5.089  0.0084  0.3914  0.4528
 6768TIP3    H241720   0.942   6.072   5.020 -0.0768  0.3210  0.2635
 6769TIP3   OH241721   2.063   0.923   0.696  0.3616 -0.7076 -0.0158
 6769TIP3    H141722   2.027   0.904   0.782 -0.8171  0.1882 -0.3030
 6769TIP3    H241723   1.998   0.890   0.634  0.0972  0.7601 -0.5347
 6770TIP3   OH241724   1.607   5.719   0.468 -0.0930  0.0858  0.5796
 6770TIP3    H141725   1.512   5.726   0.458 -0.2090  1.8909  2.4046
 6770TIP3    H241726   1.619   5.669   0.549  0.5239 -0.6198  0.0584
 6771TIP3   OH241727   3.789   2.553  15.373 -0.0686  0.2353 -0.4633
 6771TIP3    H141728   3.823   2.567  15.285 -1.0056  0.1710 -0.8364
 6771TIP3    H241729   3.841   2.611  15.428 -0.3263  1.2203 -1.2372
 6772TIP3   OH241730   1.475   2.633   2.571  0.1416 -0.1455  0.0071
 6772TIP3    H141731   1.385   2.656   2.594 -1.6975 -2.7941 -4.0318
 6772TIP3    H241732   1.490   2.677   2.487  2.3454 -0.4112  0.2328
 6773TIP3   OH241733   1.954   4.679  11.480 -0.2023 -0.6362  0.6117
 6773TIP3    H141734   1.909   4.701  11.561 -1.0055 -1.9052  0.5207
 6773TIP3    H241735   1.916   4.738  11.415 -0.1981 -0.2367  0.9717
 6774TIP3   OH241736   0.445   6.646  15.809 -0.3908  0.0624  0.7329
 6774TIP3    H141737   0.372   6.648  15.871 -1.7776 -1.9172 -0.7941
 6774TIP3    H241738   0.469   6.554  15.803  0.6061  0.4096 -0.6812
 6775TIP3   OH241739   6.507   0.537  13.379  0.1092 -0.0291 -0.0992
 6775TIP3    H141740   6.562   0.596  13.431  0.2369  2.3277 -2.8044
 6775TIP3    H241741   6.448   0.595  13.331 -1.4554 -2.2704 -0.9775
 6776TIP3   OH241742   5.940   6.375  14.605 -0.6908 -0.5740 -0.7574
 6776TIP3    H141743   6.028   6.392  14.638 -0.7855 -1.2516 -0.1230
 6776TIP3    H241744   5.939   6.281  14.587 -1.9259 -1.0082  1.3071
 6777TIP3   OH241745   4.551   2.491  11.032 -0.0192 -0.3363  0.0127
 6777TIP3    H141746   4.544   2.400  11.001  1.3398 -0.5267  0.2483
 6777TIP3    H241747   4.645   2.507  11.038 -0.2418  1.5121 -1.2419
 6778TIP3   OH241748   3.701   4.866   5.504  0.2182  0.0702  0.7386
 6778TIP3    H141749   3.678   4.946   5.553  1.9446 -0.4737  2.4968
 6778TIP3    H241750   3.776   4.892   5.451  1.0831 -0.4782  1.6696
 6779TIP3   OH241751   5.818   6.532  12.735 -0.6643 -0.2760  0.5358
 6779TIP3    H141752   5.723   6.538  12.723 -0.4235  0.7448 -0.9753
 6779TIP3    H241753   5.834   6.573  12.819 -1.6367 -1.1129  1.1462
 6780TIP3   OH241754   5.199   3.493  15.857  0.2773 -0.0140 -0.1657
 6780TIP3    H141755   5.286   3.468  15.889  0.5250 -0.2354 -1.0139
 6780TIP3    H241756   5.215   3.563  15.794 -0.1617 -0.0213 -0.2875
 6781TIP3   OH241757   4.650   1.882  12.583 -0.4525 -0.3610  0.4371
 6781TIP3    H141758   4.740   1.867  12.554 -0.9515 -1.2741 -0.7037
 6781TIP3    H241759   4.653   1.871  12.678  0.6550 -0.3220  0.4108
 6782TIP3   OH241760   5.382   0.639   4.725  0.1772 -0.2741 -0.0882
 6782TIP3    H141761   5.308   0.691   4.757  0.2605 -1.8004  2.6787
 6782TIP3    H241762   5.345   0.552   4.709  0.6339 -0.1243 -2.1017
 6783TIP3   OH241763   3.391   6.113   4.353 -0.0782 -0.8536  0.1785
 6783TIP3    H141764   3.365   6.152   4.436 -0.1543 -2.3333  0.8622
 6783TIP3    H241765   3.311   6.070   4.320 -1.0093  2.5912 -2.3664
 6784TIP3   OH241766   0.614   2.209   4.540  0.1702  0.5944 -0.0252
 6784TIP3    H141767   0.528   2.243   4.515 -0.1569 -0.1830  0.0273
 6784TIP3    H241768   0.650   2.275   4.599 -0.2571  1.0755 -0.3029
 6785TIP3   OH241769   3.434   0.186   3.727  0.0015 -0.6044  0.4058
 6785TIP3    H141770   3.408   0.276   3.705 -0.5060 -0.5854  1.0659
 6785TIP3    H241771   3.506   0.197   3.788 -0.3043 -0.6416  0.7751
 6786TIP3   OH241772   5.366   4.453   4.509 -0.2668 -0.0578 -0.1987
 6786TIP3    H141773   5.402   4.541   4.520 -1.8912  0.3680  2.1466
 6786TIP3    H241774   5.349   4.445   4.415  0.4683  1.8981 -0.5157
 6787TIP3   OH241775   3.838   4.348  15.016  0.1734  0.2697 -0.2209
 6787TIP3    H141776   3.798   4.272  15.058 -0.6768  0.5446 -0.5156
 6787TIP3    H241777   3.857   4.408  15.087  0.4667 -0.0466 -0.0330
 6788TIP3   OH241778   3.275   2.211   5.062 -0.1364 -0.0794  0.5230
 6788TIP3    H141779   3.356   2.245   5.025 -1.2605  1.0569 -0.9619
 6788TIP3    H241780   3.207   2.241   5.002 -1.7200 -0.5363  2.0530
 6789TIP3   OH241781   3.449   2.451   2.697 -0.1368  0.2531  0.6966
 6789TIP3    H141782   3.541   2.459   2.723  0.5666 -0.2038 -1.5610
 6789TIP3    H241783   3.431   2.530   2.647 -0.3739 -0.5792 -0.5633
 6790TIP3   OH241784   0.198   5.081  16.830  0.4435 -0.2447 -0.6746
 6790TIP3    H141785   0.234   5.165  16.858 -0.3482 -0.6438  1.6846
 6790TIP3    H241786   0.119   5.103  16.781  0.2446  0.3846 -0.0713
 6791TIP3   OH241787   3.623   6.208  10.536 -0.9874  0.3237 -0.6362
 6791TIP3    H141788   3.652   6.299  10.544  1.8359 -0.4814 -1.2259
 6791TIP3    H241789   3.679   6.160  10.596 -1.2232 -1.2978 -1.6882
 6792TIP3   OH241790   2.124   1.099   2.252 -0.6608  0.0807  0.1553
 6792TIP3    H141791   2.213   1.131   2.270 -0.8955  0.2245  1.0985
 6792TIP3    H241792   2.119   1.015   2.299 -0.8392 -0.2011 -0.3601
 6793TIP3   OH241793   3.955   5.369   1.013 -0.9157  0.3004 -0.4963
 6793TIP3    H141794   3.928   5.278   1.007  0.3149 -0.2716  2.0740
 6793TIP3    H241795   3.925   5.398   1.099  0.3518  1.7655 -0.5178
 6794TIP3   OH241796   2.617   6.423  16.116  0.1296 -0.0553  0.0817
 6794TIP3    H141797   2.667   6.427  16.198 -0.1951 -0.0247  0.2793
 6794TIP3    H241798   2.613   6.514  16.086 -1.8568  0.2976  1.3125
 6795TIP3   OH241799   6.122   2.879   3.718 -0.2580  0.3538  0.1777
 6795TIP3    H141800   6.205   2.875   3.765 -1.4497 -0.6710  2.2772
 6795TIP3    H241801   6.101   2.973   3.714  0.9928  0.6212 -0.4024
 6796TIP3   OH241802   5.688   5.924  15.300 -0.6054 -0.3945  0.4064
 6796TIP3    H141803   5.641   5.896  15.379 -0.5836 -0.5841  0.3520
 6796TIP3    H241804   5.779   5.897  15.316 -0.0312  2.0614  1.5348
 6797TIP3   OH241805   0.605   3.406   4.474  0.1546 -0.0828 -0.4478
 6797TIP3    H141806   0.641   3.431   4.559 -0.0682 -1.1757 -0.0350
 6797TIP3    H241807   0.681   3.400   4.417  0.0619  3.6881 -1.1449
 6798TIP3   OH241808   1.837   0.979   5.890 -0.8605 -0.3019  0.1501
 6798TIP3    H141809   1.758   1.011   5.933 -0.5232  0.5740  0.1346
 6798TIP3    H241810   1.906   0.987   5.956 -0.2281  1.5718 -0.6851
 6799TIP3   OH241811   5.716   5.699   2.982  0.7993  0.6716 -0.9034
 6799TIP3    H141812   5.643   5.744   3.024 -0.6700 -1.5912 -0.9404
 6799TIP3    H241813   5.775   5.677   3.054 -0.3570 -0.7263 -0.3507
 6800TIP3   OH241814   0.990   3.696  10.996 -0.1145  0.1427  0.0229
 6800TIP3    H141815   1.069   3.730  11.038  0.7234 -0.2402 -1.2036
 6800TIP3    H241816   1.021   3.625  10.940 -1.1178  0.9259 -1.5839
 6801TIP3   OH241817   3.978   4.072   4.065 -0.5655 -0.1034  0.5940
 6801TIP3    H141818   3.995   4.165   4.082 -1.5196  0.2122 -0.1373
 6801TIP3    H241819   4.062   4.038   4.035 -0.5430  0.8346 -0.4488
 6802TIP3   OH241820   4.538   5.929  16.259  0.1022  0.3050  0.5610
 6802TIP3    H141821   4.514   5.869  16.329  0.4409 -0.5686 -0.0710
 6802TIP3    H241822   4.634   5.933  16.262  0.0873  0.7682  0.5571
 6803TIP3   OH241823   1.833   3.104   5.462 -0.2982  0.4822 -0.2064
 6803TIP3    H141824   1.753   3.112   5.410 -0.6166  0.2492  0.2480
 6803TIP3    H241825   1.805   3.122   5.552 -0.1919 -1.4018  0.2229
 6804TIP3   OH241826   2.234   4.126   0.538 -0.0399  0.3991  0.1034
 6804TIP3    H141827   2.248   4.101   0.629  0.4097  0.5468  0.0787
 6804TIP3    H241828   2.188   4.209   0.542  0.0317  0.4333  0.1957
 6805TIP3   OH241829   6.424   0.760  14.952 -0.3405 -0.4540 -0.5946
 6805TIP3    H141830   6.499   0.710  14.919 -0.0469 -0.2607 -0.2284
 6805TIP3    H241831   6.350   0.700  14.947 -0.3925 -0.3021 -1.9927
 6806TIP3   OH241832   1.728   0.018  11.481 -0.8987 -0.0069 -0.0070
 6806TIP3    H141833   1.736   0.023  11.386  2.0444  3.0307  0.3200
 6806TIP3    H241834   1.787  -0.054  11.506 -0.1961  0.4491 -0.3381
 6807TIP3   OH241835   5.668   0.748  16.359  0.0097 -0.1313  0.3794
 6807TIP3    H141836   5.708   0.831  16.382  0.0478 -0.0695  0.0868
 6807TIP3    H241837   5.734   0.682  16.381  1.2471  0.1309 -2.3823
 6808TIP3   OH241838   3.119   5.243   3.310  0.1387  0.4526  0.2521
 6808TIP3    H141839   3.159   5.254   3.224  1.0567 -0.5073  0.5452
 6808TIP3    H241840   3.156   5.313   3.364  1.3768 -0.3731  0.4965
 6809TIP3   OH241841   5.505   1.042  12.365 -0.2850 -0.4276 -0.3523
 6809TIP3    H141842   5.594   1.024  12.394 -0.9588  0.6196  2.5369
 6809TIP3    H241843   5.509   1.131  12.329  0.3111 -1.2940 -2.4926
 6810TIP3   OH241844   6.143   2.569  11.219 -0.1441 -0.6106 -1.0607
 6810TIP3    H141845   6.140   2.613  11.133 -0.6146 -0.7332 -1.1040
 6810TIP3    H241846   6.156   2.477  11.198  2.6045 -0.3021 -0.9291
 6811TIP3   OH241847   2.535   5.916   0.062  0.6223 -0.0696  0.2058
 6811TIP3    H141848   2.593   5.862   0.115  0.7016 -1.3088 -1.1347
 6811TIP3    H241849   2.573   6.004   0.067  1.4675 -0.4765  0.9755
 6812TIP3   OH241850   1.795   1.132   6.459  0.2959 -0.1367 -0.0052
 6812TIP3    H141851   1.832   1.220   6.457  0.2110 -0.1187 -1.9593
 6812TIP3    H241852   1.868   1.074   6.438 -0.4373 -0.1964 -2.6341
 6813TIP3   OH241853   4.753   0.522   5.688 -0.3257 -0.3049  0.3518
 6813TIP3    H141854   4.800   0.455   5.638  0.0977 -0.4070  0.8826
 6813TIP3    H241855   4.792   0.518   5.775 -1.4615 -0.5296  0.8521
 6814TIP3   OH241856   3.163   1.956   1.986 -0.3292 -0.7513 -0.0520
 6814TIP3    H141857   3.097   1.954   2.055 -2.3533  2.8036 -1.7835
 6814TIP3    H241858   3.114   1.941   1.905  1.3581 -0.5782 -1.1351
 6815TIP3   OH241859   1.347   1.658  11.958  0.0771  0.4341 -0.4064
 6815TIP3    H141860   1.415   1.676  12.022  0.5674 -3.1422  0.1791
 6815TIP3    H241861   1.266   1.656  12.009  0.3094 -1.1250 -0.0611
 6816TIP3   OH241862   0.402   5.965   3.048  0.0453  0.1657  0.3874
 6816TIP3    H141863   0.307   5.973   3.045  0.0364 -0.3249 -1.9549
 6816TIP3    H241864   0.419   5.906   3.121 -1.3436  1.4966  1.8020
 6817TIP3   OH241865   3.663   4.398  12.378  0.1700 -0.3048 -0.1904
 6817TIP3    H141866   3.583   4.354  12.349 -0.2293  0.1835  0.1458
 6817TIP3    H241867   3.720   4.327  12.409 -1.4627 -0.4238  2.7492
 6818TIP3   OH241868   5.949   0.616   0.686 -0.6352  0.0059 -0.0006
 6818TIP3    H141869   6.008   0.547   0.715 -2.1381 -1.0113  0.7048
 6818TIP3    H241870   5.992   0.697   0.713  1.1660 -0.6479 -0.8909
 6819TIP3   OH241871   3.702   0.359  11.643  0.2680 -0.3636 -0.3426
 6819TIP3    H141872   3.627   0.362  11.703  1.1874 -1.4219  0.8859
 6819TIP3    H241873   3.740   0.447  11.647  1.4577 -0.9444  2.1432
 6820TIP3   OH241874   5.194   2.579  14.401  0.3090  0.0408  0.1712
 6820TIP3    H141875   5.178   2.667  14.368 -0.8378 -0.4008 -0.4606
 6820TIP3    H241876   5.175   2.585  14.495 -0.4756  0.2973 -0.0009
 6821TIP3   OH241877   1.737   4.085  15.325  0.1552 -0.2280  0.2249
 6821TIP3    H141878   1.746   4.146  15.252  0.6614  0.9961  1.2779
 6821TIP3    H241879   1.672   4.126  15.383 -0.4563 -1.3189  0.3340
 6822TIP3   OH241880   4.719   1.284  13.451 -0.6995  0.0957  0.6601
 6822TIP3    H141881   4.794   1.342  13.466 -0.8720  0.1230  1.4458
 6822TIP3    H241882   4.757   1.198  13.434 -0.4275  0.5101 -0.8707
 6823TIP3   OH241883   4.730   3.477  10.204 -0.6680 -0.4823  0.1321
 6823TIP3    H141884   4.692   3.477  10.292 -0.2909  0.2144  0.3011
 6823TIP3    H241885   4.775   3.393  10.197 -0.5372 -0.4608  0.6820
 6824TIP3   OH241886   2.562   0.056   1.496 -0.1779 -0.3412  0.3839
 6824TIP3    H141887   2.622   0.032   1.567 -1.7443  0.7388  2.1271
 6824TIP3    H241888   2.488  -0.004   1.506 -0.2983 -0.3418 -0.4877
 6825TIP3   OH241889   5.786   4.331  16.428  0.2052 -0.7975  0.0156
 6825TIP3    H141890   5.698   4.329  16.465  0.3546 -1.9970  0.3602
 6825TIP3    H241891   5.836   4.388  16.487 -0.7311  1.1867 -1.1160
 6826TIP3   OH241892   0.296   3.965   4.146  0.2064 -0.2309 -0.7963
 6826TIP3    H141893   0.288   3.942   4.054 -2.4868  1.9338 -1.1547
 6826TIP3    H241894   0.261   3.889   4.193 -3.1223  0.6626 -1.7566
 6827TIP3   OH241895   4.290   0.544   5.584 -0.3227 -0.0702 -0.2252
 6827TIP3    H141896   4.322   0.569   5.497 -0.2875 -1.9685 -0.7823
 6827TIP3    H241897   4.196   0.529   5.571  0.0857 -2.7038 -0.5324
 6828TIP3   OH241898   2.041   0.628   5.711  0.2773  0.4130 -0.6197
 6828TIP3    H141899   2.068   0.678   5.633  0.3224 -0.7610 -1.3740
 6828TIP3    H241900   1.961   0.672   5.741  0.4394  1.0742 -1.1400
 6829TIP3   OH241901   0.533   1.622  11.566  0.5553 -0.6093  0.0693
 6829TIP3    H141902   0.492   1.633  11.481 -1.9412 -0.8884  1.2065
 6829TIP3    H241903   0.463   1.593  11.624  1.8590  1.0245  2.5721
 6830TIP3   OH241904   5.905   1.214  16.487 -0.0467 -0.0415 -0.1088
 6830TIP3    H141905   5.919   1.250  16.575 -0.3200  0.4033 -0.2461
 6830TIP3    H241906   5.820   1.248  16.461 -0.4606 -1.0665 -0.1105
 6831TIP3   OH241907   3.506   0.187  12.262  0.2340 -0.1519  0.2519
 6831TIP3    H141908   3.444   0.115  12.273 -2.9806  2.0774 -2.2926
 6831TIP3    H241909   3.463   0.262  12.303  1.1454  1.4970 -1.7617
 6832TIP3   OH241910   2.846   4.180  12.835  0.0870  0.1323 -0.0886
 6832TIP3    H141911   2.816   4.235  12.763 -0.4379 -0.9578 -0.7090
 6832TIP3    H241912   2.942   4.182  12.828  0.0460  0.3303 -0.5807
 6833TIP3   OH241913   6.480   5.930   0.863  0.1008  0.2347 -0.2232
 6833TIP3    H141914   6.397   5.940   0.815  0.8772  2.1383 -1.2538
 6833TIP3    H241915   6.455   5.935   0.955 -0.8724  1.5166 -0.5330
 6834TIP3   OH241916   3.802   3.447  14.973  0.6925 -0.0343  0.3573
 6834TIP3    H141917   3.779   3.536  14.947 -0.9974 -0.9900 -1.5434
 6834TIP3    H241918   3.749   3.431  15.051 -0.3553  0.0002 -0.3403
 6835TIP3   OH241919   5.563   2.941   5.093  0.2785  0.7502 -0.0323
 6835TIP3    H141920   5.643   2.964   5.045 -0.4864 -0.0140 -1.7006
 6835TIP3    H241921   5.493   2.983   5.044 -0.5814 -0.5601  0.0676
 6836TIP3   OH241922   1.923   4.699   6.608  0.1667  0.5434 -0.0788
 6836TIP3    H141923   1.990   4.663   6.665  2.0724  0.0644 -2.5274
 6836TIP3    H241924   1.972   4.743   6.538 -1.9961 -0.8949 -2.5935
 6837TIP3   OH241925   1.770   0.790   6.332 -0.8249  0.7497  0.0067
 6837TIP3    H141926   1.825   0.717   6.304 -0.6608  0.0521  2.0741
 6837TIP3    H241927   1.793   0.861   6.272  1.0682 -0.0493 -0.2572
 6838TIP3   OH241928   3.633   3.952   2.713 -0.3560  0.3180  0.3001
 6838TIP3    H141929   3.554   3.920   2.671 -0.6350  1.7313 -0.2642
 6838TIP3    H241930   3.608   4.036   2.752  0.4843  0.0954  1.3523
 6839TIP3   OH241931   3.837   1.810   4.406 -0.8456 -0.8237  0.1082
 6839TIP3    H141932   3.786   1.760   4.470 -1.4053 -0.0227  0.3006
 6839TIP3    H241933   3.836   1.756   4.327 -0.6419 -1.5507  0.5959
 6840TIP3   OH241934   6.123   4.202  16.518 -0.1741 -0.0670 -0.4849
 6840TIP3    H141935   6.097   4.162  16.601  0.6769 -1.6128 -0.9349
 6840TIP3    H241936   6.085   4.289  16.520  0.1392  0.0397  1.6941
 6841TIP3   OH241937   0.130   3.984  15.359 -0.8040  0.1778  0.1155
 6841TIP3    H141938   0.155   4.055  15.300  0.2935 -1.3967 -1.3456
 6841TIP3    H241939   0.050   3.948  15.321 -0.1662 -0.7563 -0.3450
 6842TIP3   OH241940   4.272   6.365  15.764 -0.2250 -0.7163 -0.7789
 6842TIP3    H141941   4.344   6.400  15.711 -0.3433  0.5229 -0.1311
 6842TIP3    H241942   4.286   6.270  15.763  1.5706 -0.4733 -0.4533
 6843TIP3   OH241943   3.620   5.318   2.558 -0.1969 -0.7329 -0.0259
 6843TIP3    H141944   3.672   5.369   2.620  0.9917 -1.2937 -0.5507
 6843TIP3    H241945   3.569   5.383   2.510 -0.6051 -0.2383  1.0466
 6844TIP3   OH241946   6.060   3.312   0.404  0.0197 -0.6551  0.2254
 6844TIP3    H141947   6.071   3.285   0.495  0.8885 -1.5511 -0.1358
 6844TIP3    H241948   5.970   3.290   0.383 -0.6100  0.8207  1.2815
 6845TIP3   OH241949   3.768   1.347   0.397  0.7470  0.0320 -0.0340
 6845TIP3    H141950   3.723   1.419   0.353  2.1486  0.7576 -0.3287
 6845TIP3    H241951   3.760   1.367   0.490 -2.4079 -1.6184  0.0838
 6846TIP3   OH241952   2.084   3.803   5.400  0.0706 -0.0615 -0.3847
 6846TIP3    H141953   2.123   3.875   5.449  0.2129  0.5272 -1.3490
 6846TIP3    H241954   2.142   3.728   5.415  1.0128  0.5383 -0.9658
 6847TIP3   OH241955   6.606   2.562  13.311 -0.4822 -0.3071 -0.2594
 6847TIP3    H141956   6.579   2.495  13.374  0.6622  1.4365  2.1793
 6847TIP3    H241957   6.664   2.619  13.361 -1.0847  2.2689 -2.4113
 6848TIP3   OH241958   4.943   1.051  13.984 -0.0486 -0.4329  0.0995
 6848TIP3    H141959   4.875   1.117  13.999 -0.7042 -1.1552  0.2699
 6848TIP3    H241960   5.024   1.102  13.978 -0.2623  0.2105  2.3170
 6849TIP3   OH241961   6.115   0.334   3.247  1.3936  0.3645  0.0662
 6849TIP3    H141962   6.172   0.266   3.210  0.6661 -1.0755  1.5242
 6849TIP3    H241963   6.036   0.332   3.193  1.9860  1.1275 -0.8438
 6850TIP3   OH241964   3.905   4.457  13.846 -0.1309  0.3137 -0.4896
 6850TIP3    H141965   3.983   4.509  13.864 -0.2697 -0.2548  1.9330
 6850TIP3    H241966   3.849   4.514  13.793  0.1385  2.2983  1.3150
 6851TIP3   OH241967   2.823   0.071  12.321 -0.1936 -0.0375  0.5911
 6851TIP3    H141968   2.861   0.000  12.374 -1.3410 -1.5865 -0.5893
 6851TIP3    H241969   2.740   0.091  12.364 -0.8985 -0.9624 -0.2932
 6852TIP3   OH241970   1.755   4.211   6.259 -0.0944 -0.2258 -0.4927
 6852TIP3    H141971   1.743   4.303   6.281  0.5891 -0.1559 -0.3893
 6852TIP3    H241972   1.738   4.206   6.165 -0.5709 -0.0780 -0.4168
 6853TIP3   OH241973   2.407   1.639   4.808 -0.1564  0.4120 -0.1190
 6853TIP3    H141974   2.421   1.704   4.739  2.9114  1.5736  1.4818
 6853TIP3    H241975   2.373   1.691   4.882 -0.5163 -0.3028  0.2191
 6854TIP3   OH241976   3.375   1.077   1.104 -0.0781 -0.2410 -0.1542
 6854TIP3    H141977   3.345   1.114   1.187 -0.0462 -0.7609  0.0905
 6854TIP3    H241978   3.450   1.022   1.127  0.4539  0.2820 -0.6384
 6855TIP3   OH241979   2.627   6.777   2.147  0.3445 -0.1101 -0.2009
 6855TIP3    H141980   2.655   6.855   2.194 -0.6717 -0.4316  0.9618
 6855TIP3    H241981   2.539   6.798   2.115  0.3375 -0.5321 -0.4643
 6856TIP3   OH241982   2.707   1.766   2.335 -0.3917 -0.2490  0.5044
 6856TIP3    H141983   2.785   1.722   2.366 -0.7139 -0.6151  0.7977
 6856TIP3    H241984   2.690   1.834   2.401 -0.5920 -0.4749  0.6839
 6857TIP3   OH241985   6.004   6.589  17.021 -0.0075  0.2258 -0.5253
 6857TIP3    H141986   6.095   6.561  17.025 -0.1408 -0.1963 -0.3933
 6857TIP3    H241987   5.954   6.507  17.022 -0.3250  0.3828 -2.4305
 6858TIP3   OH241988   0.881   3.656  15.617  0.4781 -0.6244  0.1254
 6858TIP3    H141989   0.942   3.706  15.671 -2.5352  2.4815  0.8087
 6858TIP3    H241990   0.837   3.597  15.678 -1.6497  1.6241  0.8378
 6859TIP3   OH241991   4.918   6.508  13.868  0.6608 -0.2625 -0.6364
 6859TIP3    H141992   4.870   6.430  13.895 -1.0972  0.9720 -0.1701
 6859TIP3    H241993   4.866   6.546  13.798 -0.4333  2.4652  1.5435
 6860TIP3   OH241994   6.049   3.320   1.373  0.2625  0.9277  0.7342
 6860TIP3    H141995   6.052   3.404   1.419 -0.6450  1.4108 -0.0483
 6860TIP3    H241996   6.078   3.340   1.284 -0.2146  0.4645  0.4685
 6861TIP3   OH241997   5.584   2.120   1.341  0.2452  0.0197  0.4630
 6861TIP3    H141998   5.654   2.072   1.296 -0.2300  0.4996 -0.7912
 6861TIP3    H241999   5.631   2.171   1.407  0.9235 -0.8712  0.6904
 6862TIP3   OH242000   1.162   0.714  15.806  0.4364  0.4278 -0.1770
 6862TIP3    H142001   1.204   0.654  15.868 -0.5388 -0.4334 -0.3313
 6862TIP3    H242002   1.211   0.703  15.725  0.5192  0.1313 -0.0874
 6863TIP3   OH242003   3.074   3.365   0.950 -0.0288  0.3883  0.3757
 6863TIP3    H142004   3.047   3.442   0.899 -0.6176  0.1456  0.3130
 6863TIP3    H242005   3.014   3.296   0.922  1.3849 -0.4704 -0.5676
 6864TIP3   OH242006   5.664   5.384  15.483  0.0264  0.1989 -0.0516
 6864TIP3    H142007   5.683   5.336  15.563 -1.8772 -1.1559 -0.3704
 6864TIP3    H242008   5.737   5.364  15.425  0.4367 -0.3934  0.6645
 6865TIP3   OH242009   1.770   6.297  11.829 -0.2068 -0.2783 -0.1802
 6865TIP3    H142010   1.838   6.336  11.883 -0.8477 -0.4908  0.7981
 6865TIP3    H242011   1.696   6.358  11.835 -0.0979 -0.0529 -1.2197
 6866TIP3   OH242012   0.504   2.124  11.804  0.2022 -0.3204  0.1302
 6866TIP3    H142013   0.430   2.062  11.805 -1.2125  1.3170  1.1806
 6866TIP3    H242014   0.545   2.113  11.890  0.4556 -0.3775  0.0033
 6867TIP3   OH242015   5.807   2.290  13.689 -0.4256  0.3461 -0.5413
 6867TIP3    H142016   5.878   2.232  13.719 -1.0896  0.3337  1.0469
 6867TIP3    H242017   5.844   2.378  13.694 -1.1894  0.5391  2.3609
 6868TIP3   OH242018   3.592   5.748   1.504 -0.8039  0.4243 -0.0289
 6868TIP3    H142019   3.644   5.755   1.423 -0.3725  0.8260  0.2806
 6868TIP3    H242020   3.553   5.661   1.500  0.8978 -0.3713  0.3295
 6869TIP3   OH242021   3.483   3.011  16.579 -0.3549  0.0130 -0.3560
 6869TIP3    H142022   3.492   3.062  16.659 -1.0726 -0.7782  0.2487
 6869TIP3    H242023   3.412   3.054  16.531  0.3909  0.7625 -0.7823
 6870TIP3   OH242024   6.485   2.838   2.588 -0.1728 -0.0348  0.4829
 6870TIP3    H142025   6.399   2.796   2.587  0.5733 -1.6988 -3.4991
 6870TIP3    H242026   6.468   2.929   2.565 -0.8984 -0.2021  0.3565
 6871TIP3   OH242027   5.728   1.514   0.475  0.1591  0.5111  0.0576
 6871TIP3    H142028   5.679   1.504   0.556 -0.4163  2.3485 -0.0270
 6871TIP3    H242029   5.751   1.425   0.449 -2.4649 -0.3553  0.5115
 6872TIP3   OH242030   0.834   3.673   2.532  0.6889  0.3200  0.2092
 6872TIP3    H142031   0.764   3.685   2.468  1.3146  1.1187 -0.3353
 6872TIP3    H242032   0.866   3.584   2.517  0.5641  0.3638 -0.3219
 6873TIP3   OH242033   4.770   0.496  10.548 -0.1915  0.1866 -0.2429
 6873TIP3    H142034   4.692   0.551  10.542 -0.0443  0.5626  1.0280
 6873TIP3    H242035   4.793   0.476  10.458 -1.4881  0.4622 -0.6401
 6874TIP3   OH242036   2.633   6.268  14.428 -0.6918 -0.1636  0.3638
 6874TIP3    H142037   2.614   6.220  14.347  0.8517  2.1127 -1.4213
 6874TIP3    H242038   2.714   6.228  14.461 -0.4037 -0.0195 -0.1489
 6875TIP3   OH242039   1.372   1.133  15.988  0.1832  0.4341 -0.8209
 6875TIP3    H142040   1.417   1.211  15.956 -0.5750  0.9554 -0.6412
 6875TIP3    H242041   1.288   1.166  16.020  1.0690  0.0175  2.1066
 6876TIP3   OH242042   4.934   3.138   5.632  0.0188  0.2331  0.0701
 6876TIP3    H142043   4.847   3.158   5.599 -0.4692 -0.0355  1.1655
 6876TIP3    H242044   4.979   3.098   5.558 -0.4183  1.3933 -0.8361
 6877TIP3   OH242045   5.357   4.392  16.814  0.3138  0.2654  0.1526
 6877TIP3    H142046   5.267   4.366  16.797  0.6914 -0.1446 -1.2979
 6877TIP3    H242047   5.361   4.483  16.783  0.7987 -0.2263 -1.2586
 6878TIP3   OH242048   3.850   3.735  13.103 -0.2084  0.1610 -0.5424
 6878TIP3    H142049   3.828   3.644  13.125  1.6143 -0.2072 -0.1942
 6878TIP3    H242050   3.928   3.728  13.049 -0.3170  1.5188 -0.8775
 6879TIP3   OH242051   0.916   4.548   4.644  0.0206  0.2626  0.0094
 6879TIP3    H142052   0.826   4.569   4.618 -0.6485  0.0286  2.0188
 6879TIP3    H242053   0.963   4.538   4.562 -1.9632 -0.3180 -1.0898
 6880TIP3   OH242054   4.756   1.091  14.368 -0.1039  0.3330  0.0306
 6880TIP3    H142055   4.798   1.159  14.314  2.0531 -0.0622  1.1886
 6880TIP3    H242056   4.747   1.016  14.309  0.6746  0.4763 -0.2792
 6881TIP3   OH242057   6.212   6.472   0.728 -0.4210  0.1312  0.3103
 6881TIP3    H142058   6.142   6.538   0.729 -1.1238 -0.5949 -0.0566
 6881TIP3    H242059   6.218   6.445   0.636 -1.2188 -1.4363  0.7054
 6882TIP3   OH242060   5.753   1.110   2.699  0.3636  0.1147 -0.1705
 6882TIP3    H142061   5.768   1.203   2.714  3.4144 -0.0881 -1.5219
 6882TIP3    H242062   5.753   1.071   2.787 -0.0059  1.2518  0.3405
 6883TIP3   OH242063   5.798   2.720  15.219  0.1258  0.3632  0.5436
 6883TIP3    H142064   5.826   2.773  15.144  0.3688  0.5105  0.7384
 6883TIP3    H242065   5.787   2.632  15.183  2.9637 -0.1802  0.9375
 6884TIP3   OH242066   0.112   1.364   3.145 -0.6671  0.0342 -0.7710
 6884TIP3    H142067   0.135   1.392   3.234  0.0920  2.0273 -1.5618
 6884TIP3    H242068   0.155   1.279   3.135 -1.0125 -0.3590  0.8601
 6885TIP3   OH242069   4.616   6.037  15.892 -0.3572 -0.3551 -0.0070
 6885TIP3    H142070   4.529   6.040  15.931 -0.4936 -1.5396 -0.2081
 6885TIP3    H242071   4.622   6.118  15.840 -1.0327  0.1008  0.6280
 6886TIP3   OH242072   1.965   5.517   1.235 -0.0480 -0.0656  0.1107
 6886TIP3    H142073   1.944   5.424   1.240  1.5497 -0.6071 -2.2704
 6886TIP3    H242074   2.004   5.538   1.320  0.0790 -1.7021  0.4660
 6887TIP3   OH242075   4.524   0.445  12.560  0.7225  0.8293  0.1732
 6887TIP3    H142076   4.573   0.527  12.566  1.1632  0.6206 -0.4626
 6887TIP3    H242077   4.583   0.378  12.595  0.7977  0.6172 -0.3504
 6888TIP3   OH242078   0.590   6.512   3.637  0.1429 -0.0444 -0.7093
 6888TIP3    H142079   0.625   6.508   3.726 -1.2444  0.4038 -0.1231
 6888TIP3    H242080   0.625   6.593   3.601  0.4544 -0.0662 -0.4596
 6889TIP3   OH242081   2.259   6.756  12.224  0.3043 -0.7148 -0.3602
 6889TIP3    H142082   2.175   6.766  12.178  0.8573 -0.3947 -1.2926
 6889TIP3    H242083   2.317   6.714  12.160  1.2147  0.1636 -0.1149
 6890TIP3   OH242084   5.827   6.233   4.581  0.4372 -0.0349 -0.3321
 6890TIP3    H142085   5.858   6.191   4.662  0.1658  0.9322  0.2732
 6890TIP3    H242086   5.904   6.278   4.546 -0.0507  1.6572  0.7251
 6891TIP3   OH242087   1.072   0.138   1.087 -0.1953  0.0023  0.0864
 6891TIP3    H142088   1.012   0.138   1.012  1.7945  0.0811 -1.5200
 6891TIP3    H242089   1.157   0.160   1.050  1.1949 -1.8717  2.0648
 6892TIP3   OH242090   0.637   4.075   2.700 -0.5640  0.0333  0.0015
 6892TIP3    H142091   0.697   4.097   2.629  1.3580  0.8295  1.8130
 6892TIP3    H242092   0.579   4.150   2.707  0.1331  0.5547  0.1843
 6893TIP3   OH242093   0.993   2.351   5.456 -0.6669 -0.1092 -0.4809
 6893TIP3    H142094   0.967   2.302   5.378 -0.9957 -0.5278 -0.1097
 6893TIP3    H242095   1.088   2.364   5.445 -0.7035 -0.2123 -0.9248
 6894TIP3   OH242096   6.605   1.762  16.174 -0.3515 -0.0498  0.2556
 6894TIP3    H142097   6.699   1.748  16.166 -0.0808  1.3496  0.9328
 6894TIP3    H242098   6.567   1.675  16.163  1.2352 -1.1921  3.3289
 6895TIP3   OH242099   5.787   5.086   0.336  0.4688  0.6786  0.1259
 6895TIP3    H142100   5.739   5.068   0.417  0.6000  0.1692  0.0957
 6895TIP3    H242101   5.877   5.102   0.364  1.0239 -1.8557 -0.1114
 6896TIP3   OH242102   2.470   6.415   1.523 -0.0052  0.0832 -0.4888
 6896TIP3    H142103   2.432   6.477   1.585 -1.3458  0.2091 -1.4280
 6896TIP3    H242104   2.564   6.436   1.523 -0.0676  0.4236  1.0830
 6897TIP3   OH242105   0.553   1.017  15.495  0.3728  0.5129  0.3488
 6897TIP3    H142106   0.520   0.949  15.435  0.8842  1.5147 -1.0890
 6897TIP3    H242107   0.538   0.980  15.582 -1.9523 -0.2682 -0.3281
 6898TIP3   OH242108   6.104   5.979  10.920 -0.1694 -0.8951  0.3293
 6898TIP3    H142109   6.066   5.945  11.000 -1.6399  0.5409  0.2646
 6898TIP3    H242110   6.199   5.978  10.936 -0.4542 -0.4848  2.1329
 6899TIP3   OH242111   6.423   0.728  13.180  0.1708  0.0535  0.3782
 6899TIP3    H142112   6.351   0.791  13.177  0.8532  0.8671  0.7625
 6899TIP3    H242113   6.452   0.720  13.088 -0.4876 -0.3701  0.2086
 6900TIP3   OH242114   2.752   6.326  15.474  0.1707  0.0046 -0.0687
 6900TIP3    H142115   2.750   6.380  15.395 -1.9500  2.6745  1.7120
 6900TIP3    H242116   2.838   6.343  15.512  0.0293  1.1252 -0.2183
 6901TIP3   OH242117   2.362   5.292  11.826 -0.1769  0.4389  0.0396
 6901TIP3    H142118   2.391   5.210  11.787 -0.3383  0.6215 -0.4731
 6901TIP3    H242119   2.440   5.347  11.830  0.2199 -0.2339  1.6634
 6902TIP3   OH242120   5.450   5.890   3.640 -0.5309 -0.3874  0.1347
 6902TIP3    H142121   5.443   5.940   3.721 -2.0151  2.8094 -1.8976
 6902TIP3    H242122   5.536   5.915   3.604 -1.4078  0.9962 -1.0383
 6903TIP3   OH242123   5.479   3.444   3.455 -0.3070 -0.1995 -0.2282
 6903TIP3    H142124   5.523   3.529   3.444 -1.1519  0.0720 -1.6123
 6903TIP3    H242125   5.488   3.401   3.371 -1.5980 -0.6583 -0.1438
 6904TIP3   OH242126   2.162   0.665   4.120 -0.4494 -0.5235  0.4575
 6904TIP3    H142127   2.084   0.656   4.065  0.4392 -1.3151 -0.7074
 6904TIP3    H242128   2.225   0.711   4.065 -0.1625  0.3196  1.4791
 6905TIP3   OH242129   1.114   5.696  13.825 -0.1648 -0.1491 -0.2419
 6905TIP3    H142130   1.107   5.613  13.779 -0.9936 -0.3005  0.1644
 6905TIP3    H242131   1.051   5.691  13.896 -0.2196  0.8265 -0.2073
 6906TIP3   OH242132   2.668   6.217  13.576 -0.0131 -0.2645 -0.2005
 6906TIP3    H142133   2.757   6.226  13.610  0.0287 -1.6504  0.0795
 6906TIP3    H242134   2.623   6.296  13.607  1.4609  1.1347 -1.4848
 6907TIP3   OH242135   2.205   3.691  13.764 -0.1998  0.2587 -0.2098
 6907TIP3    H142136   2.220   3.597  13.772 -0.5657  0.0686 -1.5894
 6907TIP3    H242137   2.128   3.699  13.708 -0.8129  1.3667  0.7650
 6908TIP3   OH242138   3.880   3.807  11.376 -0.1765 -0.6247  0.4780
 6908TIP3    H142139   3.966   3.849  11.382 -0.0937 -0.7035 -0.1050
 6908TIP3    H242140   3.860   3.807  11.283 -1.2681  0.2876  0.7012
 6909TIP3   OH242141   3.506   1.785  12.000 -0.1185  0.4373 -0.2974
 6909TIP3    H142142   3.569   1.857  11.995  0.5891 -0.0174  1.6531
 6909TIP3    H242143   3.428   1.819  11.958  0.4097  2.1419  0.0441
 6910TIP3   OH242144   2.011   5.214  15.136 -0.1315  0.2418  0.6520
 6910TIP3    H142145   1.939   5.196  15.198  0.0053  0.6541  0.9320
 6910TIP3    H242146   1.970   5.263  15.065 -0.4002 -0.7111  0.1410
 6911TIP3   OH242147   5.249   3.815   6.145 -0.1613  0.0902 -0.0999
 6911TIP3    H142148   5.269   3.800   6.237  0.0019  1.1852  0.0533
 6911TIP3    H242149   5.160   3.781   6.134  0.4859 -1.6811  0.0211
 6912TIP3   OH242150   5.430   0.731   5.458 -0.1531  0.1979 -0.2307
 6912TIP3    H142151   5.482   0.800   5.415 -0.8762  1.2788  0.6194
 6912TIP3    H242152   5.340   0.753   5.437 -0.4155 -0.2305  0.4634
 6913TIP3   OH242153   2.417   6.007   3.921 -0.0076 -0.4230  0.5870
 6913TIP3    H142154   2.447   6.078   3.978 -2.1635  0.9976  0.0152
 6913TIP3    H242155   2.428   5.928   3.973 -0.0142  0.6192  2.1939
 6914TIP3   OH242156   1.648   5.069   0.936 -0.3336  0.1732  0.3139
 6914TIP3    H142157   1.674   5.161   0.924 -0.0049  0.2676  1.6421
 6914TIP3    H242158   1.557   5.066   0.908 -0.2587  0.8418 -0.0266
 6915TIP3   OH242159   0.479   4.210   4.228  0.0414  0.4807 -0.7117
 6915TIP3    H142160   0.476   4.120   4.262  0.0295  0.3463 -1.0728
 6915TIP3    H242161   0.392   4.225   4.193 -0.3840  1.1191  0.6020
 6916TIP3   OH242162   3.038   2.958   0.218  0.1849 -0.0812 -0.0308
 6916TIP3    H142163   3.020   2.962   0.312  0.5835 -2.0976  0.1532
 6916TIP3    H242164   2.979   2.889   0.185  2.3501 -1.6975 -0.6672
 6917TIP3   OH242165   2.817   3.671  15.890  0.0767 -0.2928  0.2163
 6917TIP3    H142166   2.897   3.619  15.885 -0.1044 -0.4103 -3.1732
 6917TIP3    H242167   2.846   3.760  15.910  1.0328 -0.4012 -0.6872
 6918TIP3   OH242168   3.966   3.306   2.931 -0.0859  0.2495  0.5877
 6918TIP3    H142169   3.892   3.324   2.990  1.5411  0.3027  2.6849
 6918TIP3    H242170   3.955   3.214   2.907 -1.1202  0.3984  0.4681
 6919TIP3   OH242171   3.598   3.973   4.142  0.0931  0.0727  0.1511
 6919TIP3    H142172   3.608   4.067   4.129  1.7843 -0.1058  0.1134
 6919TIP3    H242173   3.547   3.943   4.067 -0.2010  0.8985  0.0200
 6920TIP3   OH242174   0.395   0.494  15.476  0.5153  0.3769 -0.0106
 6920TIP3    H142175   0.338   0.480  15.552  0.5731  1.5447  0.2588
 6920TIP3    H242176   0.452   0.417  15.475  0.4328  0.2822  1.0731
 6921TIP3   OH242177   5.133   5.695  13.247 -0.3145 -0.4610  0.4269
 6921TIP3    H142178   5.124   5.602  13.267 -0.4676 -0.3230  0.9873
 6921TIP3    H242179   5.175   5.732  13.325  0.6914 -0.2443 -0.2030
 6922TIP3   OH242180   0.995   5.417   2.966  0.0395  0.1563 -0.1499
 6922TIP3    H142181   1.053   5.396   2.892  0.6771 -0.8146  0.6079
 6922TIP3    H242182   1.033   5.495   3.006  1.4954 -1.1313  1.0289
 6923TIP3   OH242183   6.547   5.297   2.147 -0.0264 -0.1447 -0.0754
 6923TIP3    H142184   6.476   5.238   2.172 -0.4085 -0.4887 -1.9033
 6923TIP3    H242185   6.553   5.359   2.220  0.5970 -2.5873  2.0194
 6924TIP3   OH242186   0.752   0.167   6.145  0.0639 -0.2004 -0.5041
 6924TIP3    H142187   0.756   0.139   6.053 -1.6787 -0.7540 -0.4240
 6924TIP3    H242188   0.741   0.086   6.194  0.9806  0.0998  0.1934
 6925TIP3   OH242189   5.040   0.888  17.003  0.2545 -0.2309 -0.2778
 6925TIP3    H142190   4.978   0.911  17.071 -1.0039 -2.3650 -0.6351
 6925TIP3    H242191   5.125   0.887  17.047 -0.5061 -1.3261  1.2354
 6926TIP3   OH242192   4.539   3.869   0.825  0.4238  0.2020 -1.0381
 6926TIP3    H142193   4.504   3.958   0.820 -0.9154 -0.1696  1.0477
 6926TIP3    H242194   4.588   3.857   0.743 -1.4165  1.9708 -2.4305
 6927TIP3   OH242195   1.055   3.501  10.778 -0.1967 -0.4537  0.2173
 6927TIP3    H142196   1.119   3.435  10.753 -2.5195 -2.4971 -0.5441
 6927TIP3    H242197   0.995   3.506  10.704  0.0831  2.7719  0.1294
 6928TIP3   OH242198   4.676   6.541   3.034  0.4520  0.3910  0.2801
 6928TIP3    H142199   4.761   6.549   3.076 -0.0493 -0.0977  1.4053
 6928TIP3    H242200   4.625   6.484   3.092 -0.3178 -0.1427 -0.8784
 6929TIP3   OH242201   6.575   5.526   0.986 -0.2350  0.1150  0.4812
 6929TIP3    H142202   6.518   5.553   0.914  1.3555  0.1033 -0.8186
 6929TIP3    H242203   6.583   5.431   0.977 -1.0570 -0.0506  1.4535
 6930TIP3   OH242204   5.365   3.002  12.997  0.0790  0.0549  0.1619
 6930TIP3    H142205   5.451   2.996  13.040  0.0958  0.9030  0.2574
 6930TIP3    H242206   5.362   3.091  12.962  0.2801 -0.7718 -2.0554
 6931TIP3   OH242207   1.140   5.489   4.952  0.5276  0.2686 -0.3820
 6931TIP3    H142208   1.176   5.502   5.039 -1.3218 -1.7567  0.7243
 6931TIP3    H242209   1.215   5.462   4.899  1.0776 -1.7065  1.3525
 6932TIP3   OH242210   1.116   6.639  14.197  0.5825 -0.4931 -0.3491
 6932TIP3    H142211   1.143   6.637  14.105  1.0840 -0.3297 -0.2107
 6932TIP3    H242212   1.196   6.615  14.245  0.3005 -0.6608  0.0377
 6933TIP3   OH242213   2.904   3.352  12.453  0.3493  0.0074  0.8848
 6933TIP3    H142214   2.940   3.323  12.537  0.0236  0.9321  1.3497
 6933TIP3    H242215   2.861   3.275  12.417 -1.3888  0.1605  2.5770
 6934TIP3   OH242216   3.146   0.658   1.171  0.0619  0.1928 -0.1583
 6934TIP3    H142217   3.236   0.639   1.145 -0.2332 -0.4988 -0.6990
 6934TIP3    H242218   3.127   0.743   1.131 -0.5520 -1.0818 -2.7022
 6935TIP3   OH242219   5.258   1.034  12.472 -0.3514  1.1758  0.4838
 6935TIP3    H142220   5.334   1.012  12.418 -0.4905  0.8801  0.4050
 6935TIP3    H242221   5.290   1.027  12.562 -0.6452 -0.3161  0.4839
 6936TIP3   OH242222   4.935   4.863  13.134 -0.1326  0.1012 -0.2286
 6936TIP3    H142223   4.886   4.784  13.112  0.5233 -0.1883 -0.6614
 6936TIP3    H242224   5.012   4.861  13.078  1.6270 -0.7222  2.1161
 6937TIP3   OH242225   4.749   2.992   0.059 -0.7514  0.2693 -0.0258
 6937TIP3    H142226   4.700   2.915   0.031  0.9147 -0.6072 -0.5916
 6937TIP3    H242227   4.836   2.959   0.082  0.8661  2.2794 -2.8341
 6938TIP3   OH242228   1.573   2.888  12.313 -0.4409 -0.3193 -0.2536
 6938TIP3    H142229   1.566   2.869  12.406  0.0877  1.4504  0.1709
 6938TIP3    H242230   1.667   2.904  12.299 -0.7533  1.2006 -0.7091
 6939TIP3   OH242231   4.810   4.820   0.621 -0.3211 -0.4764 -0.0174
 6939TIP3    H142232   4.899   4.832   0.653 -1.1627  1.9033  1.6210
 6939TIP3    H242233   4.775   4.909   0.614 -3.4956 -1.4364  2.1756
 6940TIP3   OH242234   3.098   0.069   2.224 -0.2361  0.1335  0.2506
 6940TIP3    H142235   3.136   0.082   2.311 -0.4609  1.2226  0.1933
 6940TIP3    H242236   3.173   0.058   2.166 -0.0265  1.0488  0.3340
 6941TIP3   OH242237   6.394   1.424  11.504  0.0532 -0.0185  0.5219
 6941TIP3    H142238   6.432   1.337  11.515  1.3126  0.2643 -1.4231
 6941TIP3    H242239   6.303   1.408  11.482 -0.1510 -0.7820  1.8575
 6942TIP3   OH242240   5.359   2.295   6.366  0.2950  0.0961 -0.2476
 6942TIP3    H142241   5.354   2.344   6.448 -0.8591 -0.9099  0.2878
 6942TIP3    H242242   5.445   2.253   6.368 -0.3251 -1.1536  1.1641
 6943TIP3   OH242243   1.555   2.350  16.953 -0.1393 -0.1891  0.2421
 6943TIP3    H142244   1.555   2.368  16.859  1.6265  0.6189  0.3840
 6943TIP3    H242245   1.588   2.260  16.960 -0.4257 -0.3089  0.0979
 6944TIP3   OH242246   0.613   1.655   6.880  0.2775  0.5825  0.0437
 6944TIP3    H142247   0.709   1.661   6.883  0.3289  0.0465 -0.3611
 6944TIP3    H242248   0.593   1.642   6.787 -0.0407 -1.2874  0.3431
 6945TIP3   OH242249   3.428   2.175  13.095 -0.2593  0.1592  0.0443
 6945TIP3    H142250   3.334   2.179  13.075 -0.7309  1.5526  2.2328
 6945TIP3    H242251   3.453   2.085  13.076 -2.1491 -0.3430 -0.2119
 6946TIP3   OH242252   5.673   1.755  13.865 -0.2032 -0.1643  0.3556
 6946TIP3    H142253   5.587   1.795  13.877  0.2540  0.6942  0.8202
 6946TIP3    H242254   5.655   1.671  13.823 -1.4108 -0.8036  2.1125
 6947TIP3   OH242255   5.684   4.758   3.234  0.2562 -0.0898 -0.4234
 6947TIP3    H142256   5.704   4.709   3.155  0.3314  0.3410 -0.6694
 6947TIP3    H242257   5.705   4.849   3.213  1.6677 -0.1711  0.5594
 6948TIP3   OH242258   4.230   1.946  13.459 -0.6200 -0.2585  0.3393
 6948TIP3    H142259   4.306   1.984  13.415 -0.9665  1.1367  0.9334
 6948TIP3    H242260   4.265   1.905  13.538 -0.2607 -1.1530 -0.2675
 6949TIP3   OH242261   4.329   5.707   6.921 -0.0919 -0.5245 -0.0960
 6949TIP3    H142262   4.411   5.735   6.963  0.8443 -0.2722 -2.0515
 6949TIP3    H242263   4.262   5.724   6.987  0.9705  2.4883  0.2652
 6950TIP3   OH242264   5.684   5.164   3.402 -0.8446  0.0439 -0.1050
 6950TIP3    H142265   5.652   5.075   3.416  0.6705 -0.4628  0.2711
 6950TIP3    H242266   5.609   5.221   3.420 -1.1644 -1.0321  2.0034
 6951TIP3   OH242267   6.521   5.298  10.516 -0.2462 -0.3606  0.1127
 6951TIP3    H142268   6.450   5.245  10.552  0.5392 -0.6978  1.1631
 6951TIP3    H242269   6.601   5.252  10.540  0.3988  0.7188  0.0868
 6952TIP3   OH242270   4.403   0.946   2.444 -0.1862 -0.0922 -0.2802
 6952TIP3    H142271   4.331   0.889   2.470 -1.5118  1.0809 -1.2645
 6952TIP3    H242272   4.384   1.030   2.486  1.7686 -0.3689  1.2113
 6953TIP3   OH242273   1.233   2.905  11.345  0.2181  0.2573 -0.4133
 6953TIP3    H142274   1.258   2.931  11.257  1.3994  3.0869  0.6816
 6953TIP3    H242275   1.142   2.935  11.354  0.6067  1.4065 -0.1765
 6954TIP3   OH242276   1.531   3.154  15.594  0.4338  0.0956  0.1593
 6954TIP3    H142277   1.470   3.129  15.524  0.2083  2.8629 -0.6896
 6954TIP3    H242278   1.484   3.133  15.675 -0.1565 -1.1664 -0.4801
 6955TIP3   OH242279   1.745   3.346  15.611  0.1510  0.6823 -0.0627
 6955TIP3    H142280   1.707   3.407  15.675 -2.3982  0.0919 -0.9671
 6955TIP3    H242281   1.681   3.275  15.605  1.5872 -0.5169 -1.3877
 6956TIP3   OH242282   4.126   3.061   0.910 -0.1850  0.2108  0.0908
 6956TIP3    H142283   4.049   3.034   0.960  1.9828  0.5244  3.7729
 6956TIP3    H242284   4.156   2.980   0.868 -1.4040 -0.3264  0.2256
 6957TIP3   OH242285   6.547   2.173  11.881 -0.5183 -0.1986 -0.7201
 6957TIP3    H142286   6.524   2.158  11.973 -2.4792  2.6589 -0.6689
 6957TIP3    H242287   6.466   2.159  11.833 -0.2737  1.3350 -1.6211
 6958TIP3   OH242288   5.638   0.475  12.495 -0.0266 -0.3835  0.4130
 6958TIP3    H142289   5.710   0.459  12.557  1.0472 -0.6609 -0.8906
 6958TIP3    H242290   5.661   0.556  12.451 -0.1009 -0.9190 -0.6106
 6959TIP3   OH242291   2.291   0.356  11.585 -0.0219 -0.5077 -0.7384
 6959TIP3    H142292   2.229   0.334  11.655 -0.6113 -3.6077 -2.1384
 6959TIP3    H242293   2.247   0.331  11.504  2.3766 -1.2079 -1.8887
 6960TIP3   OH242294   2.707   5.256   3.513  0.0161  0.5041  0.1307
 6960TIP3    H142295   2.671   5.169   3.531 -0.3610  0.9452  1.5705
 6960TIP3    H242296   2.712   5.298   3.599  2.3355  1.0926 -0.2615
 6961TIP3   OH242297   1.950   5.351  13.778 -0.2508 -0.4140 -0.0402
 6961TIP3    H142298   1.856   5.358  13.794 -0.6557 -0.6126 -2.1283
 6961TIP3    H242299   1.984   5.437  13.801 -0.9225 -0.3916  0.8891
 6962TIP3   OH242300   1.547   4.411   0.846  0.1222 -0.2778  0.1805
 6962TIP3    H142301   1.621   4.395   0.903  0.6370  0.6400 -0.2139
 6962TIP3    H242302   1.580   4.471   0.779 -0.9114 -0.0284 -0.1276
 6963TIP3   OH242303   6.169   3.921   3.389  0.3125 -0.7122 -0.1705
 6963TIP3    H142304   6.122   3.892   3.468  1.3772 -2.3058 -0.1065
 6963TIP3    H242305   6.147   4.014   3.381 -0.1631 -0.6375  1.7549
 6964TIP3   OH242306   3.763   1.393  10.980 -0.0074  0.3534  0.6539
 6964TIP3    H142307   3.743   1.461  10.916 -0.5583  0.5227  1.0074
 6964TIP3    H242308   3.841   1.425  11.025 -0.0544  0.5812  0.5726
 6965TIP3   OH242309   0.853   5.498  16.039 -0.1584 -0.5626  0.2989
 6965TIP3    H142310   0.925   5.474  16.097  1.5166  1.7634 -0.7611
 6965TIP3    H242311   0.860   5.438  15.965  0.4624 -0.5984  0.3872
 6966TIP3   OH242312   6.199   1.225   4.761  0.0572 -0.1116  0.4622
 6966TIP3    H142313   6.109   1.244   4.735 -0.3331 -0.0436  1.8136
 6966TIP3    H242314   6.195   1.138   4.800  0.4899  0.0728  0.9261
 6967TIP3   OH242315   5.205   5.107  13.523 -0.0248 -0.9533  0.4888
 6967TIP3    H142316   5.189   5.022  13.565 -1.4007 -1.0367 -0.1983
 6967TIP3    H242317   5.211   5.087  13.430  0.4584 -0.4059  0.4031
 6968TIP3   OH242318   5.372   3.345  16.712  0.2921  0.0905 -0.6335
 6968TIP3    H142319   5.309   3.281  16.680  1.8875 -2.4115  1.0205
 6968TIP3    H242320   5.443   3.344  16.646  1.1319 -1.1854  0.2635
 6969TIP3   OH242321   4.401   1.412   3.496 -0.0832  0.2100  0.1673
 6969TIP3    H142322   4.435   1.453   3.417 -1.2627 -1.1108 -1.0798
 6969TIP3    H242323   4.471   1.353   3.524  0.0243  0.0785 -0.3678
 6970TIP3   OH242324   3.234   6.105   4.649 -0.0281  0.5496  0.8494
 6970TIP3    H142325   3.281   6.183   4.619 -0.1160  0.0354 -0.6479
 6970TIP3    H242326   3.303   6.044   4.674  0.1075  0.0319 -0.7452
 6971TIP3   OH242327   1.929   6.373  13.800  0.1962  0.1623 -0.8007
 6971TIP3    H142328   1.955   6.461  13.773  0.0300  0.9703  1.5730
 6971TIP3    H242329   1.835   6.381  13.821 -0.4809 -1.2213 -3.1461
 6972TIP3   OH242330   2.280   1.419  12.272  0.0243  0.3667  0.1204
 6972TIP3    H142331   2.276   1.324  12.270 -2.1492  0.4393 -0.6329
 6972TIP3    H242332   2.246   1.443  12.358 -0.8410  0.5024 -0.2549
 6973TIP3   OH242333   3.140   4.662   2.209  0.3716  0.4626 -0.1326
 6973TIP3    H142334   3.168   4.593   2.149  1.2911  0.6968  0.0134
 6973TIP3    H242335   3.162   4.743   2.163  1.1466  0.6446  0.5491
 6974TIP3   OH242336   0.163   3.748  14.925 -0.8432 -0.2835  0.0451
 6974TIP3    H142337   0.082   3.712  14.888 -1.2992  0.3188  0.4539
 6974TIP3    H242338   0.155   3.732  15.019 -0.1345 -0.9169 -0.0025
 6975TIP3   OH242339   0.404   1.601  11.327  0.8871  0.4487  0.4485
 6975TIP3    H142340   0.326   1.644  11.291  1.8980  1.4001 -0.6251
 6975TIP3    H242341   0.440   1.551  11.254  0.7089 -0.8478  1.2241
 6976TIP3   OH242342   3.458   0.411  11.790  0.0973  0.1913 -0.1161
 6976TIP3    H142343   3.436   0.486  11.845 -1.0261  0.4256 -0.8653
 6976TIP3    H242344   3.420   0.432  11.705 -0.5088 -1.3532 -0.2544
 6977TIP3   OH242345   0.265   0.368   1.358 -0.3321 -0.1648  0.6600
 6977TIP3    H142346   0.343   0.313   1.369 -1.5006 -2.0858 -0.5602
 6977TIP3    H242347   0.254   0.410   1.444  1.6969 -0.3298  1.0239
 6978TIP3   OH242348   4.850   5.648   0.291  0.0373 -0.0648  0.8106
 6978TIP3    H142349   4.942   5.622   0.298  1.1638  3.1990 -0.6360
 6978TIP3    H242350   4.823   5.665   0.382  1.3411  0.3829  1.1261
 6979TIP3   OH242351   3.759   1.808   1.807 -0.1681  0.0854  0.2168
 6979TIP3    H142352   3.682   1.759   1.777  0.2606 -0.9615  0.7977
 6979TIP3    H242353   3.761   1.886   1.751 -2.2876  0.6976  0.9529
 6980TIP3   OH242354   2.002   2.599   1.942 -0.0186 -0.1246 -0.2466
 6980TIP3    H142355   2.097   2.590   1.940 -0.0729 -0.7365 -0.4123
 6980TIP3    H242356   1.978   2.619   1.851 -0.0798 -0.3664 -0.2848
 6981TIP3   OH242357   4.803   4.637   4.620  0.2941 -0.6245 -0.0539
 6981TIP3    H142358   4.743   4.579   4.666  0.2466 -0.0313  0.6425
 6981TIP3    H242359   4.747   4.703   4.578  0.4633  0.0224  0.7278
 6982TIP3   OH242360   2.261   5.796   1.366  0.2146  0.0111  0.3758
 6982TIP3    H142361   2.184   5.748   1.394 -0.6959  1.7216  0.9131
 6982TIP3    H242362   2.228   5.862   1.305  1.6793 -1.1801 -1.7709
 6983TIP3   OH242363   0.517   5.714  15.762 -0.4587 -0.1112 -0.4562
 6983TIP3    H142364   0.493   5.768  15.686  0.7634  0.7104 -0.2853
 6983TIP3    H242365   0.515   5.775  15.835 -2.6756 -1.1317  0.3818
 6984TIP3   OH242366   2.495   4.894   1.538  0.4630  0.3891 -0.0117
 6984TIP3    H142367   2.519   4.803   1.558  0.5037  0.5646  0.7408
 6984TIP3    H242368   2.550   4.917   1.463 -0.9994 -0.8845 -1.5480
 6985TIP3   OH242369   1.554   4.449   5.566 -0.3281 -0.2538  0.3209
 6985TIP3    H142370   1.475   4.435   5.619  0.0810  1.1280  1.3014
 6985TIP3    H242371   1.552   4.542   5.544  0.6401 -0.3705 -0.2833
 6986TIP3   OH242372   0.363   3.058  10.643  0.9578 -0.1962  0.3243
 6986TIP3    H142373   0.418   2.979  10.639  1.7747  0.3601  0.4865
 6986TIP3    H242374   0.279   3.027  10.676  0.9991 -1.1509 -0.4389
 6987TIP3   OH242375   0.211   0.302   2.369  0.3761 -0.7288  0.2321
 6987TIP3    H142376   0.229   0.274   2.279  2.5681 -1.2699  0.8157
 6987TIP3    H242377   0.249   0.389   2.376 -0.0927 -0.5441  0.5455
 6988TIP3   OH242378   3.903   5.106   4.336  0.4792 -0.0411  0.0227
 6988TIP3    H142379   3.891   5.200   4.351  0.8610  0.1575 -0.9337
 6988TIP3    H242380   3.827   5.065   4.378  1.5523  0.4980  2.6222
 6989TIP3   OH242381   4.960   2.355  12.101 -0.1192 -0.4542 -0.3830
 6989TIP3    H142382   4.986   2.331  12.190  0.3149 -2.6641 -1.0809
 6989TIP3    H242383   4.952   2.450  12.104 -0.6164 -0.5287  2.1487
 6990TIP3   OH242384   1.168   5.810  16.800  0.1657 -0.0400  0.2684
 6990TIP3    H142385   1.111   5.824  16.876 -0.6917 -1.6121 -0.0583
 6990TIP3    H242386   1.148   5.883  16.742 -1.4204 -0.4658  0.2427
 6991TIP3   OH242387   3.333   2.344  10.666  0.6273  0.2376 -0.1600
 6991TIP3    H142388   3.256   2.313  10.618  1.0594 -0.7073 -0.2467
 6991TIP3    H242389   3.304   2.347  10.757 -0.0467  1.5706 -0.4086
 6992TIP3   OH242390   5.094   0.150   5.189 -0.5969  0.0235  0.2743
 6992TIP3    H142391   5.146   0.145   5.269  1.5235  0.7019 -1.0030
 6992TIP3    H242392   5.010   0.187   5.216 -0.2418 -0.6076  2.3047
 6993TIP3   OH242393   0.462   2.056   3.629  0.8694 -0.1284 -0.5884
 6993TIP3    H142394   0.396   2.115   3.594  1.9500  1.2404 -0.3823
 6993TIP3    H242395   0.423   2.021   3.709  0.9577  1.8937  0.3898
 6994TIP3   OH242396   4.022   3.600   5.373  0.2072 -0.5317  0.4452
 6994TIP3    H142397   4.024   3.614   5.278 -0.3325 -0.5716  0.4288
 6994TIP3    H242398   3.942   3.642   5.402  0.3986 -0.4740  0.8946
 6995TIP3   OH242399   3.550   3.552   0.453 -0.3738  0.0761  0.0222
 6995TIP3    H142400   3.467   3.595   0.433 -0.4540 -0.7196 -1.3999
 6995TIP3    H242401   3.531   3.458   0.451  0.2936 -0.0955  0.9096
 6996TIP3   OH242402   4.764   0.354   0.164  0.1305  0.1887 -0.2795
 6996TIP3    H142403   4.725   0.354   0.077  0.3935 -0.3597 -0.4015
 6996TIP3    H242404   4.700   0.308   0.219 -0.0038  0.4720 -0.1984
 6997TIP3   OH242405   1.858   6.434   4.858  0.3410 -0.3894  0.2587
 6997TIP3    H142406   1.950   6.406   4.849 -0.2242 -2.1493 -0.2636
 6997TIP3    H242407   1.809   6.353   4.869 -1.1903  0.5265  0.3716
 6998TIP3   OH242408   2.364   1.113   3.660  0.2332  0.0942  0.0335
 6998TIP3    H142409   2.327   1.074   3.580  1.3501 -2.3686  0.6983
 6998TIP3    H242410   2.427   1.049   3.692  1.4350  2.0409  1.7059
 6999TIP3   OH242411   5.796   0.341   5.505 -0.1879  0.2157  0.8256
 6999TIP3    H142412   5.858   0.412   5.489 -1.0897  1.0214  0.8566
 6999TIP3    H242413   5.802   0.325   5.599 -4.0902  4.1788  1.8944
 7000TIP3   OH242414   0.313   2.983  11.546  0.3549  0.2125  0.0396
 7000TIP3    H142415   0.307   2.941  11.632 -0.5892  0.9070  0.3310
 7000TIP3    H242416   0.280   2.918  11.485 -3.3938  1.2828  0.7562
 7001TIP3   OH242417   4.338   6.576  12.236  0.0507  0.2622  0.4630
 7001TIP3    H142418   4.257   6.541  12.198 -0.4362 -0.4951  2.1477
 7001TIP3    H242419   4.308   6.645  12.296  0.9275  2.8803 -1.9813
 7002TIP3   OH242420   1.040   6.765   1.292  0.2968  0.5472  0.0678
 7002TIP3    H142421   1.043   6.829   1.222 -0.6808 -0.2587 -0.7260
 7002TIP3    H242422   1.095   6.693   1.262  1.0800  0.8416  0.7841
 7003TIP3   OH242423   1.901   0.288  16.071 -0.2622 -0.5221  0.0688
 7003TIP3    H142424   1.823   0.260  16.023 -0.0603 -2.3648  0.7321
 7003TIP3    H242425   1.868   0.314  16.157 -0.3099  0.1162 -0.1427
 7004TIP3   OH242426   6.530   0.832  14.572 -0.2552  0.2023  0.3477
 7004TIP3    H142427   6.593   0.760  14.573  0.9748  1.1968 -1.6033
 7004TIP3    H242428   6.447   0.790  14.549  0.4698 -0.6142 -0.8768
 7005TIP3   OH242429   3.438   4.842   0.173 -0.1620 -0.3188  0.4609
 7005TIP3    H142430   3.463   4.817   0.084 -1.1283 -1.6159  0.5486
 7005TIP3    H242431   3.493   4.787   0.229 -0.5134 -0.4636  0.6623
 7006TIP3   OH242432   6.668   1.368   5.159  0.0024  0.3073  1.2332
 7006TIP3    H142433   6.659   1.274   5.144 -1.0452  0.6781 -0.7148
 7006TIP3    H242434   6.609   1.408   5.095  2.8699  2.3718 -0.2743
 7007TIP3   OH242435   2.907   5.934   6.927  0.1466 -0.8197  0.2538
 7007TIP3    H142436   2.877   5.870   6.862  1.3175 -2.4109  1.2338
 7007TIP3    H242437   2.885   6.019   6.890 -2.1981 -1.8113 -0.7237
 7008TIP3   OH242438   5.849   4.028   3.606 -0.2608 -0.3283  0.0650
 7008TIP3    H142439   5.872   4.086   3.679  0.4034 -0.5774  0.0636
 7008TIP3    H242440   5.813   4.087   3.539 -0.1744  0.0029  0.3062
 7009TIP3   OH242441   3.556   6.594   0.596 -0.4918 -0.2461 -0.3396
 7009TIP3    H142442   3.539   6.530   0.526  0.5736 -1.2347  0.2905
 7009TIP3    H242443   3.650   6.585   0.614  0.1824  3.0707 -1.7666
 7010TIP3   OH242444   0.504   1.447  13.894  0.5850  0.5252 -0.0428
 7010TIP3    H142445   0.432   1.510  13.900  0.6391  0.5813  0.0011
 7010TIP3    H242446   0.462   1.367  13.862  0.7049  0.8974 -1.1459
 7011TIP3   OH242447   3.762   3.652   5.749  0.7236  0.2986  0.0044
 7011TIP3    H142448   3.701   3.582   5.772 -0.8666  1.9700  0.9688
 7011TIP3    H242449   3.848   3.615   5.767  0.0545 -2.2855 -1.8977
 7012TIP3   OH242450   3.682   0.041  13.678 -0.5140 -0.0802  0.5251
 7012TIP3    H142451   3.723   0.026  13.593  1.9997 -0.0006  1.6863
 7012TIP3    H242452   3.594   0.004  13.668 -0.0966 -0.5343 -1.9371
 7013TIP3   OH242453   3.595   2.787   4.362 -0.1298  0.2429 -0.0677
 7013TIP3    H142454   3.520   2.728   4.358  1.3890 -1.7696  0.0094
 7013TIP3    H242455   3.646   2.766   4.284 -0.6782  3.0826 -1.2690
 7014TIP3   OH242456   5.097   2.272  14.671 -0.7756 -0.2667 -1.0015
 7014TIP3    H142457   5.193   2.282  14.675 -0.8290 -0.3037  2.0658
 7014TIP3    H242458   5.080   2.235  14.585  2.0277 -0.6298 -1.4539
 7015TIP3   OH242459   2.278   6.086  12.370 -0.2624 -0.4761 -0.0465
 7015TIP3    H142460   2.343   6.021  12.342  0.2667  0.2997 -0.6339
 7015TIP3    H242461   2.224   6.039  12.433  0.5081 -1.3105  0.0133
 7016TIP3   OH242462   0.297   3.094   4.082  0.0060 -0.3084  0.2039
 7016TIP3    H142463   0.240   3.115   4.008  0.2768 -2.6508 -0.7257
 7016TIP3    H242464   0.242   3.106   4.159 -0.9097  0.1656 -0.5134
 7017TIP3   OH242465   3.725   0.821   0.173 -0.2849 -0.7207  0.1850
 7017TIP3    H142466   3.814   0.802   0.203 -0.0735  0.1496  0.1319
 7017TIP3    H242467   3.734   0.829   0.078 -0.4810 -0.9638  0.1471
 7018TIP3   OH242468   0.118   3.234   5.883 -0.4741 -0.3726  0.3742
 7018TIP3    H142469   0.053   3.280   5.935 -0.7960  1.3871 -1.5147
 7018TIP3    H242470   0.068   3.187   5.817  0.1388  1.0208 -1.1123
 7019TIP3   OH242471   6.105   3.337   3.443 -0.4812 -0.5475 -0.6753
 7019TIP3    H142472   6.039   3.329   3.513 -0.2133  0.4722 -0.3012
 7019TIP3    H242473   6.069   3.286   3.371 -0.8336 -1.5101  0.1521
 7020TIP3   OH242474   0.169   2.580   1.812 -0.1198 -0.1223  0.3293
 7020TIP3    H142475   0.162   2.552   1.721 -0.1107 -0.8633  0.5583
 7020TIP3    H242476   0.080   2.573   1.847  0.3902 -2.5955  1.1859
 7021TIP3   OH242477   6.359   3.546   3.110  0.3433 -0.0307  0.3086
 7021TIP3    H142478   6.410   3.598   3.048 -1.9371  0.2868 -1.4022
 7021TIP3    H242479   6.303   3.610   3.154  1.1706 -0.4065  1.9263
 7022TIP3   OH242480   3.555   3.256  11.902  0.1073 -0.7068  0.4943
 7022TIP3    H142481   3.558   3.345  11.937  1.3881 -0.9451  1.0232
 7022TIP3    H242482   3.507   3.264  11.819 -0.6401  0.3025  1.0230
 7023TIP3   OH242483   3.875   5.423  14.176  0.0263 -0.1734  0.4313
 7023TIP3    H142484   3.862   5.487  14.246  0.3272 -2.2431  2.4061
 7023TIP3    H242485   3.786   5.405  14.144 -0.5633 -2.2405  3.0594
 7024TIP3   OH242486   5.166   0.812  12.168  0.4531  0.0802  0.2291
 7024TIP3    H142487   5.241   0.814  12.227 -0.2204 -0.0498  1.0895
 7024TIP3    H242488   5.194   0.755  12.096  0.8381 -0.7101  0.9985
 7025TIP3   OH242489   4.659   4.511   5.847 -0.8717 -0.0613  0.8239
 7025TIP3    H142490   4.699   4.478   5.928 -1.2759  0.7282  1.3480
 7025TIP3    H242491   4.716   4.478   5.778 -0.0480 -0.0473  1.4825
 7026TIP3   OH242492   0.341   3.291   3.661 -0.0176 -0.7143 -0.5672
 7026TIP3    H142493   0.415   3.311   3.604 -0.7152 -2.4099 -2.1455
 7026TIP3    H242494   0.285   3.368   3.656  0.3997 -0.4583 -1.4321
 7027TIP3   OH242495   3.887   0.803  15.837  0.1140  0.1616  0.3590
 7027TIP3    H142496   3.843   0.747  15.901  0.5875 -2.0035 -1.1499
 7027TIP3    H242497   3.979   0.798  15.861  0.6379 -2.7100 -1.8988
 7028TIP3   OH242498   4.533   3.027   0.758  0.4265 -0.6767 -0.0073
 7028TIP3    H142499   4.622   3.003   0.732 -0.1157 -2.9552  0.2007
 7028TIP3    H242500   4.478   2.995   0.687 -0.5760 -2.4884  1.5462
 7029TIP3   OH242501   3.533   2.253   5.034 -0.3560 -0.0709  0.1592
 7029TIP3    H142502   3.574   2.257   4.947 -0.2341 -0.5926  0.1941
 7029TIP3    H242503   3.606   2.250   5.095 -0.4449  0.0713  0.2735
 7030TIP3   OH242504   5.253   2.491   1.237 -0.0375 -0.2343 -0.1106
 7030TIP3    H142505   5.323   2.463   1.177 -0.6164 -1.0415 -0.4152
 7030TIP3    H242506   5.291   2.483   1.324 -0.1448 -1.8286 -0.2057
 7031TIP3   OH242507   6.059   6.417  16.479  0.0975 -0.0916 -0.4130
 7031TIP3    H142508   6.124   6.431  16.548 -0.4304 -0.3986  0.1505
 7031TIP3    H242509   5.982   6.466  16.508  0.1496  0.4535 -1.1841
 7032TIP3   OH242510   3.684   5.206  13.650 -0.0520  0.6071 -0.1334
 7032TIP3    H142511   3.638   5.253  13.720 -0.4255 -0.1933  0.1771
 7032TIP3    H242512   3.770   5.246  13.646 -0.1127  0.8152  0.6294
 7033TIP3   OH242513   1.376   1.124   2.135  0.1612  0.7795  0.0809
 7033TIP3    H142514   1.414   1.121   2.048  0.1431 -1.9878  0.1242
 7033TIP3    H242515   1.285   1.150   2.121  0.0240 -0.1564 -0.7712
 7034TIP3   OH242516   3.580   1.445  11.323  0.0988  0.3241  0.2406
 7034TIP3    H142517   3.545   1.418  11.238  1.5293  0.6040 -0.4460
 7034TIP3    H242518   3.551   1.377  11.383 -0.5377 -0.1167 -0.5506
 7035TIP3   OH242519   3.646   1.939  11.163 -0.4628 -0.1109 -0.3157
 7035TIP3    H142520   3.618   1.859  11.117  0.5783  0.0435 -1.2398
 7035TIP3    H242521   3.611   2.010  11.109  1.0819  0.0757 -1.0920
 7036TIP3   OH242522   6.317   4.540   0.259  0.3557 -0.2904 -0.2879
 7036TIP3    H142523   6.238   4.528   0.206 -0.2637  2.8535 -0.2013
 7036TIP3    H242524   6.293   4.510   0.347 -0.7192  0.5635 -0.2897
 7037TIP3   OH242525   3.608   0.186   3.986  0.3453 -0.1584 -0.2022
 7037TIP3    H142526   3.673   0.130   3.943  1.4029  0.8431  0.0490
 7037TIP3    H242527   3.584   0.138   4.065  0.2042 -0.8936 -0.6837
 7038TIP3   OH242528   3.133   1.531   3.885  0.5617  0.3035 -0.0834
 7038TIP3    H142529   3.159   1.527   3.793 -1.5943 -0.2649 -0.6900
 7038TIP3    H242530   3.042   1.559   3.883 -0.0659 -1.5065  1.7689
 7039TIP3   OH242531   3.925   5.863   1.538  0.3621  0.4382  0.5449
 7039TIP3    H142532   3.950   5.933   1.598 -0.3451  1.3500 -0.2194
 7039TIP3    H242533   3.838   5.888   1.507  1.2156  0.5916 -1.8136
 7040TIP3   OH242534   5.304   3.899  13.285  0.4179  0.1014 -0.4436
 7040TIP3    H142535   5.274   3.932  13.369  1.0550 -0.6256  0.0858
 7040TIP3    H242536   5.331   3.977  13.236 -0.3963  0.5657 -0.1549
 7041TIP3   OH242537   1.739   4.428  11.900 -0.6235  0.5280 -0.0574
 7041TIP3    H142538   1.701   4.401  11.816  0.1525 -1.7030  0.2853
 7041TIP3    H242539   1.820   4.472  11.876 -0.0609 -0.7135 -0.4475
 7042TIP3   OH242540   6.211   4.933  14.285  0.1852 -0.9658 -0.2431
 7042TIP3    H142541   6.127   4.957  14.246  0.7089 -0.1546 -0.8881
 7042TIP3    H242542   6.189   4.862  14.346 -1.0009 -0.5903 -0.2092
 7043TIP3   OH242543   0.985   5.034   5.108  0.6246  0.3433 -0.1039
 7043TIP3    H142544   1.039   4.971   5.156  1.8227 -0.3982 -2.3637
 7043TIP3    H242545   0.912   5.053   5.167  2.3697 -0.0508  2.2671
 7044TIP3   OH242546   5.928   1.239   4.708 -0.6471 -0.2059 -0.5958
 7044TIP3    H142547   5.850   1.294   4.720  0.0269  1.3797 -3.0972
 7044TIP3    H242548   5.896   1.163   4.659 -0.5490  0.7139 -2.1212
 7045TIP3   OH242549   4.801   4.413  16.191  0.1449  0.2855 -0.4338
 7045TIP3    H142550   4.822   4.353  16.262 -1.1551 -0.2771 -0.5233
 7045TIP3    H242551   4.791   4.498  16.234  2.8715  0.6698 -0.4194
 7046TIP3   OH242552   1.986   2.060  13.665  0.2190  0.2375 -0.3831
 7046TIP3    H142553   2.048   2.073  13.737  1.5931  1.1219 -1.6743
 7046TIP3    H242554   1.949   1.974  13.681 -0.4752  0.9429  2.0860
 7047TIP3   OH242555   5.419   1.572  14.989 -0.2307  0.2855 -0.0806
 7047TIP3    H142556   5.328   1.589  15.013  0.3793  1.1676  1.6684
 7047TIP3    H242557   5.439   1.639  14.923 -1.1835 -0.6553 -1.3671
 7048TIP3   OH242558   5.119   4.191  13.332 -0.3048  0.3518  0.0103
 7048TIP3    H142559   5.177   4.224  13.263  0.9602 -0.1447  0.8063
 7048TIP3    H242560   5.088   4.107  13.298 -0.2078  0.4122 -0.2349
 7049TIP3   OH242561   2.367   0.628  16.043  0.1577 -0.2407  0.0290
 7049TIP3    H142562   2.360   0.692  15.973  3.3645 -1.4373 -1.5086
 7049TIP3    H242563   2.449   0.650  16.088 -1.2692 -0.2050  2.6636
 7050TIP3   OH242564   2.614   6.553   3.111  0.1014  0.1672 -0.0720
 7050TIP3    H142565   2.546   6.491   3.138 -0.0762  0.8102  0.9926
 7050TIP3    H242566   2.681   6.545   3.179 -0.3078  1.7631  0.5268
 7051TIP3   OH242567   4.911   1.964  13.183  0.0549 -0.6076 -0.0670
 7051TIP3    H142568   4.891   1.875  13.153 -1.0996 -0.8045  1.2579
 7051TIP3    H242569   4.830   2.012  13.172  0.9524  0.5719 -1.7245
 7052TIP3   OH242570   4.183   2.707   0.536 -0.0129  0.5511 -0.0585
 7052TIP3    H142571   4.201   2.613   0.529  0.1181  0.4915  0.9462
 7052TIP3    H242572   4.152   2.732   0.449  2.9668  0.2471 -1.2512
 7053TIP3   OH242573   3.504   0.446  10.834  0.3152 -0.4468  0.4237
 7053TIP3    H142574   3.446   0.416  10.904  0.5355 -2.2794 -0.1465
 7053TIP3    H242575   3.500   0.541  10.839 -1.7828 -0.5380  1.1837
 7054TIP3   OH242576   1.264   5.051  14.259 -0.2343  0.0526 -0.5717
 7054TIP3    H142577   1.249   5.031  14.352 -1.1985 -0.1022 -0.7508
 7054TIP3    H242578   1.320   4.980  14.228 -0.2119 -0.0957 -0.1940
 7055TIP3   OH242579   2.448   6.498  16.492 -1.1554  0.8449 -0.1303
 7055TIP3    H142580   2.530   6.538  16.522 -0.0920  0.2350 -2.0638
 7055TIP3    H242581   2.381   6.562  16.512 -0.0968  1.6467  0.9025
 7056TIP3   OH242582   0.788   5.319  14.911 -0.2881  0.1648  0.1038
 7056TIP3    H142583   0.817   5.314  15.002  0.5232 -1.0906 -0.2226
 7056TIP3    H242584   0.692   5.320  14.917 -0.2788  3.4566  1.1327
 7057TIP3   OH242585   1.224   3.410   1.402  0.6449  0.2955  0.2323
 7057TIP3    H142586   1.169   3.465   1.346  0.8781  0.0484 -0.2390
 7057TIP3    H242587   1.280   3.472   1.448  0.1280  0.5347  0.5505
 7058TIP3   OH242588   3.757   3.248   0.205 -0.7232  0.1582 -0.4027
 7058TIP3    H142589   3.755   3.271   0.298 -4.0326  0.2339 -0.4361
 7058TIP3    H242590   3.794   3.161   0.203 -0.6607  0.1338  1.0193
 7059TIP3   OH242591   4.400   1.403  12.974  0.0870  0.1725 -0.7964
 7059TIP3    H142592   4.325   1.343  12.979 -0.3454  0.5773 -2.2062
 7059TIP3    H242593   4.400   1.448  13.059 -1.2577  0.1457 -0.7643
 7060TIP3   OH242594   0.444   6.484   2.295 -0.2742 -0.3316  0.5242
 7060TIP3    H142595   0.526   6.494   2.248 -1.2541 -1.9519 -1.5650
 7060TIP3    H242596   0.399   6.568   2.284  0.0224 -0.2995 -0.4530
 7061TIP3   OH242597   0.328   3.900   2.823 -0.0565 -0.1943 -0.9016
 7061TIP3    H142598   0.391   3.964   2.855  0.0911  0.9406 -3.3186
 7061TIP3    H242599   0.243   3.932   2.854  0.2382 -0.0823 -0.1928
 7062TIP3   OH242600   1.084   3.949   3.008 -0.0228  0.5597  0.0993
 7062TIP3    H142601   1.125   3.893   3.074  0.3008 -0.2903 -0.8076
 7062TIP3    H242602   1.086   3.897   2.928  0.5277  1.9825 -0.8247
 7063TIP3   OH242603   4.613   1.739   3.150 -0.2098  0.1537 -0.4058
 7063TIP3    H142604   4.705   1.735   3.126  0.1569 -0.5887  1.0357
 7063TIP3    H242605   4.576   1.808   3.095  1.4054  1.0756 -0.3697
 7064TIP3   OH242606   4.128   2.758  14.069 -0.8394  0.4032  0.3488
 7064TIP3    H142607   4.174   2.842  14.078 -1.3037  0.8095 -0.9247
 7064TIP3    H242608   4.166   2.703  14.137  1.8659  0.5858 -0.9210
 7065TIP3   OH242609   0.084   4.050   2.944  0.1376 -0.0896  0.2216
 7065TIP3    H142610   0.155   4.114   2.944  2.0477 -2.0665 -2.4000
 7065TIP3    H242611   0.004   4.102   2.937  1.6113  2.0333 -1.1734
 7066TIP3   OH242612   3.918   0.693   1.990  0.0184 -0.1809  0.6542
 7066TIP3    H142613   3.925   0.692   1.894 -2.4688 -0.2574  0.4375
 7066TIP3    H242614   3.928   0.602   2.016 -0.1997 -0.2836  0.3828
 7067TIP3   OH242615   0.039   3.909   3.179  0.1201 -0.2248  0.3513
 7067TIP3    H142616   0.027   3.887   3.086 -0.3687  1.2089  0.0648
 7067TIP3    H242617   0.107   3.977   3.178  1.5850 -1.6364  1.2146
 7068TIP3   OH242618   4.802   5.262  11.423  0.0782  0.4292  0.2230
 7068TIP3    H142619   4.778   5.275  11.332  0.6248 -0.3494 -0.0407
 7068TIP3    H242620   4.890   5.225  11.420 -0.2126 -0.3717  1.0247
 7069TIP3   OH242621   4.020   5.140   6.267  0.3442  0.0588 -0.2543
 7069TIP3    H142622   3.984   5.203   6.330  1.3418 -0.4159  0.7982
 7069TIP3    H242623   4.021   5.057   6.314 -0.3429 -0.6246 -1.4243
 7070TIP3   OH242624   0.716   3.890   2.317  0.4916  0.1190  0.0720
 7070TIP3    H142625   0.790   3.830   2.308  0.4673  0.0829  0.1144
 7070TIP3    H242626   0.654   3.862   2.249 -0.5338 -1.3698  1.5907
 7071TIP3   OH242627   1.731   6.642  15.831  0.8942  0.5272 -0.6547
 7071TIP3    H142628   1.648   6.649  15.785  1.4758 -1.9686 -2.2147
 7071TIP3    H242629   1.715   6.679  15.917 -1.8285  0.1257 -0.9575
 7072TIP3   OH242630   4.452   1.062  11.216  0.3671  0.1469  0.2837
 7072TIP3    H142631   4.361   1.037  11.199  0.5764 -0.7075  0.4347
 7072TIP3    H242632   4.468   1.036  11.307  0.2296  1.8623  0.8152
 7073TIP3   OH242633   6.430   1.208   1.746 -0.2198  0.7898 -0.4734
 7073TIP3    H142634   6.509   1.155   1.749 -0.4894  0.3647 -0.8189
 7073TIP3    H242635   6.461   1.298   1.753  0.2989  0.6263 -0.6494
 7074TIP3   OH242636   5.289   3.616  16.192  0.0327 -0.3220  0.4030
 7074TIP3    H142637   5.327   3.540  16.149  0.8949  0.2111  0.2016
 7074TIP3    H242638   5.201   3.624  16.155  0.8123  0.2152 -1.3809
 7075TIP3   OH242639   6.149   5.556  15.567  0.3754 -0.3185 -0.2752
 7075TIP3    H142640   6.150   5.546  15.472 -2.0361 -2.2522 -0.1417
 7075TIP3    H242641   6.070   5.509  15.596 -0.5776  2.7172  2.4085
 7076TIP3   OH242642   4.177   3.226  16.222 -0.6570  0.4837  0.0954
 7076TIP3    H142643   4.174   3.319  16.246 -2.9555  0.6835 -0.7859
 7076TIP3    H242644   4.171   3.226  16.126  0.4566 -0.5442  0.0228
 7077TIP3   OH242645   6.173   1.891  16.653 -0.6149  0.7283  0.5293
 7077TIP3    H142646   6.268   1.885  16.639 -0.6988  1.3090 -0.2918
 7077TIP3    H242647   6.163   1.967  16.711 -0.7072  1.6867 -0.7311
 7078TIP3   OH242648   5.225   4.608  16.121  0.0586 -0.0259  0.0300
 7078TIP3    H142649   5.146   4.629  16.071 -0.2179 -1.3528 -0.1076
 7078TIP3    H242650   5.271   4.543  16.068  0.6250 -0.1746  0.6940
 7079TIP3   OH242651   1.549   3.060   5.413  0.4204  0.5758  0.2458
 7079TIP3    H142652   1.467   3.096   5.447 -0.9660  0.2532 -2.5122
 7079TIP3    H242653   1.581   3.002   5.482 -1.3825  1.1738  1.6077
 7080TIP3   OH242654   0.731   2.451  15.851 -0.2739 -0.6467 -0.3239
 7080TIP3    H142655   0.809   2.505  15.835 -1.6816  0.9848 -1.8575
 7080TIP3    H242656   0.716   2.458  15.945  0.0317  1.0151 -0.3815
 7081TIP3   OH242657   5.916   5.217   0.089 -0.0226 -0.1593  0.4653
 7081TIP3    H142658   5.901   5.149   0.155  2.3514 -1.4926 -0.2882
 7081TIP3    H242659   5.905   5.172   0.005 -3.2539  1.5790 -0.1245
 7082TIP3   OH242660   1.300   5.490   1.744 -0.2490 -0.0134  0.2353
 7082TIP3    H142661   1.284   5.396   1.753  0.8798 -0.2404  0.0165
 7082TIP3    H242662   1.384   5.504   1.787 -0.4561  0.9116  0.3388
 7083TIP3   OH242663   6.439   3.519  17.059  0.0667 -0.2601  0.1406
 7083TIP3    H142664   6.492   3.598  17.071 -0.3548  0.0421  0.0526
 7083TIP3    H242665   6.370   3.546  16.998 -0.2906 -0.5911  0.3934
 7084TIP3   OH242666   5.929   2.237  15.437  0.1875 -0.1365  0.3795
 7084TIP3    H142667   6.000   2.215  15.376 -0.0042 -0.9502  0.4468
 7084TIP3    H242668   5.936   2.332  15.448  0.9356 -0.1383 -0.0253
 7085TIP3   OH242669   5.088   1.326   4.860  0.1578  0.1090 -0.5937
 7085TIP3    H142670   5.146   1.396   4.892  1.6743 -0.8364 -1.2333
 7085TIP3    H242671   5.007   1.371   4.838 -0.2949  1.1104  2.7508
 7086TIP3   OH242672   3.217   5.299   2.498  0.8205  0.3064 -0.4838
 7086TIP3    H142673   3.285   5.232   2.500  0.7841  0.2562 -0.8138
 7086TIP3    H242674   3.136   5.251   2.518  1.0266  0.5622  1.0011
 7087TIP3   OH242675   0.808   1.750   2.098 -0.0092  0.2163 -0.2574
 7087TIP3    H142676   0.815   1.795   2.013 -1.7393  0.5399 -0.2419
 7087TIP3    H242677   0.898   1.723   2.117  0.5032  0.6297 -1.9242
 7088TIP3   OH242678   3.779   2.548  13.435  0.0954 -0.9254 -0.0685
 7088TIP3    H142679   3.777   2.619  13.499  0.1035 -0.8527 -0.1488
 7088TIP3    H242680   3.800   2.470  13.486  2.4991 -0.4912 -0.3148
 7089TIP3   OH242681   2.434   1.487   0.059  0.3618  0.0831 -0.2413
 7089TIP3    H142682   2.369   1.546   0.021  0.5775  1.4234  1.4099
 7089TIP3    H242683   2.517   1.534   0.049  0.5859 -0.0933  0.7641
 7090TIP3   OH242684   5.510   1.264  11.229 -0.1600  0.3957 -0.0151
 7090TIP3    H142685   5.492   1.332  11.163  3.1669  1.0125 -0.3827
 7090TIP3    H242686   5.481   1.303  11.311 -3.8385 -0.1559 -0.9706
 7091TIP3   OH242687   6.453   2.807   5.397 -0.2288 -0.3513  0.3924
 7091TIP3    H142688   6.502   2.732   5.362  0.3125 -0.4876  1.4394
 7091TIP3    H242689   6.443   2.865   5.322 -1.0771 -1.6834 -0.5559
 7092TIP3   OH242690   3.677   3.060   5.543 -0.6661 -0.1455  1.2046
 7092TIP3    H142691   3.667   3.155   5.535 -0.2336 -0.2406 -0.9216
 7092TIP3    H242692   3.709   3.046   5.632 -0.6675  1.6998  1.5093
 7093TIP3   OH242693   6.405   2.299   3.277  0.5160 -0.3855 -0.2399
 7093TIP3    H142694   6.413   2.317   3.371  3.6151 -1.1181 -0.3099
 7093TIP3    H242695   6.402   2.204   3.271  0.1688 -0.3361 -0.8829
 7094TIP3   OH242696   5.697   2.327  16.735  0.0919 -0.2799 -0.3107
 7094TIP3    H142697   5.615   2.279  16.730  0.4651 -1.1438  1.4919
 7094TIP3    H242698   5.747   2.296  16.659 -0.7194 -0.7483 -0.6594
 7095TIP3   OH242699   6.024   2.050   5.035  0.3639 -0.2154  0.0456
 7095TIP3    H142700   6.032   2.113   5.106  0.2124  0.8244 -0.8320
 7095TIP3    H242701   5.990   2.102   4.961  2.0107 -0.9145 -1.2488
 7096TIP3   OH242702   5.174   5.585   4.765  0.2817  0.1401  0.4603
 7096TIP3    H142703   5.105   5.646   4.791  0.5084  1.5659 -2.0619
 7096TIP3    H242704   5.252   5.640   4.759  0.5590 -0.4487 -1.5119
 7097TIP3   OH242705   6.748   5.755   1.866 -0.1827  0.0327 -0.3642
 7097TIP3    H142706   6.818   5.795   1.814 -0.7277  1.6668  0.1241
 7097TIP3    H242707   6.771   5.778   1.957 -1.2846  0.4954 -0.1920
 7098TIP3   OH242708   1.601   4.137  16.656  0.3733 -0.3701  0.4221
 7098TIP3    H142709   1.669   4.176  16.711 -1.2235  0.5861  1.7817
 7098TIP3    H242710   1.545   4.210  16.632 -1.4336 -1.4659  1.1889
 7099TIP3   OH242711   3.599   6.259   0.717  0.5956  0.2263 -0.3912
 7099TIP3    H142712   3.651   6.337   0.737 -0.2513  0.6175  0.3124
 7099TIP3    H242713   3.509   6.291   0.711  0.5421 -0.2677 -2.6420
 7100TIP3   OH242714   4.195   4.610   5.051 -0.1568  0.5674 -0.1539
 7100TIP3    H142715   4.132   4.557   5.002  0.4374 -0.0434 -0.2602
 7100TIP3    H242716   4.280   4.581   5.019  0.2129  0.6130  0.7961
 7101TIP3   OH242717   5.000   1.828  16.112 -0.3371  0.6168  0.4628
 7101TIP3    H142718   4.969   1.798  16.026 -1.8003 -0.6423  1.4047
 7101TIP3    H242719   4.971   1.918  16.117 -1.6118  0.2275  0.2632
 7102TIP3   OH242720   2.515   0.270  14.482 -0.2853  0.4321 -0.2847
 7102TIP3    H142721   2.514   0.231  14.395  1.0300 -0.0444 -0.0885
 7102TIP3    H242722   2.422   0.274  14.507 -0.6423  0.2241 -1.5377
 7103TIP3   OH242723   2.908   1.685  14.299  0.5438  1.1303  0.1315
 7103TIP3    H142724   2.932   1.607  14.349  0.2659  0.2931 -1.0156
 7103TIP3    H242725   2.828   1.716  14.340 -0.3493 -0.2533 -0.5275
 7104TIP3   OH242726   5.145   3.916  17.155  0.5127  0.3193 -0.0280
 7104TIP3    H142727   5.178   3.862  17.083  0.8889 -1.2414  1.2766
 7104TIP3    H242728   5.216   3.977  17.173  1.3782 -0.8619  0.5982
 7105TIP3   OH242729   1.134   2.946   2.561 -1.2896  0.6512  0.2892
 7105TIP3    H142730   1.194   2.886   2.517 -1.8000 -0.0554  0.5542
 7105TIP3    H242731   1.078   2.980   2.491 -2.3866 -0.8024  0.4379
 7106TIP3   OH242732   5.608   6.091   3.803 -0.9533 -0.5473  0.2679
 7106TIP3    H142733   5.592   6.123   3.892 -1.6575 -2.1488  0.7294
 7106TIP3    H242734   5.534   6.123   3.752  1.5005  3.9624 -0.7493
 7107TIP3   OH242735   0.786   0.062  12.375 -0.5812 -0.2048 -0.3553
 7107TIP3    H142736   0.762   0.066  12.468 -1.4422 -1.3985 -0.5154
 7107TIP3    H242737   0.863   0.004  12.373  1.1641  2.0096 -0.0858
 7108TIP3   OH242738   1.245   4.916   5.091  0.7046  0.1501  0.1300
 7108TIP3    H142739   1.213   4.849   5.151 -1.5300 -0.4236 -1.6193
 7108TIP3    H242740   1.238   4.998   5.142 -3.7470  0.0734 -0.0973
 7109TIP3   OH242741   4.248   3.455   5.175 -0.4737  0.0683  0.3222
 7109TIP3    H142742   4.341   3.447   5.157 -0.5342  1.4808 -0.6593
 7109TIP3    H242743   4.211   3.372   5.145  0.5616 -0.8428  1.4896
 7110TIP3   OH242744   0.701   4.073  12.839 -0.3945  0.1136  0.3262
 7110TIP3    H142745   0.787   4.035  12.857 -0.1700  0.2875 -0.3648
 7110TIP3    H242746   0.641   3.998  12.843 -0.2489  0.0321  1.0510
 7111TIP3   OH242747   1.003   5.461   3.371 -0.1573  0.2228 -0.5563
 7111TIP3    H142748   0.921   5.497   3.338 -0.8192 -1.0015 -0.2527
 7111TIP3    H242749   1.005   5.371   3.340  0.4783 -0.1378  0.4868
 7112TIP3   OH242750   3.699   3.127   5.228  0.0680  0.0078  0.1189
 7112TIP3    H142751   3.729   3.214   5.256 -0.7107  0.1068  0.6757
 7112TIP3    H242752   3.682   3.080   5.309  1.0507 -0.8699 -0.1832
 7113TIP3   OH242753   5.859   3.994  12.638 -0.1466  0.0369  0.3281
 7113TIP3    H142754   5.900   3.983  12.724  1.3165 -1.2399 -0.5181
 7113TIP3    H242755   5.927   3.969  12.575 -1.2215  0.8885 -1.2067
 7114TIP3   OH242756   6.775   1.507  15.989 -0.8353 -0.5960 -0.1191
 7114TIP3    H142757   6.867   1.524  16.010 -1.6149  0.0626  2.9409
 7114TIP3    H242758   6.761   1.550  15.904  1.4436  0.0124 -0.2144
 7115TIP3   OH242759   2.656   1.781  14.357  0.6397  0.2238  0.6781
 7115TIP3    H142760   2.632   1.748  14.444 -2.4109 -0.8744 -0.5188
 7115TIP3    H242761   2.618   1.868  14.353  0.5616  0.1739  0.3363
 7116TIP3   OH242762   5.751   3.348  14.934  0.4784  0.1540  0.3562
 7116TIP3    H142763   5.670   3.384  14.968  1.5800  2.2738  0.8437
 7116TIP3    H242764   5.756   3.379  14.844  2.4250  3.0774  1.3933
 7117TIP3   OH242765   1.189   6.473  16.720  0.1432  0.2002 -0.2070
 7117TIP3    H142766   1.205   6.552  16.771  0.6619 -0.5446  0.7967
 7117TIP3    H242767   1.096   6.476  16.700  0.3372  1.5290 -0.9689
 7118TIP3   OH242768   5.039   4.350  16.988  0.0067  0.1280  0.1566
 7118TIP3    H142769   5.051   4.432  17.035 -1.6241 -0.1125  1.0063
 7118TIP3    H242770   4.988   4.373  16.911  1.0165  0.1871 -0.5087
 7119TIP3   OH242771   5.889   6.446   5.499 -0.7733  0.7082 -0.0528
 7119TIP3    H142772   5.891   6.367   5.446  0.3202  1.3900 -1.0743
 7119TIP3    H242773   5.809   6.492   5.471 -1.0959  0.2555  0.1223
 7120TIP3   OH242774   3.072   6.252  16.401 -0.6702 -0.1700 -0.0879
 7120TIP3    H142775   3.081   6.181  16.466 -1.8316 -0.8228 -0.6223
 7120TIP3    H242776   3.039   6.208  16.323 -1.1694  0.9357 -0.5060
 7121TIP3   OH242777   3.050   4.159   4.639  0.2463  0.6191  0.1241
 7121TIP3    H142778   3.034   4.248   4.608  0.3567 -0.2533 -2.5287
 7121TIP3    H242779   3.145   4.150   4.638  0.2042  0.2292 -0.3089
 7122TIP3   OH242780   4.315   5.535  13.833 -0.1495 -0.1094 -0.1533
 7122TIP3    H142781   4.292   5.616  13.880  0.3079  0.3940 -0.7930
 7122TIP3    H242782   4.279   5.548  13.745  0.0424 -0.5554 -0.2973
 7123TIP3   OH242783   3.624   5.062  12.325 -0.1988 -0.7292 -0.0442
 7123TIP3    H142784   3.674   5.135  12.361 -1.8624  0.2402  0.3397
 7123TIP3    H242785   3.672   5.037  12.246 -0.6909  2.0528 -1.2434
 7124TIP3   OH242786   3.656   2.083  10.903 -0.0096 -0.3041  0.5344
 7124TIP3    H142787   3.567   2.063  10.874  1.1089 -1.0622 -2.5486
 7124TIP3    H242788   3.659   2.178  10.905  0.0335 -0.1877 -2.5789
 7125TIP3   OH242789   4.787   5.669  14.803  0.0343  0.0413 -0.2756
 7125TIP3    H142790   4.790   5.681  14.708 -2.0919 -1.0876 -0.5141
 7125TIP3    H242791   4.724   5.735  14.834  0.2302 -0.0219  0.2683
 7126TIP3   OH242792   6.084   5.484  17.061 -0.2758 -0.0480  0.4525
 7126TIP3    H142793   6.018   5.429  17.019  0.2049  0.9548 -1.6502
 7126TIP3    H242794   6.049   5.573  17.054  0.9014  0.3894  0.1036
 7127TIP3   OH242795   1.626   5.761   3.002 -0.1198 -0.8569  0.1070
 7127TIP3    H142796   1.555   5.743   2.940  1.1332 -0.0959 -1.5999
 7127TIP3    H242797   1.653   5.675   3.034 -2.7832 -1.0689  1.9265
 7128TIP3   OH242798   3.837   1.525  17.057 -0.2254 -0.0401 -0.4301
 7128TIP3    H142799   3.795   1.444  17.087 -0.5295  0.5758  0.8621
 7128TIP3    H242800   3.774   1.594  17.078  1.0250  0.7991  0.6814
 7129TIP3   OH242801   4.076   5.748   6.321 -0.1916  0.1629  0.1025
 7129TIP3    H142802   4.158   5.701   6.315 -0.6328 -0.7486  1.1258
 7129TIP3    H242803   4.072   5.799   6.240  1.5134  0.4619  0.1868
 7130TIP3   OH242804   0.374   6.620   1.953 -0.1426  0.0755  0.0422
 7130TIP3    H142805   0.396   6.635   2.045 -1.5140 -0.2096  0.4323
 7130TIP3    H242806   0.414   6.693   1.906  2.6465 -1.0710  0.5425
 7131TIP3   OH242807   1.257   2.039   4.776 -0.2170  0.1492  0.3421
 7131TIP3    H142808   1.267   2.101   4.848  1.0300  0.4774 -0.1150
 7131TIP3    H242809   1.269   1.953   4.817 -1.9173  0.1784  0.9656
 7132TIP3   OH242810   4.462   3.604  15.157  0.0853 -0.1751  0.4478
 7132TIP3    H142811   4.542   3.631  15.203 -1.3071  0.0078  2.8794
 7132TIP3    H242812   4.402   3.677  15.169 -0.5598 -0.4248 -1.1381
 7133TIP3   OH242813   4.201   6.378   2.847 -0.1303  0.5935 -0.5201
 7133TIP3    H142814   4.150   6.459   2.857  0.5309  0.7832  1.4771
 7133TIP3    H242815   4.135   6.311   2.832 -1.0017  0.8903  1.7238
 7134TIP3   OH242816   1.199   6.327   2.656  0.0851 -0.5407 -0.6004
 7134TIP3    H142817   1.270   6.339   2.719  0.1003 -0.6778 -0.5908
 7134TIP3    H242818   1.123   6.368   2.697  0.2053 -0.2179 -0.6973
 7135TIP3   OH242819   4.232   3.101   3.276  0.1353  0.2376  0.4701
 7135TIP3    H142820   4.137   3.101   3.277  0.1345  0.3052  0.4433
 7135TIP3    H242821   4.255   3.157   3.202  0.2004 -1.4352 -0.8065
 7136TIP3   OH242822   5.073   5.601   1.061 -0.0129  0.0882 -0.2085
 7136TIP3    H142823   5.084   5.506   1.064 -0.2646  0.0989  1.3451
 7136TIP3    H242824   5.162   5.636   1.060  0.0962 -0.1421  0.6338
 7137TIP3   OH242825   0.732   5.420   2.996  0.3008 -0.0938 -0.3061
 7137TIP3    H142826   0.824   5.425   3.021  0.8158  2.0831 -2.4270
 7137TIP3    H242827   0.733   5.377   2.910 -0.7316 -0.6749 -0.0374
 7138TIP3   OH242828   4.240   5.154  16.207  0.2479 -0.1345 -0.1121
 7138TIP3    H142829   4.280   5.124  16.288  0.5017 -3.3179 -1.3336
 7138TIP3    H242830   4.157   5.194  16.234  0.6537 -0.5065  1.7477
 7139TIP3   OH242831   0.420   6.624   4.779  0.2348  0.5848 -0.1607
 7139TIP3    H142832   0.438   6.664   4.694  0.8922  0.3942 -0.1163
 7139TIP3    H242833   0.476   6.672   4.840 -0.1538  0.6494  0.1506
 7140TIP3   OH242834   0.451   2.555  14.854  0.2488 -0.3701  0.1897
 7140TIP3    H142835   0.484   2.562  14.943 -1.8947  1.1216  0.9146
 7140TIP3    H242836   0.414   2.468  14.848 -1.0528  0.0987  1.2913
 7141TIP3   OH242837   2.509   6.781   5.937  0.1824  1.2192 -0.3131
 7141TIP3    H142838   2.518   6.742   6.023  0.3532 -0.2042 -0.9589
 7141TIP3    H242839   2.415   6.788   5.923  0.1475  0.6373 -0.3692
 7142TIP3   OH242840   5.501   0.093  11.349  0.6995 -0.2388 -0.1042
 7142TIP3    H142841   5.432   0.084  11.282  0.9648 -1.0128 -0.2757
 7142TIP3    H242842   5.535   0.181  11.335 -0.0663  0.0505 -0.2033
 7143TIP3   OH242843   3.338   1.759   3.990 -0.8692 -0.1411 -0.0464
 7143TIP3    H142844   3.382   1.688   3.944 -1.6741 -0.6208 -0.0911
 7143TIP3    H242845   3.307   1.719   4.072  0.3505  0.6412  0.8061
 7144TIP3   OH242846   1.759   1.042  16.612 -0.4642 -0.4461 -0.5464
 7144TIP3    H142847   1.838   0.996  16.584  0.4942  0.7559  0.1224
 7144TIP3    H242848   1.775   1.064  16.704 -2.1525 -1.3738 -0.0179
 7145TIP3   OH242849   5.121   1.510  14.754  0.0128  0.9178 -0.8317
 7145TIP3    H142850   5.031   1.534  14.777 -0.5909 -2.6892  0.9621
 7145TIP3    H242851   5.131   1.537  14.663 -2.4096  2.6289 -0.6217
 7146TIP3   OH242852   0.093   4.947   4.660  0.0562 -0.2180  0.1511
 7146TIP3    H142853   0.165   4.900   4.618 -0.1788 -0.5283  0.0918
 7146TIP3    H242854   0.103   5.038   4.631  0.8018 -0.1327  0.6593
 7147TIP3   OH242855   6.227   3.125   1.491 -0.0594  0.5260  0.3051
 7147TIP3    H142856   6.241   3.193   1.557 -1.1220 -0.6896  1.8151
 7147TIP3    H242857   6.142   3.146   1.452  0.2238  0.8164 -0.1574
 7148TIP3   OH242858   3.432   0.930   0.552  0.3220  0.4687  0.3167
 7148TIP3    H142859   3.504   0.911   0.612  1.3975  0.6502 -0.8893
 7148TIP3    H242860   3.471   0.984   0.483 -0.6304 -0.5809 -1.0974
 7149TIP3   OH242861   5.302   2.960  16.926 -0.1828  0.4308 -0.3323
 7149TIP3    H142862   5.306   2.881  16.871  0.4322  0.4284 -0.2875
 7149TIP3    H242863   5.371   3.016  16.892  0.8105  0.0579  1.0085
 7150TIP3   OH242864   2.077   1.650  13.083  0.4362 -0.5930  0.3321
 7150TIP3    H142865   2.163   1.693  13.086 -0.0659  0.3504  1.7603
 7150TIP3    H242866   2.078   1.590  13.158 -0.8270  0.7793  1.4882
 7151TIP3   OH242867   1.034   0.760  13.852  0.1964 -0.1030 -0.2529
 7151TIP3    H142868   0.957   0.759  13.795  0.9304 -1.2605 -1.2480
 7151TIP3    H242869   1.030   0.677  13.899  0.7617 -0.1057 -0.2084
 7152TIP3   OH242870   1.090   2.722  14.905 -0.5599  0.0508  0.6368
 7152TIP3    H142871   1.101   2.763  14.991 -2.4025 -2.0039  1.9068
 7152TIP3    H242872   1.000   2.688  14.906 -0.5200 -0.1914 -2.0195
 7153TIP3   OH242873   0.151   6.331   3.058 -0.0508  0.1145 -0.0567
 7153TIP3    H142874   0.200   6.304   3.136  0.9648 -0.3008 -0.8395
 7153TIP3    H242875   0.164   6.426   3.054 -0.6945  0.2420  0.6735
 7154TIP3   OH242876   4.621   4.100   2.804 -0.0256 -0.3945 -0.2624
 7154TIP3    H142877   4.569   4.160   2.751 -0.3992  0.2639  0.8396
 7154TIP3    H242878   4.655   4.035   2.742  1.0391  1.4068 -1.5931
 7155TIP3   OH242879   2.489   5.797   4.079 -0.2122  0.0269 -0.5036
 7155TIP3    H142880   2.469   5.743   4.002 -0.9925  1.7895 -1.5587
 7155TIP3    H242881   2.462   5.742   4.153 -0.2153 -1.3685 -1.5032
 7156TIP3   OH242882   4.629   0.978  16.981 -0.7288 -0.0359 -0.6254
 7156TIP3    H142883   4.655   1.065  16.950 -1.4326  0.8634  1.2759
 7156TIP3    H242884   4.656   0.975  17.072  2.1049 -2.9914 -1.4684
 7157TIP3   OH242885   5.597   2.203  14.932 -0.4068 -0.2675  0.0684
 7157TIP3    H142886   5.633   2.164  15.011 -2.9661  1.1408  2.0075
 7157TIP3    H242887   5.658   2.273  14.910  1.5714 -2.1323 -0.6225
 7158TIP3   OH242888   4.086   2.190  14.405  0.4182 -0.1490 -0.5802
 7158TIP3    H142889   4.039   2.161  14.483  2.5857 -0.3379  0.6852
 7158TIP3    H242890   4.029   2.256  14.366 -0.5611  0.1490  1.3027
 7159TIP3   OH242891   4.899   4.509   1.351 -0.2023  0.3708 -0.9061
 7159TIP3    H142892   4.918   4.582   1.291  1.0733  0.4208 -0.4459
 7159TIP3    H242893   4.979   4.458   1.353 -1.2371 -1.3315 -1.5842
 7160TIP3   OH242894   6.470   4.560  10.719 -0.1442 -0.1709 -0.1676
 7160TIP3    H142895   6.532   4.532  10.652  0.6404 -1.1871  0.9660
 7160TIP3    H242896   6.435   4.643  10.687  0.1855 -0.6764 -1.8559
 7161TIP3   OH242897   6.469   3.851   2.205 -0.2636  0.7497 -0.9962
 7161TIP3    H142898   6.418   3.774   2.229  2.0307 -0.5069  0.1043
 7161TIP3    H242899   6.506   3.829   2.119  0.9720  0.2911 -0.3609
 7162TIP3   OH242900   0.239   3.756  16.522 -0.2657  0.2399  0.5166
 7162TIP3    H142901   0.308   3.803  16.475 -0.8419 -0.5036 -1.0937
 7162TIP3    H242902   0.206   3.820  16.586  1.2020  0.9291  0.6021
 7163TIP3   OH242903   1.398   6.692  16.732  0.2473  0.4653 -0.3807
 7163TIP3    H142904   1.407   6.715  16.824  1.7341 -0.2861 -0.3302
 7163TIP3    H242905   1.387   6.776  16.687  0.0551  0.8678  0.4212
 7164TIP3   OH242906   4.437   4.481   4.051  0.7794 -0.2395 -0.5513
 7164TIP3    H142907   4.369   4.414   4.039 -0.8070  1.1764  0.2735
 7164TIP3    H242908   4.413   4.525   4.132  3.3376 -0.3992  0.3465
 7165TIP3   OH242909   4.889   1.924  15.366 -0.3231  0.5186  0.3428
 7165TIP3    H142910   4.896   1.951  15.458 -0.0323 -0.1974  0.5318
 7165TIP3    H242911   4.910   1.831  15.366  0.4753  0.6828 -0.5576
 7166TIP3   OH242912   2.728   5.325  11.485 -0.1636  0.5477 -0.3258
 7166TIP3    H142913   2.782   5.393  11.526  1.3446 -0.1768 -1.0300
 7166TIP3    H242914   2.748   5.245  11.534 -1.2882  0.4488 -0.0247
 7167TIP3   OH242915   2.158   1.749  11.357 -0.0276 -0.3506 -0.3036
 7167TIP3    H142916   2.143   1.703  11.274 -0.8221  0.0491 -0.3834
 7167TIP3    H242917   2.216   1.691  11.406 -1.7341 -1.8824 -0.0499
 7168TIP3   OH242918   2.557   4.015  16.501 -0.0741 -0.3652  0.5188
 7168TIP3    H142919   2.601   4.046  16.580 -0.2909  1.3988 -0.0339
 7168TIP3    H242920   2.473   4.059  16.501 -0.2413 -0.6619 -0.4857
 7169TIP3   OH242921   2.297   3.484   3.274  0.3623 -0.0619 -0.2063
 7169TIP3    H142922   2.358   3.557   3.276  1.4943 -0.9759 -0.9770
 7169TIP3    H242923   2.215   3.520   3.307  0.6998  1.7499 -1.3218
 7170TIP3   OH242924   0.898   3.269   1.103  0.1528  0.1001 -0.3682
 7170TIP3    H142925   0.842   3.200   1.068 -2.1324  1.6876  0.0554
 7170TIP3    H242926   0.947   3.301   1.027 -1.1937  0.2424 -1.1809
 7171TIP3   OH242927   4.737   0.783  16.590 -0.1353 -0.0739  0.1618
 7171TIP3    H142928   4.765   0.781  16.681  0.6823  1.4371 -0.0518
 7171TIP3    H242929   4.817   0.798  16.540 -0.9543  1.7377 -0.6243
 7172TIP3   OH242930   6.730   2.737  13.937 -0.2487  0.1526 -0.1843
 7172TIP3    H142931   6.808   2.693  13.971 -0.2385  0.3136  0.0046
 7172TIP3    H242932   6.725   2.711  13.845 -0.6694 -0.8361  0.1190
 7173TIP3   OH242933   4.866   2.813   4.616  0.4064  0.1164 -0.5694
 7173TIP3    H142934   4.840   2.729   4.579  0.2521 -0.1264  0.0692
 7173TIP3    H242935   4.961   2.806   4.628  0.7076  0.8381 -2.4946
 7174TIP3   OH242936   2.050   4.324   0.275  0.3141 -0.3338 -0.3924
 7174TIP3    H142937   1.990   4.387   0.236 -0.2550  0.3814  1.5884
 7174TIP3    H242938   2.004   4.240   0.270 -1.0607  0.2919  1.5544
 7175TIP3   OH242939   3.952   5.960  16.433  0.8090  0.4843  0.0315
 7175TIP3    H142940   3.941   5.867  16.416 -0.2939  0.6148  0.0150
 7175TIP3    H242941   4.039   5.980  16.400  0.5690 -0.2787 -1.0828
 7176TIP3   OH242942   2.764   6.490   6.117 -0.1211  0.2474 -0.9248
 7176TIP3    H142943   2.696   6.517   6.179 -2.6022 -2.4881 -2.3651
 7176TIP3    H242944   2.773   6.565   6.059 -1.5017  0.8614 -0.3779
 7177TIP3   OH242945   6.248   6.032  15.995  0.3886  0.2662  0.2749
 7177TIP3    H142946   6.213   6.052  15.908 -0.0683  1.5491  0.7412
 7177TIP3    H242947   6.303   6.108  16.016  1.2312 -0.4539  0.7309
 7178TIP3   OH242948   2.792   0.216  11.666 -0.1146 -0.5101  0.4093
 7178TIP3    H142949   2.757   0.185  11.749 -1.1096 -0.2420  0.1008
 7178TIP3    H242950   2.715   0.245  11.617  0.7136  2.0108  0.5167
 7179TIP3   OH242951   2.542   1.016  13.628  0.1609 -0.1879  0.3361
 7179TIP3    H142952   2.637   1.020  13.640  0.3243  2.3094 -1.3368
 7179TIP3    H242953   2.506   1.042  13.713  0.9712 -0.9909  0.9277
 7180TIP3   OH242954   3.107   1.798   5.424 -0.6528  0.4774  0.4391
 7180TIP3    H142955   3.198   1.827   5.422 -0.6826  0.5368 -0.1650
 7180TIP3    H242956   3.057   1.878   5.404 -0.7482  0.0686 -1.0199
 7181TIP3   OH242957   4.345   4.976  16.006  0.0938 -0.1381  0.3600
 7181TIP3    H142958   4.271   4.979  15.945  0.1155 -1.4698  0.2550
 7181TIP3    H242959   4.329   5.049  16.066 -0.3983  0.6345 -0.7017
 7182TIP3   OH242960   6.745   2.731   6.338  0.0838  0.2913 -0.2087
 7182TIP3    H142961   6.698   2.647   6.341 -0.9444  0.8792  0.5571
 7182TIP3    H242962   6.772   2.740   6.246  0.8339 -1.2145 -0.1499
 7183TIP3   OH242963   1.319   0.168  16.705  0.4577 -0.0223 -0.0372
 7183TIP3    H142964   1.339   0.187  16.613 -1.9026 -2.4269 -1.0967
 7183TIP3    H242965   1.389   0.211  16.754  2.1216  0.7395 -2.9857
 7184TIP3   OH242966   2.894   2.754   1.675 -0.5566 -0.4288 -0.0974
 7184TIP3    H142967   2.875   2.818   1.606  1.5097  0.4103  0.0738
 7184TIP3    H242968   2.884   2.804   1.756 -0.4436 -0.7281  0.1002
 7185TIP3   OH242969   2.925   0.317  12.285 -0.5821  0.5002 -0.5596
 7185TIP3    H142970   2.908   0.234  12.330  1.6716  0.9323  1.1966
 7185TIP3    H242971   3.001   0.299  12.229 -1.0786  0.9710 -1.4033
 7186TIP3   OH242972   2.072   5.376  13.445 -0.5110  0.1320  0.6790
 7186TIP3    H142973   2.166   5.357  13.443 -0.6749 -0.6217  0.0251
 7186TIP3    H242974   2.066   5.461  13.488  0.5213  0.5195  0.0751
 7187TIP3   OH242975   5.796   5.750  11.332 -0.4257 -0.4267  0.3054
 7187TIP3    H142976   5.769   5.807  11.404 -1.2049  1.4194 -1.4019
 7187TIP3    H242977   5.714   5.715  11.296  0.0212 -2.3139  1.0664
 7188TIP3   OH242978   0.460   0.264  15.883 -0.9608 -0.1889  0.2368
 7188TIP3    H142979   0.502   0.349  15.902 -1.2535 -0.3942  1.9174
 7188TIP3    H242980   0.390   0.285  15.822 -0.6038  0.6801  0.1156
 7189TIP3   OH242981   1.652   5.885  11.749 -0.0622 -0.4029 -0.3448
 7189TIP3    H142982   1.647   5.944  11.824 -0.5985 -1.9823  0.9008
 7189TIP3    H242983   1.737   5.904  11.709  0.3514  0.2845  0.8332
 7190TIP3   OH242984   5.300   2.691   0.858  0.2065  0.7296  0.6958
 7190TIP3    H142985   5.242   2.686   0.782 -0.3357 -0.2188  1.1560
 7190TIP3    H242986   5.388   2.685   0.821  0.0070  1.8578  0.0185
 7191TIP3   OH242987   3.295   0.501   3.605 -0.4278  0.4671  0.2362
 7191TIP3    H142988   3.321   0.566   3.671  2.9219 -1.4198  0.8354
 7191TIP3    H242989   3.239   0.440   3.652  2.5947 -1.3232  1.6122
 7192TIP3   OH242990   1.613   2.113   2.747 -0.3203  1.0040  0.2875
 7192TIP3    H142991   1.535   2.168   2.736 -1.5875 -0.8239 -0.2065
 7192TIP3    H242992   1.587   2.029   2.710  1.7890  0.2613  0.4658
 7193TIP3   OH242993   0.382   3.723   1.222 -0.5720 -0.3367 -0.1343
 7193TIP3    H142994   0.286   3.726   1.213 -0.7972 -1.1197  1.7329
 7193TIP3    H242995   0.396   3.692   1.311  1.4410 -0.4046 -0.4627
 7194TIP3   OH242996   6.199   1.963   1.562 -0.3225 -0.8052  0.0264
 7194TIP3    H142997   6.151   1.949   1.644 -0.3255 -0.6175  0.0572
 7194TIP3    H242998   6.167   1.894   1.503 -0.9655 -0.4111 -0.0963
 7195TIP3   OH242999   3.365   2.749   0.306 -0.0980 -0.4205  0.0536
 7195TIP3    H143000   3.396   2.659   0.317  0.5110 -0.1938  0.2335
 7195TIP3    H243001   3.425   2.802   0.359  2.5006  0.6417 -3.7495
 7196TIP3   OH243002   3.648   3.810  12.900  0.4079  0.7694  0.5258
 7196TIP3    H143003   3.704   3.790  12.975  1.4508  0.3266 -0.3584
 7196TIP3    H243004   3.599   3.730  12.884 -0.9913  1.3757  1.7266
 7197TIP3   OH243005   4.514   5.300  11.248 -0.0384  0.0479  0.1840
 7197TIP3    H143006   4.428   5.314  11.208 -0.5764 -2.0917  0.5244
 7197TIP3    H243007   4.505   5.334  11.337 -1.0276 -1.4629  0.6945
 7198TIP3   OH243008   0.525   5.200  14.988 -0.0115  0.0223 -0.5350
 7198TIP3    H143009   0.547   5.109  15.008 -0.8833 -0.1931 -0.5220
 7198TIP3    H243010   0.547   5.248  15.068  1.6128  0.0307 -0.9668
 7199TIP3   OH243011   3.076   0.640  11.866 -0.0830  0.1490  0.3107
 7199TIP3    H143012   3.167   0.612  11.880  0.6723  2.5604  0.4973
 7199TIP3    H243013   3.072   0.662  11.773 -1.0628 -1.8417 -0.1516
 7200TIP3   OH243014   2.764   4.449  15.168 -1.0587 -0.1298  0.4734
 7200TIP3    H143015   2.776   4.356  15.187 -2.2581 -0.5990 -0.9942
 7200TIP3    H243016   2.756   4.490  15.255  0.8813 -1.1715  1.1679
 7201TIP3   OH243017   4.856   0.534   0.597 -0.7770  0.1951 -0.5299
 7201TIP3    H143018   4.828   0.449   0.632 -1.2286  0.2322 -0.7965
 7201TIP3    H243019   4.947   0.543   0.625 -0.7389 -0.3618 -0.4752
 7202TIP3   OH243020   0.526   4.046  14.675  0.1022  0.0106 -0.0150
 7202TIP3    H143021   0.590   4.009  14.615  0.8055  1.2763 -0.0554
 7202TIP3    H243022   0.445   3.998  14.656  0.1064  0.9370 -2.5106
 7203TIP3   OH243023   5.999   2.323   0.252 -0.2584  0.0494  0.3919
 7203TIP3    H143024   5.995   2.351   0.160 -1.1360 -2.5670 -0.4096
 7203TIP3    H243025   5.922   2.362   0.292  0.7366  2.1657  0.3370
 7204TIP3   OH243026   5.664   3.112  11.681  0.7392  0.3673 -0.2058
 7204TIP3    H143027   5.586   3.138  11.632  0.4267  0.8104  0.5187
 7204TIP3    H243028   5.724   3.185  11.669  0.2587  0.9566  0.9547
 7205TIP3   OH243029   4.955   5.691   1.709  0.5220 -0.0036  0.5163
 7205TIP3    H143030   4.912   5.605   1.707  0.5873 -0.0133 -1.2709
 7205TIP3    H243031   4.976   5.709   1.618 -0.1309  2.2553  0.7940
 7206TIP3   OH243032   4.861   3.562  15.663 -0.0436  0.0750 -0.2397
 7206TIP3    H143033   4.820   3.533  15.745  0.2806  0.1282 -0.0577
 7206TIP3    H243034   4.838   3.655  15.656  0.3665  0.1997  0.0570
 7207TIP3   OH243035   0.955   1.558   0.337 -0.2282 -0.1541 -0.2602
 7207TIP3    H143036   0.936   1.613   0.413 -1.3636 -0.6289 -0.1810
 7207TIP3    H243037   0.899   1.594   0.268  1.6513  1.0133 -1.2253
 7208TIP3   OH243038   1.407   2.451  14.761  0.2729  0.0798 -0.5007
 7208TIP3    H143039   1.461   2.527  14.737  1.9429 -0.4774  1.3484
 7208TIP3    H243040   1.456   2.409  14.832 -3.2886  0.3398  2.2249
 7209TIP3   OH243041   3.407   2.114   4.389 -0.1920  0.0481  0.5330
 7209TIP3    H143042   3.427   2.172   4.316 -1.3939 -0.0544  0.1133
 7209TIP3    H243043   3.432   2.027   4.359  0.2572  0.1506  0.6168
 7210TIP3   OH243044   2.511   3.735  12.874 -0.1612 -0.1510  0.1703
 7210TIP3    H143045   2.478   3.665  12.931 -2.8629 -0.1544 -1.2932
 7210TIP3    H243046   2.452   3.808  12.890  2.1914  1.5960  1.1146
 7211TIP3   OH243047   6.255   4.689   3.132  0.6531  0.4916 -0.2563
 7211TIP3    H143048   6.308   4.614   3.160 -0.3535  0.4216  1.5914
 7211TIP3    H243049   6.187   4.651   3.077  1.2413  0.2989 -0.8570
 7212TIP3   OH243050   4.819   5.708   1.093  0.3204 -0.4176 -0.3007
 7212TIP3    H143051   4.764   5.630   1.086 -0.0167 -0.2597  0.5561
 7212TIP3    H243052   4.909   5.676   1.081  0.0777 -0.7260 -1.3416
 7213TIP3   OH243053   6.509   6.329  15.567 -0.5118 -0.7110  0.0683
 7213TIP3    H143054   6.440   6.365  15.511 -1.1135 -1.7299  0.1361
 7213TIP3    H243055   6.576   6.299  15.506 -0.5104 -0.4919 -0.0395
 7214TIP3   OH243056   6.286   6.203  14.324  0.2037  0.1339  1.2082
 7214TIP3    H143057   6.274   6.298  14.328  1.2259  0.3474 -0.4941
 7214TIP3    H243058   6.262   6.179  14.234  1.8361 -0.9425  1.0328
 7215TIP3   OH243059   3.505   0.257   5.385  0.1550  0.6707 -0.0985
 7215TIP3    H143060   3.575   0.307   5.428 -1.5987  1.1390  2.2962
 7215TIP3    H243061   3.487   0.306   5.304  1.1184  1.7494  0.3287
 7216TIP3   OH243062   6.226   3.592   3.417 -0.1323  0.2943  0.4025
 7216TIP3    H143063   6.188   3.506   3.403  0.9098 -0.0248 -0.5340
 7216TIP3    H243064   6.177   3.650   3.358 -0.1450  0.1529  0.2755
 7217TIP3   OH243065   0.925   0.021  10.709  0.2776 -0.0767  0.3185
 7217TIP3    H143066   0.864  -0.035  10.759  2.6860 -2.3561  0.8351
 7217TIP3    H243067   0.870   0.060  10.641 -1.8342 -1.8783  0.8836
 7218TIP3   OH243068   5.121   1.143   0.391  0.0271 -0.2495 -0.1443
 7218TIP3    H143069   5.173   1.223   0.383  1.1828 -1.0017 -0.3020
 7218TIP3    H243070   5.046   1.168   0.445  0.4350  0.9139 -0.1140
 7219TIP3   OH243071   4.405   3.608  15.580 -0.5687 -0.4369 -0.0453
 7219TIP3    H143072   4.479   3.551  15.561 -2.4606 -2.5499 -1.3173
 7219TIP3    H243073   4.401   3.611  15.676  0.8771 -0.6532  0.0347
 7220TIP3   OH243074   1.862   6.417  14.902 -0.2533  0.4709  0.4816
 7220TIP3    H143075   1.935   6.408  14.964  0.2331  1.5093  0.0675
 7220TIP3    H243076   1.805   6.483  14.942  0.8184  2.2590 -0.8769
 7221TIP3   OH243077   6.218   5.366  12.462 -0.3033  0.0574 -0.2144
 7221TIP3    H143078   6.254   5.308  12.529  3.2808  2.1762 -0.1985
 7221TIP3    H243079   6.276   5.356  12.387 -2.3610  0.1795 -1.8616
 7222TIP3   OH243080   0.186   0.545  16.855 -0.1572  0.4718 -0.2102
 7222TIP3    H143081   0.091   0.550  16.863 -0.0871 -0.3692  1.3733
 7222TIP3    H243082   0.203   0.547  16.761 -1.8366 -1.2629 -0.5696
 7223TIP3   OH243083   1.283   3.842   3.180 -0.1556  0.3481 -0.0860
 7223TIP3    H143084   1.339   3.800   3.246  1.0406  1.2959 -0.4936
 7223TIP3    H243085   1.326   3.824   3.097 -1.1488 -0.0147 -0.5244
 7224TIP3   OH243086   2.995   1.247  16.948  0.1905 -0.1554  0.7384
 7224TIP3    H143087   3.004   1.328  16.998 -1.0420 -0.2431  1.0987
 7224TIP3    H243088   2.916   1.259  16.895 -0.6137 -1.5354  1.5845
 7225TIP3   OH243089   1.852   1.831   5.449  0.3040  0.1586  0.6916
 7225TIP3    H143090   1.922   1.866   5.504  0.7114  0.8323 -0.2411
 7225TIP3    H243091   1.867   1.737   5.448 -0.2970  0.0201  2.5296
 7226TIP3   OH243092   1.014   2.015  16.554 -0.4446 -0.1751  0.6173
 7226TIP3    H143093   0.996   1.972  16.638 -1.3368 -0.5902  0.2254
 7226TIP3    H243094   0.979   1.955  16.488  2.2526 -0.9064 -0.1921
 7227TIP3   OH243095   4.667   2.882   1.877  1.1132  0.6725  0.1078
 7227TIP3    H143096   4.662   2.977   1.864 -2.6303  0.5301  0.0199
 7227TIP3    H243097   4.724   2.872   1.953  1.5033  2.9803  0.1812
 7228TIP3   OH243098   6.722   1.256  17.200 -0.1988  0.0841  0.1828
 7228TIP3    H143099   6.706   1.232  17.292 -0.7588 -0.3961 -0.0387
 7228TIP3    H243100   6.781   1.188  17.168 -0.1131  0.1743  0.1506
 7229TIP3   OH243101   2.185   2.799  15.330  0.0184  0.0666 -0.5784
 7229TIP3    H143102   2.119   2.844  15.384  1.6168  1.1395  0.5192
 7229TIP3    H243103   2.207   2.863  15.262  2.5584  1.1493  1.1889
 7230TIP3   OH243104   6.408   6.300  16.695  0.6260  0.4792  0.1214
 7230TIP3    H143105   6.402   6.344  16.780 -1.8830 -0.2520  0.3603
 7230TIP3    H243106   6.462   6.358  16.642  1.3647  1.4567  1.8916
 7231TIP3   OH243107   2.900   2.899  17.153 -0.3817  0.4601  0.1091
 7231TIP3    H143108   2.927   2.825  17.098  0.6629  1.8059 -1.2509
 7231TIP3    H243109   2.897   2.863  17.242 -1.9929 -1.7283 -0.7841
 7232TIP3   OH243110   4.190   4.131   6.017  0.0427 -0.0616  0.2420
 7232TIP3    H143111   4.194   4.040   6.046  0.8543  0.1618  0.8653
 7232TIP3    H243112   4.282   4.156   6.003 -0.1265  0.8464  0.6912
 7233TIP3   OH243113   0.824   6.758   4.085  0.3095  0.1956  0.8491
 7233TIP3    H143114   0.794   6.772   4.175  2.0081 -1.2428  1.6658
 7233TIP3    H243115   0.794   6.836   4.038 -1.6466  0.4190  2.3696
 7234TIP3   OH243116   5.306   1.083   1.080  0.3852  0.6738  0.0196
 7234TIP3    H143117   5.227   1.031   1.095  1.2087  0.1900  2.9939
 7234TIP3    H243118   5.375   1.018   1.065  0.2756  1.0944 -2.5918
 7235TIP3   OH243119   2.311   4.608  16.219 -0.0302 -0.1843  0.0092
 7235TIP3    H143120   2.404   4.590  16.204 -0.0342  0.4640 -0.8296
 7235TIP3    H243121   2.310   4.667  16.295  0.2240 -0.4803  0.2401
 7236TIP3   OH243122   3.310   2.713  12.654  0.1940  0.0970  0.1657
 7236TIP3    H143123   3.320   2.806  12.632 -0.5714  0.5027  1.5044
 7236TIP3    H243124   3.282   2.672  12.572  1.1388  0.9362 -0.5955
 7237TIP3   OH243125   2.118   1.765  14.720 -0.0019  0.3190 -0.2101
 7237TIP3    H143126   2.069   1.836  14.763  1.7885  1.2750  0.2920
 7237TIP3    H243127   2.210   1.786  14.737  0.5774 -1.6365 -0.8586
 7238TIP3   OH243128   6.015   3.478   6.140  0.2622  0.1307  1.3168
 7238TIP3    H143129   6.044   3.569   6.138  2.3342 -0.4940 -2.8480
 7238TIP3    H243130   6.089   3.429   6.103 -1.0091 -3.1836  3.0210
 7239TIP3   OH243131   1.385   0.670   0.487  0.6062  0.2848  0.0055
 7239TIP3    H143132   1.408   0.693   0.577  0.3934  1.2826 -0.1785
 7239TIP3    H243133   1.320   0.736   0.462  1.1083  0.3799 -1.0779
 7240TIP3   OH243134   0.136   2.323  13.395  0.4554 -0.4094  0.9489
 7240TIP3    H143135   0.124   2.414  13.422 -3.6799 -0.2696 -1.0499
 7240TIP3    H243136   0.132   2.273  13.476 -2.4793  0.7880  1.5983
 7241TIP3   OH243137   1.136   2.032  12.038 -0.0048  0.0107  0.3460
 7241TIP3    H143138   1.231   2.043  12.034 -0.3296  3.0181  0.2684
 7241TIP3    H243139   1.114   1.982  11.960  1.5590 -1.1832  0.6435
 7242TIP3   OH243140   4.767   4.551  12.787  0.0162 -0.4107 -0.0258
 7242TIP3    H143141   4.828   4.599  12.731 -1.7319  1.7402 -0.1438
 7242TIP3    H243142   4.698   4.523  12.727  0.7300 -2.6386  0.1486
 7243TIP3   OH243143   4.527   3.736  14.772  0.0021 -0.1475 -0.5916
 7243TIP3    H143144   4.589   3.764  14.840 -0.5533  0.4996 -0.3455
 7243TIP3    H243145   4.564   3.770  14.691  0.4587 -0.5733 -0.5617
 7244TIP3   OH243146   5.994   0.738   4.223 -0.2644 -0.0996 -0.1283
 7244TIP3    H143147   6.063   0.672   4.217 -0.2872 -0.2608  1.1758
 7244TIP3    H243148   5.941   0.724   4.145  1.0434 -0.1259 -1.0291
 7245TIP3   OH243149   0.582   5.720   2.205 -0.6087  0.1544  0.4251
 7245TIP3    H143150   0.597   5.809   2.173  0.9412  0.1399  1.0653
 7245TIP3    H243151   0.506   5.689   2.156 -0.8486  1.6458 -0.1708
 7246TIP3   OH243152   2.124   0.919   0.361  0.2210  0.3895  0.3108
 7246TIP3    H143153   2.087   1.001   0.394  0.7939  0.6370  0.3560
 7246TIP3    H243154   2.075   0.901   0.280 -1.6658 -0.5918  1.6478
 7247TIP3   OH243155   5.790   1.982   4.599  0.0380 -0.1332 -0.9040
 7247TIP3    H143156   5.842   1.903   4.583  1.7301  1.2067 -2.2374
 7247TIP3    H243157   5.757   2.007   4.513 -2.2914 -0.5430 -0.1848
 7248TIP3   OH243158   1.799   3.576   5.476 -0.2275  0.7466  0.2028
 7248TIP3    H143159   1.857   3.584   5.401 -1.6376  0.6318 -0.9131
 7248TIP3    H243160   1.834   3.502   5.526  0.3320  0.4272 -0.6575
 7249TIP3   OH243161   1.603   3.496  13.107  0.0572  0.0325 -0.5573
 7249TIP3    H143162   1.656   3.575  13.117  0.9745 -0.6340  0.0119
 7249TIP3    H243163   1.561   3.505  13.022  0.1229  1.1502 -0.4793
 7250TIP3   OH243164   3.618   2.086  15.197 -0.2747  0.6542 -0.4051
 7250TIP3    H143165   3.706   2.122  15.186 -0.0976 -0.3530 -2.4735
 7250TIP3    H243166   3.631   2.005  15.246  0.0445  0.2145 -1.1917
 7251TIP3   OH243167   4.514   1.497  11.374 -0.1306 -0.5045  0.0415
 7251TIP3    H143168   4.546   1.431  11.435  0.0831  0.0908  0.5818
 7251TIP3    H243169   4.553   1.579  11.405 -0.8680 -0.0310 -0.2674
 7252TIP3   OH243170   2.905   0.536   1.148 -0.7221 -0.0423 -0.0780
 7252TIP3    H143171   2.881   0.545   1.240 -0.4998  1.9996 -0.1898
 7252TIP3    H243172   2.999   0.557   1.146 -1.6621  4.7559 -1.3501
 7253TIP3   OH243173   5.866   0.108  13.396  0.6958  0.0805 -0.2843
 7253TIP3    H143174   5.833   0.197  13.385  0.3431 -0.1071 -0.7394
 7253TIP3    H243175   5.817   0.056  13.333 -0.5295 -0.8034  1.3867
 7254TIP3   OH243176   5.563   2.872  11.849  0.4529 -0.0835 -0.1747
 7254TIP3    H143177   5.507   2.814  11.798  1.5819  0.5766 -2.2460
 7254TIP3    H243178   5.651   2.858  11.813  1.4244 -0.2059  2.1815
 7255TIP3   OH243179   4.789   1.401  17.098  0.1088  0.2293 -0.0783
 7255TIP3    H143180   4.814   1.475  17.043  0.8442  0.7767  0.9902
 7255TIP3    H243181   4.724   1.436  17.159  0.1576 -0.1016  0.1686
 7256TIP3   OH243182   6.404   3.099   0.719 -0.5833 -0.2484  0.1538
 7256TIP3    H143183   6.360   3.120   0.637 -1.1033 -0.6100  0.3413
 7256TIP3    H243184   6.463   3.027   0.697 -0.8517 -0.4635  0.1346
 7257TIP3   OH243185   6.169   3.868   0.255  0.1572  0.6566  0.6280
 7257TIP3    H143186   6.229   3.797   0.280 -0.5692 -0.3632 -0.5009
 7257TIP3    H243187   6.193   3.889   0.165  0.5055  2.0188  1.0119
 7258TIP3   OH243188   6.284   5.091   4.533  0.1580 -0.3546 -0.0985
 7258TIP3    H143189   6.349   5.022   4.549 -0.2950 -1.0971 -1.3387
 7258TIP3    H243190   6.202   5.055   4.567  0.1357  0.0144  0.2328
 7259TIP3   OH243191   6.169   4.276   0.209 -0.2708 -0.2445  0.2393
 7259TIP3    H143192   6.146   4.283   0.116 -0.0798 -0.9966  0.1304
 7259TIP3    H243193   6.085   4.287   0.255 -0.5519 -1.0196 -0.0742
 7260TIP3   OH243194   3.321   2.770   4.527  0.1121  0.4580 -0.0747
 7260TIP3    H143195   3.396   2.763   4.586  0.5137  0.5568 -0.5642
 7260TIP3    H243196   3.270   2.691   4.543 -0.2615  0.9107  1.0483
 7261TIP3   OH243197   4.362   0.298  13.195 -0.0504 -0.3406 -0.2754
 7261TIP3    H143198   4.390   0.207  13.194 -0.5276 -0.5754  2.9175
 7261TIP3    H243199   4.441   0.348  13.214 -0.4340 -0.4255  1.6524
 7262TIP3   OH243200   4.851   4.113  11.807  0.4403  0.2070  0.1727
 7262TIP3    H143201   4.828   4.158  11.888  2.4165 -0.6047  1.2251
 7262TIP3    H243202   4.845   4.180  11.739 -2.0640  0.6837  0.8340
 7263TIP3   OH243203   0.289   5.484  11.732 -0.9576  0.4537  0.3067
 7263TIP3    H143204   0.263   5.566  11.689 -0.6751  0.7735  0.7323
 7263TIP3    H243205   0.381   5.497  11.754 -0.7546 -0.2083 -0.1388
 7264TIP3   OH243206   6.768   6.425   5.055 -0.4816  0.1956  0.3743
 7264TIP3    H143207   6.830   6.483   5.010 -1.1919 -1.1068 -2.3624
 7264TIP3    H243208   6.824   6.362   5.101  0.2412  1.3243  1.1070
 7265TIP3   OH243209   1.178   5.397   5.846 -0.2085 -0.0940 -0.6071
 7265TIP3    H143210   1.173   5.302   5.833  0.3262 -0.3320  0.7834
 7265TIP3    H243211   1.087   5.426   5.846 -0.4386 -0.7887  0.1189
 7266TIP3   OH243212   5.428   0.452  14.342 -0.1685 -0.4626 -0.0034
 7266TIP3    H143213   5.416   0.492  14.428  1.0960 -0.2678  0.0883
 7266TIP3    H243214   5.414   0.523  14.280 -1.8658 -0.7778  0.0022
 7267TIP3   OH243215   0.939   6.506  14.413  0.0920  0.1706  0.3787
 7267TIP3    H143216   1.028   6.497  14.448 -0.3091 -1.0786  1.1052
 7267TIP3    H243217   0.941   6.589  14.365  2.3075 -0.9704 -1.5891
 7268TIP3   OH243218   5.458   3.121  12.429  0.0501  0.1725 -0.6028
 7268TIP3    H143219   5.469   3.158  12.341 -0.4654 -0.6762 -1.0354
 7268TIP3    H243220   5.492   3.031  12.421  1.4919  0.6030  0.4791
 7269TIP3   OH243221   4.218   2.834  17.116 -0.4896 -0.1080  0.3095
 7269TIP3    H143222   4.207   2.740  17.106 -2.5001  0.1431 -0.0057
 7269TIP3    H243223   4.239   2.866  17.028 -2.3728  0.0559 -0.0941
 7270TIP3   OH243224   2.671   0.170  15.974 -0.2263  0.7085  0.3615
 7270TIP3    H143225   2.619   0.240  15.935 -0.1660  0.0905 -0.8640
 7270TIP3    H243226   2.758   0.181  15.936  0.2743  1.1031  1.6015
 7271TIP3   OH243227   3.639   6.651   1.318  0.4191  0.0172  0.0338
 7271TIP3    H143228   3.598   6.597   1.386  1.7322  0.1398  0.9304
 7271TIP3    H243229   3.705   6.594   1.279  2.1149  1.0725  1.2733
 7272TIP3   OH243230   3.974   3.573  16.191  0.4821 -0.4524  0.0559
 7272TIP3    H143231   4.007   3.513  16.259  0.2473 -1.2243 -0.5096
 7272TIP3    H243232   4.036   3.646  16.193  2.9741 -2.4011 -1.7815
 7273TIP3   OH243233   0.553   4.605  14.507  0.1042  0.6070  0.5447
 7273TIP3    H143234   0.510   4.690  14.517 -0.3268  0.2305  1.9406
 7273TIP3    H243235   0.635   4.625  14.463 -1.3209  1.3761 -1.8668
 7274TIP3   OH243236   4.669   0.113  12.277  0.3909  0.0600  0.4605
 7274TIP3    H143237   4.604   0.045  12.259 -0.4587  0.6052  1.4348
 7274TIP3    H243238   4.693   0.099  12.369 -0.0652  1.2885  0.7825
 7275TIP3   OH243239   4.675   4.124   0.109  0.0128 -0.1983 -0.0579
 7275TIP3    H143240   4.629   4.147   0.028  0.7309  1.1111 -0.1006
 7275TIP3    H243241   4.766   4.145   0.092  0.2224 -0.2461  0.9857
 7276TIP3   OH243242   0.052   4.160  11.222 -0.6874 -0.1270  0.0786
 7276TIP3    H143243   0.065   4.065  11.221 -1.8550 -0.3130  0.9694
 7276TIP3    H243244   0.140   4.196  11.234 -0.3820 -1.1470  1.0351
 7277TIP3   OH243245   4.345   4.451  11.022  0.1207  0.5630  0.6578
 7277TIP3    H143246   4.258   4.427  10.988 -1.6647 -0.0600  5.2319
 7277TIP3    H243247   4.361   4.539  10.987 -2.3547  0.6808 -0.3226
 7278TIP3   OH243248   4.479   0.614   1.632 -0.8417 -0.0368 -0.1032
 7278TIP3    H143249   4.426   0.682   1.673 -0.1671  0.4220  0.0123
 7278TIP3    H243250   4.523   0.658   1.559  0.7691  0.0331  0.8846
 7279TIP3   OH243251   5.710   4.730   0.856  0.6921 -0.3473 -0.2833
 7279TIP3    H143252   5.744   4.771   0.936  0.3231  0.5790 -0.6038
 7279TIP3    H243253   5.628   4.775   0.839  0.3292 -1.1583 -0.6922
 7280TIP3   OH243254   0.586   5.425   1.121  0.0223  0.4271  0.2909
 7280TIP3    H143255   0.638   5.404   1.198  0.4628  2.4467  0.5694
 7280TIP3    H243256   0.556   5.341   1.088 -0.6966 -0.4315  3.0476
 7281TIP3   OH243257   0.696   4.069   3.720 -0.0150 -0.3996 -0.2635
 7281TIP3    H143258   0.656   4.111   3.796  0.8934 -0.1091  0.0548
 7281TIP3    H243259   0.628   4.008   3.688 -0.1777 -0.9792  1.1457
 7282TIP3   OH243260   0.832   0.288   5.405 -0.3979 -0.0202  0.3827
 7282TIP3    H143261   0.870   0.321   5.486  1.3785  0.8256 -0.7525
 7282TIP3    H243262   0.776   0.216   5.432  0.2500  0.1767  2.3443
 7283TIP3   OH243263   2.000   1.976   6.069  0.2589 -0.3074  0.5034
 7283TIP3    H143264   1.973   2.067   6.056 -1.7411 -1.0628 -0.8784
 7283TIP3    H243265   1.920   1.925   6.056  1.3481 -2.2650  1.2846
 7284TIP3   OH243266   2.550   2.210  15.910 -0.2343  0.1349  0.0334
 7284TIP3    H143267   2.488   2.144  15.940 -0.9449  0.6825 -0.2000
 7284TIP3    H243268   2.509   2.248  15.832  0.7792 -0.0647 -0.6099
 7285TIP3   OH243269   1.962   3.644   2.454 -0.5546 -0.3309  0.1240
 7285TIP3    H143270   1.947   3.732   2.490 -0.4761  0.1819 -1.0899
 7285TIP3    H243271   2.050   3.648   2.417 -0.7817 -0.7477 -0.4564
 7286TIP3   OH243272   4.289   2.678  14.298  0.3656 -0.2827  0.6440
 7286TIP3    H143273   4.238   2.676  14.379 -2.4119 -2.0504 -1.0704
 7286TIP3    H243274   4.305   2.586  14.277  2.0787  0.1882 -0.2305
 7287TIP3   OH243275   5.472   4.461   0.810  0.1180 -0.0329  0.4377
 7287TIP3    H143276   5.534   4.455   0.738  1.1035 -0.4583  1.3237
 7287TIP3    H243277   5.458   4.556   0.821  0.2505  0.0467 -0.0530
 7288TIP3   OH243278   4.640   0.350   4.105 -0.6177  0.4543  0.1643
 7288TIP3    H143279   4.643   0.432   4.154 -1.7433  0.1741  0.7146
 7288TIP3    H243280   4.614   0.285   4.170  0.8700 -0.4542 -0.1303
 7289TIP3   OH243281   5.651   0.960  14.488  0.4398 -0.3155 -0.0406
 7289TIP3    H143282   5.660   1.050  14.458  2.7683  0.3112  2.3343
 7289TIP3    H243283   5.720   0.912  14.441  2.3795  0.1494  2.2539
 7290TIP3   OH243284   5.371   2.003  15.416 -0.1029  0.1147  0.3637
 7290TIP3    H143285   5.382   1.908  15.413  0.0305  0.1575 -0.8009
 7290TIP3    H243286   5.408   2.034  15.333  0.3638  1.2333  0.9860
 7291TIP3   OH243287   1.429   6.422   1.967  0.2210 -0.0890 -0.1151
 7291TIP3    H143288   1.383   6.338   1.965 -0.9970  0.5880 -1.5070
 7291TIP3    H243289   1.438   6.446   1.875 -1.4278  2.3651  0.3345
 7292TIP3   OH243290   4.106   2.012   4.995  0.1565 -0.2789  0.0027
 7292TIP3    H143291   4.159   2.077   4.948 -0.1955 -0.0609 -0.0898
 7292TIP3    H243292   4.164   1.979   5.064  0.9233 -1.1130 -1.0206
 7293TIP3   OH243293   4.888   3.959  14.149 -0.0712  0.5213  0.7495
 7293TIP3    H143294   4.837   3.894  14.101  0.2050  0.6152  0.3236
 7293TIP3    H243295   4.979   3.932  14.137 -0.0138  0.4226  1.4069
 7294TIP3   OH243296   4.796   6.663  14.487  0.1770  0.2378  0.1572
 7294TIP3    H143297   4.861   6.640  14.553  0.4875  1.5678  0.3304
 7294TIP3    H243298   4.712   6.657  14.532  0.2044 -1.0418  0.0568
 7295TIP3   OH243299   4.215   1.496  10.614 -0.4945  0.1016  0.3991
 7295TIP3    H143300   4.156   1.565  10.645  1.4464  1.8035  0.4315
 7295TIP3    H243301   4.285   1.493  10.678  0.5635 -0.4029 -0.7534
 7296TIP3   OH243302   4.351   6.682  16.378  1.1719 -0.0055  0.2794
 7296TIP3    H143303   4.419   6.708  16.315  0.9808 -0.4047 -0.0974
 7296TIP3    H243304   4.275   6.735  16.353  1.3810  0.5410  0.7863
 7297TIP3   OH243305   4.589   2.155   2.164 -0.2235  0.8374  0.1305
 7297TIP3    H143306   4.633   2.224   2.213 -1.5898  0.9076  1.2939
 7297TIP3    H243307   4.508   2.196   2.133 -0.2425  0.2460 -0.6013
 7298TIP3   OH243308   1.789   1.987   3.370  0.0812  0.3923  0.1723
 7298TIP3    H143309   1.809   2.079   3.383 -0.0464  0.5631 -0.8179
 7298TIP3    H243310   1.851   1.958   3.303 -0.8486  0.1225 -0.5716
 7299TIP3   OH243311   4.115   1.041   0.239 -0.5224 -0.1336  0.1833
 7299TIP3    H143312   4.158   1.107   0.185 -2.8368  0.6957 -0.6932
 7299TIP3    H243313   4.148   1.056   0.327  0.6203  0.7575 -0.3887
 7300TIP3   OH243314   5.074   2.758   1.215 -0.5797 -0.5464 -0.4469
 7300TIP3    H143315   5.099   2.823   1.149  1.0281  0.0301  0.7137
 7300TIP3    H243316   5.156   2.736   1.259 -1.2310 -2.8258 -0.3281
 7301TIP3   OH243317   1.090   3.347  13.453 -0.6342 -0.0109 -0.2956
 7301TIP3    H143318   1.184   3.352  13.471 -0.8270 -0.3917  0.8833
 7301TIP3    H243319   1.069   3.429  13.408  0.5108 -0.5236 -1.7810
 7302TIP3   OH243320   4.746   2.381   1.431  0.0516  0.0529 -0.0365
 7302TIP3    H143321   4.830   2.419   1.408 -1.5670  2.8698 -1.5432
 7302TIP3    H243322   4.703   2.448   1.483 -2.3118 -0.2671 -1.5078
 7303TIP3   OH243323   5.596   1.121   3.968 -0.0124 -0.0912  0.1867
 7303TIP3    H143324   5.646   1.066   3.907  0.5365  0.0095  0.5441
 7303TIP3    H243325   5.661   1.153   4.030 -0.3771  0.7367  0.1497
 7304TIP3   OH243326   6.378   5.439   3.674 -0.6487  0.0732 -0.2265
 7304TIP3    H143327   6.341   5.383   3.743 -0.4718 -0.4847 -0.5841
 7304TIP3    H243328   6.461   5.469   3.711 -0.8119  0.2168  0.0256
 7305TIP3   OH243329   4.704   2.221  13.837 -0.4363 -0.2092  0.2830
 7305TIP3    H143330   4.737   2.144  13.884  1.0204 -1.2054 -2.2507
 7305TIP3    H243331   4.617   2.195  13.807  0.2718 -1.1223 -1.0416
 7306TIP3   OH243332   4.278   2.453  13.039 -0.0932  0.6753  0.3352
 7306TIP3    H143333   4.206   2.401  13.075 -1.6011  2.6480  0.2602
 7306TIP3    H243334   4.240   2.498  12.963  0.5941  3.3299  1.4915
 7307TIP3   OH243335   5.991   3.249  13.216 -0.0336 -0.3185  0.5075
 7307TIP3    H143336   5.931   3.191  13.263 -0.7398  0.6875  0.8439
 7307TIP3    H243337   6.017   3.315  13.280  1.2685 -0.6102  0.3015
 7308TIP3   OH243338   5.190   0.337   0.054  0.1507 -0.7193  0.1177
 7308TIP3    H143339   5.139   0.327   0.134 -0.8725 -0.9030 -0.5402
 7308TIP3    H243340   5.150   0.412   0.010  1.2122 -0.1296  0.1538
 7309TIP3   OH243341   1.945   0.160  14.550  0.0676  0.6545 -0.2940
 7309TIP3    H143342   1.949   0.094  14.481  1.5496  0.1776  0.2286
 7309TIP3    H243343   2.009   0.130  14.615 -0.9863  1.3290  1.0713
 7310TIP3   OH243344   0.702   4.317  14.740  0.1391  0.0528  0.2171
 7310TIP3    H143345   0.695   4.241  14.797 -1.3703  0.1558  0.1923
 7310TIP3    H243346   0.628   4.373  14.765 -0.3259  0.2661 -1.5710
 7311TIP3   OH243347   5.581   5.002   3.733  0.5247  0.2270  0.2189
 7311TIP3    H143348   5.535   5.068   3.784  0.3498 -0.3645  0.8276
 7311TIP3    H243349   5.520   4.929   3.725  0.4917  0.3695 -0.9710
 7312TIP3   OH243350   2.690   1.629   6.794  0.1606 -0.3777  0.6038
 7312TIP3    H143351   2.728   1.626   6.707 -1.9492  0.0241 -0.3541
 7312TIP3    H243352   2.737   1.562   6.843 -0.6105 -2.6574 -1.6786
 7313TIP3   OH243353   1.515   6.015   0.690  0.4093  0.5359 -0.0138
 7313TIP3    H143354   1.554   6.092   0.731 -0.8301  1.7765 -1.1081
 7313TIP3    H243355   1.496   6.043   0.600 -1.1045 -0.6812 -0.0903
 7314TIP3   OH243356   3.557   1.154   2.676  0.0877  0.1381 -0.7359
 7314TIP3    H143357   3.628   1.215   2.655  0.6217 -0.1894  0.0953
 7314TIP3    H243358   3.533   1.115   2.592  0.4069  0.7743 -1.1270
 7315TIP3   OH243359   4.591   2.038  16.836  0.1684  0.8357  1.1581
 7315TIP3    H143360   4.608   2.132  16.844 -0.8058  1.0131  1.2641
 7315TIP3    H243361   4.521   2.032  16.772  1.2786  0.0698 -0.0052
 7316TIP3   OH243362   4.025   4.844   1.144 -0.1422  0.5969  0.3178
 7316TIP3    H143363   4.052   4.856   1.235  0.7017 -0.6373  0.2385
 7316TIP3    H243364   3.991   4.755   1.140 -0.6140  0.8043 -0.4720
 7317TIP3   OH243365   1.114   1.206  15.636 -0.1087  0.0471  0.2500
 7317TIP3    H143366   1.113   1.153  15.715  0.9383 -0.4847 -0.0842
 7317TIP3    H243367   1.120   1.143  15.564  2.1873  0.6261 -0.1054
 7318TIP3   OH243368   5.579   1.844  11.686 -0.2149 -0.2105  0.0263
 7318TIP3    H143369   5.485   1.825  11.677 -0.7565  1.8961  0.9963
 7318TIP3    H243370   5.584   1.939  11.693  1.7724 -0.4251  2.2569
 7319TIP3   OH243371   3.661   6.569   5.549  0.4060  0.4498 -0.0503
 7319TIP3    H143372   3.741   6.588   5.501 -0.3382  2.9215 -0.3680
 7319TIP3    H243373   3.653   6.473   5.545  1.0296  0.4839 -3.7369
 7320TIP3   OH243374   1.735   6.239   6.169 -0.2236  0.8562 -0.2410
 7320TIP3    H143375   1.641   6.223   6.177  0.0686  0.2222  2.0532
 7320TIP3    H243376   1.772   6.213   6.253  2.0966  0.5842 -1.3084
 7321TIP3   OH243377   6.166   3.032   4.290 -0.0134  0.0577 -0.0846
 7321TIP3    H143378   6.218   3.071   4.219  0.3099  0.3534  0.3111
 7321TIP3    H243379   6.206   3.066   4.370 -0.5677 -0.0361  0.2334
 7322TIP3   OH243380   4.766   6.142   5.087 -0.2638  0.1555  1.0176
 7322TIP3    H143381   4.703   6.210   5.065 -0.5718 -0.8042 -1.1821
 7322TIP3    H243382   4.850   6.188   5.093 -0.8224  1.0837  1.8356
 7323TIP3   OH243383   3.430   2.173  14.159  0.0118  0.3557 -0.2749
 7323TIP3    H143384   3.510   2.123  14.178 -0.2842  0.0784  0.2311
 7323TIP3    H243385   3.459   2.265  14.162  0.4410  0.2383 -0.6932
 7324TIP3   OH243386   1.638   1.987  15.854 -0.0190  0.1901 -0.1622
 7324TIP3    H143387   1.719   1.983  15.905  0.4248 -0.1444 -0.8848
 7324TIP3    H243388   1.614   1.896  15.839  1.1201  0.2361 -2.5126
 7325TIP3   OH243389   5.462   2.954  14.086  0.0192  0.0589  0.1598
 7325TIP3    H143390   5.416   2.944  14.003  0.1952  0.0466  0.0628
 7325TIP3    H243391   5.517   2.876  14.092  0.2692  0.2301  0.1210
 7326TIP3   OH243392   2.905   0.874  11.446 -0.4141 -0.0017 -0.4595
 7326TIP3    H143393   2.875   0.903  11.360  0.6093 -0.1711 -0.8806
 7326TIP3    H243394   2.959   0.945  11.479  0.5471 -0.6261 -0.6723
 7327TIP3   OH243395   5.249   5.624   0.168 -0.6139  0.1630 -0.3371
 7327TIP3    H143396   5.183   5.555   0.170 -0.1123 -0.3020  1.2452
 7327TIP3    H243397   5.307   5.600   0.096 -1.3090 -0.2349 -0.7738
 7328TIP3   OH243398   5.914   4.462   4.438 -0.0392 -0.4474 -1.0153
 7328TIP3    H143399   5.847   4.402   4.405  0.7102 -2.1094  0.4311
 7328TIP3    H243400   5.990   4.406   4.455 -0.1250  0.4523  2.7513
 7329TIP3   OH243401   0.646   1.357  16.007  0.5497 -0.1015 -0.2326
 7329TIP3    H143402   0.580   1.330  15.943  0.8410  0.3779 -0.7405
 7329TIP3    H243403   0.660   1.450  15.988  2.5592 -0.5807 -1.1860
 7330TIP3   OH243404   2.410   5.623   1.208  0.1199 -0.3649  0.0047
 7330TIP3    H143405   2.370   5.547   1.249  0.9789 -0.0375  1.4997
 7330TIP3    H243406   2.360   5.637   1.128 -1.1185 -1.4678  0.5758
 7331TIP3   OH243407   6.186   5.484   0.732  0.5133 -0.4229  0.5360
 7331TIP3    H143408   6.105   5.535   0.733  0.8415  0.1656 -1.1175
 7331TIP3    H243409   6.248   5.536   0.783  0.3616  0.0243  0.2683
 7332TIP3   OH243410   4.609   4.275  12.577 -0.6327  0.1735 -0.1407
 7332TIP3    H143411   4.567   4.246  12.496  2.8888 -0.4758 -1.8157
 7332TIP3    H243412   4.655   4.198  12.610  0.7499  1.2975  0.6268
 7333TIP3   OH243413   4.708   0.432   2.563  0.1658 -0.4117  0.2395
 7333TIP3    H143414   4.729   0.430   2.656 -0.2852 -0.9055  0.3349
 7333TIP3    H243415   4.709   0.525   2.539 -2.6120 -0.0580  1.3936
 7334TIP3   OH243416   2.927   5.864   3.847 -0.3644  0.5156 -0.4742
 7334TIP3    H143417   2.950   5.872   3.754 -0.2989  1.7742 -0.3667
 7334TIP3    H243418   2.868   5.938   3.863 -2.0436 -0.8854 -0.0079
 7335TIP3   OH243419   2.567   4.058   5.805  0.1962  0.1266  0.0863
 7335TIP3    H143420   2.634   3.999   5.839 -0.2241 -0.8528 -0.7717
 7335TIP3    H243421   2.593   4.145   5.837  1.1805 -0.4229  0.7902
 7336TIP3   OH243422   2.118   3.372   2.495  0.0892 -0.0397  0.4564
 7336TIP3    H143423   2.081   3.422   2.422 -1.3973  0.1897  1.3540
 7336TIP3    H243424   2.083   3.284   2.485  0.8167 -0.3083  0.2346
 7337TIP3   OH243425   0.463   2.002   6.620 -0.6334 -0.6429 -0.5404
 7337TIP3    H143426   0.555   1.985   6.602 -0.2978 -0.4292  0.9341
 7337TIP3    H243427   0.418   1.978   6.538  1.0034  1.9545 -2.2672
 7338TIP3   OH243428   3.185   1.348  15.511  0.3023 -0.4593  0.0262
 7338TIP3    H143429   3.186   1.344  15.415  0.2281 -1.4682  0.0582
 7338TIP3    H243430   3.135   1.426  15.531 -1.0031 -1.0761 -0.7602
 7339TIP3   OH243431   4.307   4.232   5.228 -0.4181  0.1868 -0.0262
 7339TIP3    H143432   4.294   4.192   5.142 -0.9867  2.6297 -1.1189
 7339TIP3    H243433   4.298   4.159   5.290  2.1299 -2.0076 -2.1153
 7340TIP3   OH243434   1.261   4.503  11.509  0.5070  0.6324  0.6884
 7340TIP3    H143435   1.292   4.570  11.448 -1.3641  0.7192 -0.1738
 7340TIP3    H243436   1.340   4.478  11.558  2.0856  0.4212 -1.8729
 7341TIP3   OH243437   5.573   4.753   2.834  0.0906  0.3552 -0.1605
 7341TIP3    H143438   5.588   4.848   2.835  0.2819  0.3281 -0.3379
 7341TIP3    H243439   5.597   4.726   2.745 -2.5066  0.5522 -0.9440
 7342TIP3   OH243440   0.885   6.394   3.047  0.5202  0.1511  0.4574
 7342TIP3    H143441   0.976   6.366   3.041  0.9148  1.0116  1.9564
 7342TIP3    H243442   0.882   6.477   3.000  0.6223  0.3491  0.7969
 7343TIP3   OH243443   1.703   3.930   0.644  0.3716  0.0159 -0.4081
 7343TIP3    H143444   1.703   3.977   0.727 -1.2513  0.6527 -0.7550
 7343TIP3    H243445   1.748   3.989   0.583 -1.1723  0.9094 -0.7106
 7344TIP3   OH243446   0.332   0.098   4.529  0.0263 -0.0645 -0.7073
 7344TIP3    H143447   0.248   0.061   4.557  0.3734 -1.7791 -1.8676
 7344TIP3    H243448   0.387   0.022   4.510  1.6052  1.0440 -0.6783
 7345TIP3   OH243449   4.909   6.092   3.274 -0.3463 -0.0056 -0.2111
 7345TIP3    H143450   4.859   6.069   3.196 -2.2536 -0.3972  1.0891
 7345TIP3    H243451   4.950   6.176   3.253  1.2660 -1.3241 -2.5563
 7346TIP3   OH243452   1.115   5.393  16.203 -0.0264 -0.5088 -0.4909
 7346TIP3    H143453   1.159   5.469  16.165  0.3840 -1.0096 -1.0400
 7346TIP3    H243454   1.173   5.365  16.274 -0.1728 -0.3121 -0.2940
 7347TIP3   OH243455   4.656   2.053   3.034  0.2330 -0.6716 -0.4476
 7347TIP3    H143456   4.671   2.047   2.940  2.2546  2.7192 -0.4437
 7347TIP3    H243457   4.737   2.021   3.074  0.6420  0.8934  0.0233
 7348TIP3   OH243458   1.672   2.486   3.012 -0.1998  0.2226 -0.1400
 7348TIP3    H143459   1.646   2.397   3.037  1.0698 -0.1765 -0.1834
 7348TIP3    H243460   1.630   2.543   3.076 -1.8074 -0.3282 -0.6845
 7349TIP3   OH243461   1.767   0.538  13.211 -0.1415  0.3768 -0.1185
 7349TIP3    H143462   1.682   0.534  13.167 -0.6901  1.0899  0.8449
 7349TIP3    H243463   1.749   0.505  13.299  0.8230 -0.5143 -0.2524
 7350TIP3   OH243464   5.794   6.318  10.691  0.6833  0.7581 -0.0696
 7350TIP3    H143465   5.752   6.233  10.703  1.6832  0.4717  1.5263
 7350TIP3    H243466   5.733   6.381  10.728  1.0662  0.4713  1.0621
 7351TIP3   OH243467   4.287   5.299  13.030  0.0499 -0.1918 -0.0383
 7351TIP3    H143468   4.192   5.293  13.030  0.0493 -0.5167 -1.4507
 7351TIP3    H243469   4.311   5.297  12.937  1.4339 -0.1734  0.3013
 7352TIP3   OH243470   0.093   4.823  16.893  0.2123  0.4319  0.0333
 7352TIP3    H143471   0.095   4.795  16.985 -2.4160  2.4764  0.7908
 7352TIP3    H243472   0.150   4.899  16.889  1.6272 -0.6385 -0.4165
 7353TIP3   OH243473   6.787   5.106  11.104  0.6956 -0.2044  0.2462
 7353TIP3    H143474   6.725   5.036  11.124  0.3721 -0.1908 -0.6553
 7353TIP3    H243475   6.733   5.185  11.101  1.0113  0.0392  0.9600
 7354TIP3   OH243476   6.176   6.394   5.493 -0.0752  0.5114 -1.0365
 7354TIP3    H143477   6.214   6.463   5.439 -0.3067  2.7170  1.5027
 7354TIP3    H243478   6.081   6.401   5.478 -0.0011 -0.2877 -1.9331
 7355TIP3   OH243479   2.747   4.862   2.135 -0.3206  0.5623 -0.4301
 7355TIP3    H143480   2.725   4.876   2.227 -2.8500  1.5818 -1.1338
 7355TIP3    H243481   2.754   4.950   2.098 -3.3930  0.1723 -2.0743
 7356TIP3   OH243482   6.017   4.971   5.291 -0.0446  0.5638 -0.0784
 7356TIP3    H143483   5.967   5.047   5.319 -1.5884 -1.6689  3.6018
 7356TIP3    H243484   6.091   4.966   5.352  0.3237 -0.5713 -0.5905
 7357TIP3   OH243485   5.706   5.205   2.439  0.7742  0.5869  0.1044
 7357TIP3    H143486   5.728   5.295   2.464  0.3771 -0.1053  3.2454
 7357TIP3    H243487   5.759   5.151   2.498  0.0703 -1.2089 -0.8848
 7358TIP3   OH243488   6.222   6.538   0.219 -0.8613  0.4553 -0.1765
 7358TIP3    H143489   6.140   6.570   0.256 -1.1709 -2.0767  1.4095
 7358TIP3    H243490   6.230   6.584   0.135 -4.6447 -0.3458 -1.0623
 7359TIP3   OH243491   1.927   5.538   0.019 -0.8305  0.3217  0.4397
 7359TIP3    H143492   1.989   5.522   0.089 -0.4113  0.8990  0.2085
 7359TIP3    H243493   1.976   5.520  -0.061 -0.9450  0.8087  0.2552
 7360TIP3   OH243494   1.660   0.513   0.671 -0.1292  0.4773 -0.0972
 7360TIP3    H143495   1.649   0.464   0.590 -1.6975  1.3632 -0.4310
 7360TIP3    H243496   1.755   0.525   0.679  0.0347  0.4281 -1.8142
 7361TIP3   OH243497   6.202   1.313   0.890 -0.1159 -0.1873 -0.1811
 7361TIP3    H143498   6.197   1.348   0.801 -0.5425  2.1985  0.7358
 7361TIP3    H243499   6.147   1.372   0.942  1.9110 -0.1970  2.0527
 7362TIP3   OH243500   2.355   6.606   3.760  0.1009 -0.8087 -0.3941
 7362TIP3    H143501   2.277   6.642   3.719  0.5327 -0.2925 -0.7708
 7362TIP3    H243502   2.426   6.627   3.699  1.0325  1.4880  1.4357
 7363TIP3   OH243503   0.179   0.530  16.060  0.9409  0.2396 -0.0004
 7363TIP3    H143504   0.147   0.447  16.095 -0.0824  0.9358  0.7313
 7363TIP3    H243505   0.207   0.509  15.971 -0.3525 -0.6532 -0.2020
 7364TIP3   OH243506   1.115   1.025  12.700 -0.3169  0.2940 -0.4011
 7364TIP3    H143507   1.126   0.968  12.776 -0.2701  0.9391  0.0831
 7364TIP3    H243508   1.038   0.990  12.655 -2.0835  1.5882  1.4870
 7365TIP3   OH243509   6.556   1.005  11.496 -0.3295 -0.1678 -0.6596
 7365TIP3    H143510   6.554   0.981  11.404 -1.5224  1.3975 -1.0723
 7365TIP3    H243511   6.643   1.043  11.509 -0.7127  1.0336 -1.5338
 7366TIP3   OH243512   6.548   5.589  12.943  0.1101  0.5486  0.5135
 7366TIP3    H143513   6.579   5.525  13.007 -0.2953 -0.4682 -0.2903
 7366TIP3    H243514   6.473   5.631  12.986 -0.7694 -0.8063  0.3629
 7367TIP3   OH243515   3.775   5.624  11.287  0.3709  0.0790 -0.1450
 7367TIP3    H143516   3.793   5.663  11.202 -0.5041 -0.0485 -0.3975
 7367TIP3    H243517   3.687   5.655  11.310  0.4192 -0.2466  0.4993
 7368TIP3   OH243518   4.941   5.647   4.922  0.6800  0.7321 -0.2191
 7368TIP3    H143519   5.008   5.593   4.965  0.6139  0.7257 -0.1256
 7368TIP3    H243520   4.909   5.705   4.991  0.0057  0.1765 -0.0609
 7369TIP3   OH243521   1.993   0.180   4.770  0.5016 -0.1946  0.5145
 7369TIP3    H143522   1.980   0.149   4.860  0.4189  0.5583  0.7623
 7369TIP3    H243523   2.051   0.255   4.779  0.5270 -0.1468 -0.0669
 7370TIP3   OH243524   4.877   4.297   1.598  0.3344 -0.3076 -0.0654
 7370TIP3    H143525   4.939   4.351   1.647  0.2277 -0.3535  0.1224
 7370TIP3    H243526   4.919   4.211   1.594 -0.3452 -0.7270  1.3038
 7371TIP3   OH243527   1.100   6.264   3.780  0.5827  0.1599  0.0407
 7371TIP3    H143528   1.118   6.239   3.870 -1.7181 -0.4306  0.3660
 7371TIP3    H243529   1.106   6.360   3.780  0.2283  0.1839  0.9068
 7372TIP3   OH243530   6.576   4.124   3.004 -1.0931  0.3877 -0.6598
 7372TIP3    H143531   6.501   4.064   3.009 -2.0036  1.6032  0.5028
 7372TIP3    H243532   6.538   4.211   3.015  0.4006  1.0831 -0.8642
 7373TIP3   OH243533   0.150   4.652  13.707  0.6352  0.6201  0.4500
 7373TIP3    H143534   0.206   4.579  13.732 -0.2918 -0.5108 -0.6980
 7373TIP3    H243535   0.066   4.634  13.749  0.1818  0.6169 -0.4352
 7374TIP3   OH243536   1.803   2.444   1.776  0.5213  0.3978  0.1471
 7374TIP3    H143537   1.808   2.535   1.805  0.9373  0.4714 -0.1532
 7374TIP3    H243538   1.714   2.435   1.742  0.4235  0.6420  0.3330
 7375TIP3   OH243539   1.487   0.542   1.386 -0.6834 -0.1313 -0.3316
 7375TIP3    H143540   1.536   0.499   1.456 -0.2072 -0.2550 -0.7390
 7375TIP3    H243541   1.435   0.609   1.431 -1.6680 -1.3246  0.3497
 7376TIP3   OH243542   2.775   5.312  13.690  0.3547  0.1694  0.0726
 7376TIP3    H143543   2.871   5.313  13.690  0.4632 -3.3311  2.1883
 7376TIP3    H243544   2.752   5.253  13.618 -0.1164 -1.1668  1.3076
 7377TIP3   OH243545   5.555   5.216   4.620  0.4215  0.3966  0.1892
 7377TIP3    H143546   5.560   5.304   4.582 -0.3771  0.2444 -0.2759
 7377TIP3    H243547   5.461   5.200   4.632  0.2839 -1.8862 -3.2604
 7378TIP3   OH243548   2.068   4.079  12.986 -0.4055 -0.3440 -0.4334
 7378TIP3    H143549   2.101   4.089  12.896  0.8973  1.0365  0.1824
 7378TIP3    H243550   2.137   4.114  13.041 -1.4456 -0.6551  1.0915
 7379TIP3   OH243551   4.331   1.519   2.456  0.3523 -0.4441 -0.3001
 7379TIP3    H143552   4.413   1.497   2.499  0.8402  0.1593 -0.9198
 7379TIP3    H243553   4.324   1.614   2.462 -1.5314 -0.6631  1.9532
 7380TIP3   OH243554   6.546   4.883   0.063 -0.3254 -0.4740  0.2140
 7380TIP3    H143555   6.556   4.831  -0.017 -0.9157 -0.0335 -0.1384
 7380TIP3    H243556   6.531   4.817   0.131  1.4184 -0.9466  0.1887
 7381TIP3   OH243557   0.676   3.557  12.489  0.3050  0.1637  0.0355
 7381TIP3    H143558   0.670   3.462  12.478  0.2666  0.2882 -1.0104
 7381TIP3    H243559   0.745   3.585  12.429 -1.0219  1.0435 -1.0987
 7382TIP3   OH243560   4.942   5.465  16.926 -0.3655 -0.1019 -0.7107
 7382TIP3    H143561   4.932   5.538  16.988 -2.7479 -0.3594 -0.7508
 7382TIP3    H243562   4.895   5.493  16.848  1.2539 -0.4636 -1.8553
 7383TIP3   OH243563   3.868   2.250   2.869  0.4772  0.5503 -0.3358
 7383TIP3    H143564   3.805   2.296   2.923  1.5067  0.1276  1.2585
 7383TIP3    H243565   3.951   2.293   2.887  1.4093 -1.6896  0.9771
 7384TIP3   OH243566   2.835   4.043   2.895 -0.5382  0.7070 -0.1724
 7384TIP3    H143567   2.791   3.971   2.850  0.3083 -0.0337  0.1660
 7384TIP3    H243568   2.816   4.028   2.988  1.0547 -0.0569  0.0420
 7385TIP3   OH243569   0.347   2.143   3.237  0.2426  0.4455  0.0721
 7385TIP3    H143570   0.388   2.058   3.251  2.1914  1.5733  1.3587
 7385TIP3    H243571   0.263   2.137   3.283  0.9034 -0.3917  1.1957
 7386TIP3   OH243572   1.773   5.420   1.561  0.3524  0.5262 -1.0986
 7386TIP3    H143573   1.789   5.339   1.514 -0.1306  0.2738 -0.8262
 7386TIP3    H243574   1.824   5.486   1.513 -0.7526  0.4240 -2.4320
 7387TIP3   OH243575   0.874   6.542  13.486 -0.7158  0.2552  0.6039
 7387TIP3    H143576   0.947   6.509  13.538 -0.6887  0.8041  0.9190
 7387TIP3    H243577   0.796   6.511  13.532 -0.7553 -4.0393 -2.0459
 7388TIP3   OH243578   5.768   5.145   1.812  1.1199 -0.0820 -0.4222
 7388TIP3    H143579   5.853   5.182   1.832  0.8070  0.7651 -0.6284
 7388TIP3    H243580   5.721   5.145   1.895  1.9518 -2.2787  0.0835
 7389TIP3   OH243581   1.357   5.875  15.988  0.5353  0.1433 -0.0756
 7389TIP3    H143582   1.325   5.861  16.077 -1.1569  2.4910 -0.2861
 7389TIP3    H243583   1.279   5.874  15.933  1.1871  2.1440 -1.0815
 7390TIP3   OH243584   1.214   3.472   1.927  0.1787 -0.3909 -0.6537
 7390TIP3    H143585   1.140   3.465   1.987 -0.7394 -0.4776 -1.7872
 7390TIP3    H243586   1.289   3.442   1.979 -0.9118 -2.3103 -0.1454
 7391TIP3   OH243587   4.472   6.626   0.249  0.0886 -0.2447  0.4490
 7391TIP3    H143588   4.533   6.593   0.183  1.5829 -1.2142  2.2887
 7391TIP3    H243589   4.481   6.566   0.323 -1.5356  0.8507  1.5754
 7392TIP3   OH243590   0.908   3.600  12.702 -0.3103 -0.5912 -0.2685
 7392TIP3    H143591   0.864   3.543  12.639 -2.2951 -0.3961  0.9084
 7392TIP3    H243592   0.841   3.620  12.767  1.2477  0.5591  1.0154
 7393TIP3   OH243593   5.585   5.268   4.159 -0.5289  0.0782  0.5427
 7393TIP3    H143594   5.523   5.196   4.170  0.5821 -1.0933 -0.7938
 7393TIP3    H243595   5.659   5.245   4.215 -0.7867  0.9041  1.2315
 7394TIP3   OH243596   5.491   5.506  16.836  0.4281 -0.2181  0.2460
 7394TIP3    H143597   5.396   5.499  16.829  0.5151 -0.5390 -0.7555
 7394TIP3    H243598   5.517   5.554  16.758  1.0774  0.0105  0.5996
 7395TIP3   OH243599   2.985   0.414   6.252 -1.0023  0.5285 -0.3034
 7395TIP3    H143600   2.924   0.368   6.310 -0.9744  1.1004  0.1770
 7395TIP3    H243601   3.066   0.420   6.303 -0.2170 -1.0893 -1.2898
 7396TIP3   OH243602   4.761   3.190  10.501  0.0723  0.6609  0.3882
 7396TIP3    H143603   4.704   3.266  10.488 -0.4160  0.0930 -0.7612
 7396TIP3    H243604   4.718   3.140  10.570 -0.8791  0.1748 -0.5550
 7397TIP3   OH243605   1.177   6.280  14.880  0.0721  0.6297  0.1583
 7397TIP3    H143606   1.134   6.200  14.850  0.7337  0.4933 -0.4386
 7397TIP3    H243607   1.126   6.351  14.842  0.9698  0.4560 -1.4036
 7398TIP3   OH243608   5.447   2.215  14.035 -0.2908  0.4544  0.0474
 7398TIP3    H143609   5.417   2.303  14.056 -0.4526  0.6897 -1.1284
 7398TIP3    H243610   5.366   2.166  14.018 -0.3484 -0.5325  2.9150
 7399TIP3   OH243611   3.501   3.860  12.436 -0.4790 -0.2661  0.5584
 7399TIP3    H143612   3.513   3.779  12.485 -0.6122 -0.8444 -0.3440
 7399TIP3    H243613   3.486   3.927  12.502 -1.8730 -1.2432  1.2519
 7400TIP3   OH243614   5.263   2.235  13.417  1.0387  0.5264  0.0672
 7400TIP3    H143615   5.176   2.249  13.454  0.4868 -0.4352 -0.8442
 7400TIP3    H243616   5.248   2.220  13.324  2.2248  0.8093 -0.1849
 7401TIP3   OH243617   2.416   2.283   1.225 -0.1519 -0.0160  0.1939
 7401TIP3    H143618   2.345   2.345   1.242 -0.1079  0.4582 -1.2678
 7401TIP3    H243619   2.473   2.290   1.302 -1.6987 -0.4354  1.4050
 7402TIP3   OH243620   0.537   4.480   4.301 -0.6059  0.2696  0.0448
 7402TIP3    H143621   0.525   4.390   4.270 -0.6653  0.2605  0.0934
 7402TIP3    H243622   0.467   4.529   4.258 -1.2762  0.0831  0.9067
 7403TIP3   OH243623   4.712   0.907  11.084 -0.3886 -0.2551  0.8987
 7403TIP3    H143624   4.624   0.935  11.060  0.8340  1.5384 -1.6909
 7403TIP3    H243625   4.740   0.852  11.011  2.0233  2.2785 -0.1477
 7404TIP3   OH243626   4.795   2.791  15.525  0.2554  0.1615  0.5688
 7404TIP3    H143627   4.803   2.740  15.605 -0.8324 -1.6983 -0.4839
 7404TIP3    H243628   4.775   2.727  15.457  0.6124  1.7757 -1.1058
 7405TIP3   OH243629   5.930   3.210  12.674  0.3742  0.3664 -0.1994
 7405TIP3    H143630   5.923   3.289  12.620 -0.6686  2.3530  2.7016
 7405TIP3    H243631   5.976   3.239  12.753 -1.4496 -1.5516  1.6266
 7406TIP3   OH243632   3.375   5.362   4.275 -0.0889  0.4265  0.0899
 7406TIP3    H143633   3.454   5.360   4.329 -1.1618  0.8110  1.7212
 7406TIP3    H243634   3.348   5.271   4.268 -0.7514  0.4962  1.4665
 7407TIP3   OH243635   4.834   4.773  14.894  0.3134 -0.1475  0.2504
 7407TIP3    H143636   4.858   4.865  14.881  0.5337  0.3098  3.4003
 7407TIP3    H243637   4.739   4.771  14.881  0.4756  0.2826 -1.0395
 7408TIP3   OH243638   6.286   6.278  13.960  0.3523  0.3231  0.7239
 7408TIP3    H143639   6.361   6.220  13.953  0.9749  1.0734  1.0805
 7408TIP3    H243640   6.307   6.351  13.901  0.2997  0.9552  1.4855
 7409TIP3   OH243641   5.226   1.669  12.284  0.2666  0.2308 -0.3994
 7409TIP3    H143642   5.156   1.683  12.220 -0.2635 -2.3640 -0.4325
 7409TIP3    H243643   5.305   1.657  12.230 -0.0834 -1.4033 -0.5700
 7410TIP3   OH243644   1.291   6.114  13.600 -0.1220  0.2308  0.1185
 7410TIP3    H143645   1.295   6.032  13.650 -2.0797 -0.1390 -0.3110
 7410TIP3    H243646   1.371   6.113  13.547  0.5395 -0.7507  1.1166
 7411TIP3   OH243647   6.670   0.140  16.996 -0.2751  0.2702  0.8863
 7411TIP3    H143648   6.687   0.231  16.973 -2.4803  0.7724  1.1186
 7411TIP3    H243649   6.685   0.136  17.090 -0.6801  0.5429  0.9665
 7412TIP3   OH243650   2.458   5.593   4.580  0.4461  0.0252 -0.0962
 7412TIP3    H143651   2.443   5.585   4.674  0.8456  0.5923  0.0157
 7412TIP3    H243652   2.552   5.605   4.571  0.2879  1.0747 -0.4888
 7413TIP3   OH243653   2.872   6.475  16.984  0.0955  0.0403 -0.5059
 7413TIP3    H143654   2.966   6.488  16.992  0.0985 -0.7507  0.9157
 7413TIP3    H243655   2.846   6.433  17.066 -1.6383  1.0288 -0.5043
 7414TIP3   OH243656   0.824   2.469   3.587  0.6997 -0.7871 -0.3659
 7414TIP3    H143657   0.833   2.391   3.641 -1.3470 -0.0362  1.1174
 7414TIP3    H243658   0.874   2.536   3.632  0.5689 -0.6531 -0.4195
 7415TIP3   OH243659   1.209   1.092   5.123 -0.2454 -0.0228 -0.6222
 7415TIP3    H143660   1.115   1.096   5.137 -0.0181  1.6487  0.6163
 7415TIP3    H243661   1.242   1.176   5.156  1.5641 -0.1980 -1.8860
 7416TIP3   OH243662   0.988   4.377  13.972  0.0585  0.4477 -0.0463
 7416TIP3    H143663   0.947   4.330  13.899  1.1070  1.6583 -1.4402
 7416TIP3    H243664   1.079   4.349  13.971  0.6865  2.3761 -0.8507
 7417TIP3   OH243665   4.002   6.146   0.552 -0.0967  0.0835  0.1119
 7417TIP3    H143666   3.943   6.074   0.577 -0.1956  0.3441  0.6336
 7417TIP3    H243667   3.963   6.182   0.472  0.4971 -1.0715 -0.7005
 7418TIP3   OH243668   6.523   3.804  12.511 -0.0141 -0.4479  0.5916
 7418TIP3    H143669   6.487   3.809  12.422 -1.8312 -1.3719  1.2455
 7418TIP3    H243670   6.454   3.838  12.566  1.1202  0.1327  1.6707
 7419TIP3   OH243671   5.873   6.753   3.006  0.0539 -0.8162  0.0763
 7419TIP3    H143672   5.877   6.812   3.081  1.0930 -0.7359 -0.0339
 7419TIP3    H243673   5.889   6.810   2.930 -0.8438 -0.9225 -0.1967
 7420TIP3   OH243674   2.097   3.075  17.126  0.1133  0.0906  0.8022
 7420TIP3    H143675   2.020   3.035  17.086  0.6420  0.1029 -0.2523
 7420TIP3    H243676   2.163   3.005  17.127  0.7531  0.6677 -0.2277
 7421TIP3   OH243677   0.941   0.023  12.058 -0.3584  0.5813 -0.3307
 7421TIP3    H143678   0.912  -0.005  11.971  2.4180 -3.0116 -0.2115
 7421TIP3    H243679   0.923  -0.051  12.115  1.5202  1.3468  1.3130
 7422TIP3   OH243680   4.924   2.687  17.034 -0.0545 -0.2219 -0.0836
 7422TIP3    H143681   4.843   2.652  16.997  0.0674  0.9536 -1.5029
 7422TIP3    H243682   4.937   2.771  16.990  1.2795  0.1879  1.0381
 7423TIP3   OH243683   1.728   5.681  11.512  0.1922 -0.1329  0.3203
 7423TIP3    H143684   1.744   5.662  11.420  0.0551  1.1137  0.0295
 7423TIP3    H243685   1.789   5.752  11.533 -1.5967  1.3850  0.4711
 7424TIP3   OH243686   6.367   0.879  15.194 -0.0030  0.6363  0.0130
 7424TIP3    H143687   6.394   0.842  15.109  2.3667 -1.2244  1.4915
 7424TIP3    H243688   6.293   0.824  15.221  0.3950  0.0708 -0.0300
 7425TIP3   OH243689   2.829   3.202  15.010  0.3272  0.5945  0.7251
 7425TIP3    H143690   2.856   3.190  15.101 -0.7166  0.4948  1.0298
 7425TIP3    H243691   2.779   3.123  14.989  0.4022  0.7022  0.1242
 7426TIP3   OH243692   0.623   5.264   6.100  0.4875 -0.8644  0.2218
 7426TIP3    H143693   0.556   5.237   6.163  1.8466 -1.0068  1.6381
 7426TIP3    H243694   0.621   5.360   6.104  0.1731 -0.8604  0.0349
 7427TIP3   OH243695   1.267   0.347  15.222 -0.6716 -0.1931 -0.0832
 7427TIP3    H143696   1.220   0.326  15.303 -0.9623  1.3909  0.1650
 7427TIP3    H243697   1.358   0.361  15.249 -0.7592  0.2902 -0.0431
 7428TIP3   OH243698   1.543   6.097   0.179 -0.2433 -0.0949  0.1601
 7428TIP3    H143699   1.546   6.182   0.136  0.1261  0.1122  0.5972
 7428TIP3    H243700   1.604   6.043   0.129  1.0104  0.4534  1.0859
 7429TIP3   OH243701   1.540   2.826   4.454 -0.1927  0.4692  0.2900
 7429TIP3    H143702   1.555   2.820   4.360 -1.9165  1.0814 -0.0522
 7429TIP3    H243703   1.601   2.894   4.484  0.2835  0.3502 -0.3938
 7430TIP3   OH243704   0.618   5.519  13.944  0.1061 -0.1815 -0.3136
 7430TIP3    H143705   0.705   5.537  13.908 -0.4263  1.6341 -0.7350
 7430TIP3    H243706   0.634   5.459  14.017  1.9508  1.9756  1.0951
 7431TIP3   OH243707   5.518   4.362  10.465 -0.5093  0.0887  0.0791
 7431TIP3    H143708   5.517   4.278  10.511 -1.8786 -0.6852 -1.3496
 7431TIP3    H243709   5.607   4.370  10.431 -0.0196 -0.1950  1.2649
 7432TIP3   OH243710   3.792   3.115   4.821 -0.7103  0.2648  0.2048
 7432TIP3    H143711   3.766   3.058   4.893  0.3552 -0.0433  0.3610
 7432TIP3    H243712   3.825   3.194   4.863 -0.7105  0.3567  0.0347
 7433TIP3   OH243713   1.668   4.269   1.183 -0.6494 -0.1114 -0.4052
 7433TIP3    H143714   1.664   4.176   1.207  2.4702 -0.2754 -0.3095
 7433TIP3    H243715   1.754   4.279   1.142 -0.7871  2.8298 -0.0541
 7434TIP3   OH243716   6.053   1.227   5.297 -0.1498  0.1897 -0.5873
 7434TIP3    H143717   6.109   1.281   5.353  1.0346 -0.8442 -0.7593
 7434TIP3    H243718   6.033   1.283   5.222 -0.6482  1.1068  0.2068
 7435TIP3   OH243719   5.152   2.129   0.022 -0.1207  0.1002 -0.2185
 7435TIP3    H143720   5.146   2.181  -0.057 -0.7746 -1.3022 -1.1015
 7435TIP3    H243721   5.245   2.105   0.028 -0.3472 -1.1397 -1.4545
 7436TIP3   OH243722   1.585   4.321   5.263 -0.2348 -0.0675 -0.3791
 7436TIP3    H143723   1.507   4.267   5.275  0.3820 -0.5835  1.5373
 7436TIP3    H243724   1.587   4.340   5.169 -2.6750 -0.0161 -0.4563
 7437TIP3   OH243725   0.273   0.192  14.472  0.1831 -0.0246  0.3590
 7437TIP3    H143726   0.313   0.233  14.549  1.1736  2.1723 -1.2524
 7437TIP3    H243727   0.182   0.175  14.498  0.2672  1.5169  1.7359
 7438TIP3   OH243728   1.781   2.229   1.374 -0.3928  0.2628 -0.0295
 7438TIP3    H143729   1.872   2.253   1.357 -0.1738  0.7675  1.7582
 7438TIP3    H243730   1.756   2.282   1.449 -1.5201 -1.3880  0.7749
 7439TIP3   OH243731   6.379   4.816   5.211  0.2108  0.3048 -0.6852
 7439TIP3    H143732   6.378   4.911   5.221  1.4335  0.2511  0.0735
 7439TIP3    H243733   6.468   4.796   5.182  0.7768 -0.8335  1.7199
 7440TIP3   OH243734   2.223   6.281  16.451 -0.4690 -0.0547  0.4028
 7440TIP3    H143735   2.214   6.188  16.434  1.8034  0.1713 -2.3221
 7440TIP3    H243736   2.313   6.292  16.482 -0.2456  1.3978 -0.7008
 7441TIP3   OH243737   3.646   2.180  11.652  0.2099  0.3523  0.0728
 7441TIP3    H143738   3.615   2.255  11.703  0.6698  0.3377  0.3732
 7441TIP3    H243739   3.723   2.149  11.700  0.2059 -0.1130 -0.2301
 7442TIP3   OH243740   3.158   0.970  11.741  0.5282 -0.2763  0.3485
 7442TIP3    H143741   3.180   0.878  11.753  0.7565 -0.3798 -0.7934
 7442TIP3    H243742   3.241   1.012  11.718  0.3723  0.1512  0.5559
 7443TIP3   OH243743   2.911   1.937  12.948 -0.5434  0.3188 -0.1334
 7443TIP3    H143744   2.970   1.984  12.889 -0.3529  2.0721  1.4036
 7443TIP3    H243745   2.965   1.869  12.988  0.0397  0.9452  0.1378
 7444TIP3   OH243746   6.597   2.058  11.648 -0.3056  0.1418 -0.5569
 7444TIP3    H143747   6.543   2.130  11.614 -1.1772 -0.6948 -0.9969
 7444TIP3    H243748   6.574   2.053  11.741 -0.2478  0.4340 -0.5264
 7445TIP3   OH243749   0.402   6.512   4.080  0.4859  0.0157 -0.2251
 7445TIP3    H143750   0.440   6.424   4.091  0.4401  0.1444  1.0404
 7445TIP3    H243751   0.442   6.564   4.150 -0.8054  0.5592  0.1233
 7446TIP3   OH243752   2.794   3.045  14.695  0.1131 -0.1656  0.2075
 7446TIP3    H143753   2.722   3.004  14.742  1.2293 -1.1929  1.0676
 7446TIP3    H243754   2.761   3.132  14.671 -0.4120  0.4759  3.1000
 7447TIP3   OH243755   1.321   1.242   6.670 -0.3466 -0.3278 -0.5113
 7447TIP3    H143756   1.251   1.209   6.613 -0.4620  0.2290 -0.6945
 7447TIP3    H243757   1.298   1.333   6.686 -1.2588 -0.9407  1.8691
 7448TIP3   OH243758   0.319   3.036   2.062 -0.0859  0.1399  0.4523
 7448TIP3    H143759   0.411   3.030   2.088  0.2063  1.0837 -0.3549
 7448TIP3    H243760   0.302   2.954   2.015 -0.4740 -1.3605  3.0611
 7449TIP3   OH243761   2.510   0.180  15.605  0.1387 -0.0875 -0.3315
 7449TIP3    H143762   2.431   0.162  15.656  0.3368 -0.0056  0.0046
 7449TIP3    H243763   2.542   0.094  15.579 -1.1803 -0.0452 -2.1826
 7450TIP3   OH243764   2.424   2.864  11.276  0.3952 -0.5273  0.2321
 7450TIP3    H143765   2.431   2.775  11.240  2.6813  0.0846 -0.9024
 7450TIP3    H243766   2.468   2.859  11.361  0.2215 -0.5513  0.3223
 7451TIP3   OH243767   4.478   5.887   1.286 -0.5539 -0.6436  0.3396
 7451TIP3    H143768   4.500   5.794   1.281  0.2888 -0.4472  0.2519
 7451TIP3    H243769   4.516   5.917   1.368 -2.0894 -0.6912  1.0808
 7452TIP3   OH243770   4.348   2.584   2.519 -0.3218  0.1979 -0.1435
 7452TIP3    H143771   4.404   2.568   2.595 -0.0955  1.6823  0.0221
 7452TIP3    H243772   4.302   2.665   2.541 -0.8935  0.1697 -1.2280
 7453TIP3   OH243773   1.218   1.354   6.101  0.1120 -0.0382  0.2094
 7453TIP3    H143774   1.196   1.447   6.093  1.4682  0.3421  0.7421
 7453TIP3    H243775   1.261   1.347   6.187  0.9986 -0.9436 -0.2944
 7454TIP3   OH243776   3.645   1.577   0.995 -0.5685 -0.4642  0.5418
 7454TIP3    H143777   3.654   1.484   1.014 -0.7471 -0.7109 -0.5287
 7454TIP3    H243778   3.715   1.619   1.045 -0.2082 -1.2222  0.6746
 7455TIP3   OH243779   4.085   5.802  12.940 -0.0691  0.1946  0.2401
 7455TIP3    H143780   4.081   5.811  13.035  0.2343  0.8519  0.1940
 7455TIP3    H243781   4.013   5.744  12.918  0.0002 -0.1450  0.8957
 7456TIP3   OH243782   0.173   5.556   2.479  0.5491 -0.0879 -0.0594
 7456TIP3    H143783   0.122   5.619   2.428 -0.3992 -0.1639  0.7797
 7456TIP3    H243784   0.145   5.471   2.446 -0.2073 -0.1422  0.7199
 7457TIP3   OH243785   1.691   6.142  14.841 -0.0094 -0.0287  0.2489
 7457TIP3    H143786   1.717   6.150  14.933 -0.0698 -0.3965  0.2988
 7457TIP3    H243787   1.736   6.063  14.810  0.6099  0.5028 -0.2452
 7458TIP3   OH243788   2.261   2.072   2.481 -0.1658 -0.0016 -0.3948
 7458TIP3    H143789   2.330   2.137   2.466 -1.8194  1.8191 -0.3380
 7458TIP3    H243790   2.292   1.993   2.438  1.3178  1.2113 -1.5996
 7459TIP3   OH243791   0.533   3.755  11.949 -0.4995  0.5756  0.8679
 7459TIP3    H143792   0.510   3.776  12.039 -1.1008 -2.4286  1.4897
 7459TIP3    H243793   0.626   3.732  11.953 -0.8551 -0.8960  1.0129
 7460TIP3   OH243794   1.457   1.865  13.481 -0.1885 -0.0176  0.2558
 7460TIP3    H143795   1.467   1.940  13.422  1.0244 -0.9724 -0.7629
 7460TIP3    H243796   1.525   1.804  13.454 -1.5809 -1.7796  0.6688
 7461TIP3   OH243797   3.953   2.185  16.165 -0.1836 -0.5309  0.3752
 7461TIP3    H143798   3.879   2.239  16.139 -0.0925  0.3116  1.8671
 7461TIP3    H243799   3.916   2.119  16.224 -0.0155 -1.1093 -0.1578
 7462TIP3   OH243800   1.208   5.196   5.268  0.5012 -0.2352  0.0587
 7462TIP3    H143801   1.175   5.237   5.348 -0.5525  0.3089 -0.6499
 7462TIP3    H243802   1.237   5.269   5.213 -0.8609 -0.4574 -0.9717
 7463TIP3   OH243803   5.774   3.166  12.979 -0.2219 -0.5076 -0.6445
 7463TIP3    H143804   5.843   3.196  13.038  1.2619 -0.2006 -2.4956
 7463TIP3    H243805   5.773   3.230  12.908 -1.1067 -1.5595 -1.5997
 7464TIP3   OH243806   2.443   0.306   6.409  0.0969  0.0892 -0.4196
 7464TIP3    H143807   2.518   0.364   6.399  0.4272 -0.2670 -0.0497
 7464TIP3    H243808   2.427   0.304   6.504  2.0407 -2.8354 -0.0772
 7465TIP3   OH243809   5.351   0.076  16.348  0.4374 -0.0389 -0.9429
 7465TIP3    H143810   5.307   0.008  16.296 -0.4268  0.5936 -1.0395
 7465TIP3    H243811   5.352   0.041  16.437 -0.6034  0.1087 -0.8683
 7466TIP3   OH243812   4.631   3.119   1.461  0.0811 -0.1633 -0.3146
 7466TIP3    H143813   4.686   3.045   1.486  0.3450  0.0219 -0.3410
 7466TIP3    H243814   4.568   3.128   1.532  1.7997  1.3309  1.0702
 7467TIP3   OH243815   2.818   4.662  12.931  0.3018 -0.2917 -0.3359
 7467TIP3    H143816   2.908   4.691  12.948 -0.6562  0.8873  3.2289
 7467TIP3    H243817   2.763   4.735  12.958 -1.8543 -2.4553  1.4874
 7468TIP3   OH243818   6.601   4.806  15.570  0.2568 -0.3586  0.0180
 7468TIP3    H143819   6.654   4.842  15.498  0.3816  0.7533  0.6611
 7468TIP3    H243820   6.512   4.833  15.550  0.1884 -0.6664 -0.0953
 7469TIP3   OH243821   1.346   4.873  10.459 -0.1333  0.0814 -0.3340
 7469TIP3    H143822   1.344   4.938  10.529 -0.6561 -2.2462  1.8977
 7469TIP3    H243823   1.319   4.921  10.381  0.0490  2.6515  1.1188
 7470TIP3   OH243824   0.824   5.416  15.179  0.3664  0.0391 -0.1636
 7470TIP3    H143825   0.879   5.386  15.251 -0.2005  0.9676  0.6773
 7470TIP3    H243826   0.741   5.441  15.221  0.4201  1.6647 -0.9570
 7471TIP3   OH243827   6.472   0.069  15.444 -0.2438 -0.4198  0.0885
 7471TIP3    H143828   6.545   0.132  15.445 -0.2509 -0.4126  0.1998
 7471TIP3    H243829   6.503  -0.003  15.499 -0.8705  0.2065  1.2889
 7472TIP3   OH243830   6.252   5.555   1.132 -0.0324 -0.2384 -0.4980
 7472TIP3    H143831   6.292   5.487   1.185 -0.4007 -0.7141 -0.8297
 7472TIP3    H243832   6.175   5.514   1.093  0.3590  0.0323 -1.5900
 7473TIP3   OH243833   6.465   5.029  10.347 -0.2753 -0.9121 -0.4436
 7473TIP3    H143834   6.549   5.074  10.341 -0.7678 -0.1973 -2.5131
 7473TIP3    H243835   6.440   5.038  10.439  1.0636  0.4389 -0.1808
 7474TIP3   OH243836   2.956   4.979  15.027  0.1357 -0.0211 -0.5335
 7474TIP3    H143837   2.940   5.039  15.100  0.4504 -0.9733  0.3386
 7474TIP3    H243838   3.032   4.928  15.055 -0.6867 -1.4455 -0.8583
 7475TIP3   OH243839   3.600   1.123  14.083  0.3313 -0.3526 -0.1271
 7475TIP3    H143840   3.539   1.151  14.151 -0.9215 -1.5038 -0.7391
 7475TIP3    H243841   3.686   1.149  14.115 -0.4267  0.8103  1.0105
 7476TIP3   OH243842   2.650   0.796  12.249  0.1182 -0.0995  0.1321
 7476TIP3    H143843   2.714   0.726  12.236 -1.8780 -1.7237 -1.4316
 7476TIP3    H243844   2.631   0.827  12.161 -1.0597  0.4904  0.5830
 7477TIP3   OH243845   0.278   0.568   3.570 -0.0781 -0.6935  0.5782
 7477TIP3    H143846   0.324   0.652   3.577 -0.1459 -0.5984 -0.0734
 7477TIP3    H243847   0.240   0.554   3.656 -0.7537  0.3411  0.4505
 7478TIP3   OH243848   5.527   1.798   0.682 -0.3117 -0.3543 -0.4371
 7478TIP3    H143849   5.490   1.747   0.754  0.4837  0.4977  0.6115
 7478TIP3    H243850   5.573   1.734   0.628 -0.0838 -0.8724  0.3612
 7479TIP3   OH243851   5.364   3.672   4.342  0.5385 -0.1040 -0.4248
 7479TIP3    H143852   5.369   3.596   4.400  0.5461  1.1413  1.2201
 7479TIP3    H243853   5.271   3.682   4.324  0.4391  0.2021  0.2817
 7480TIP3   OH243854   1.641   4.977  14.368 -0.1899 -0.4764 -0.2602
 7480TIP3    H143855   1.691   4.898  14.387 -0.5967 -1.2124 -2.1544
 7480TIP3    H243856   1.663   4.999  14.277 -2.0583  0.1006 -0.6044
 7481TIP3   OH243857   2.367   0.909   2.387  0.2499  0.0425  0.4059
 7481TIP3    H143858   2.427   0.847   2.348  1.8100  0.7634  1.6080
 7481TIP3    H243859   2.362   0.982   2.325  0.1654 -0.2678  0.0492
 7482TIP3   OH243860   5.993   1.551  14.324 -0.0004  0.0411  0.3429
 7482TIP3    H143861   5.958   1.485  14.265 -0.5153 -0.7265  1.5026
 7482TIP3    H243862   5.974   1.518  14.412 -0.0512  1.6026  0.9345
 7483TIP3   OH243863   6.767   1.821  13.010 -0.1752 -0.3493  0.1004
 7483TIP3    H143864   6.847   1.825  13.061 -0.4404  1.1107  0.4150
 7483TIP3    H243865   6.794   1.784  12.926  1.0152  1.1191 -0.1728
 7484TIP3   OH243866   5.801   6.002  12.983  0.2460  0.6352  0.1421
 7484TIP3    H143867   5.740   5.928  12.989  0.6597  0.3804  1.3637
 7484TIP3    H243868   5.887   5.962  12.994  0.4242  1.3873  1.6523
 7485TIP3   OH243869   6.694   5.997  13.874  0.0079  0.0877 -0.1163
 7485TIP3    H143870   6.649   6.079  13.892 -1.0719 -0.8732  1.7827
 7485TIP3    H243871   6.689   5.948  13.957  1.5696 -1.4410 -0.8869
 7486TIP3   OH243872   0.825   6.659   4.847  0.6945 -0.1201 -0.3866
 7486TIP3    H143873   0.889   6.655   4.919  0.2505 -1.8450 -0.0756
 7486TIP3    H243874   0.751   6.707   4.885  0.0923 -1.8046  0.6247
 7487TIP3   OH243875   2.857   2.600   5.510 -0.0402 -0.3705  0.1276
 7487TIP3    H143876   2.842   2.529   5.573 -0.7302  0.6708  1.1435
 7487TIP3    H243877   2.835   2.561   5.425 -1.8694 -0.9334  0.8315
 7488TIP3   OH243878   4.073   3.134  12.472  0.0863  0.0827 -0.2853
 7488TIP3    H143879   4.112   3.048  12.483  0.0289 -0.2693 -2.5100
 7488TIP3    H243880   4.140   3.195  12.504 -0.6293 -0.8207  3.1005
 7489TIP3   OH243881   1.027   5.841  15.132 -0.2466  0.7806  0.1156
 7489TIP3    H143882   0.978   5.818  15.053 -0.6573  1.2467  0.2344
 7489TIP3    H243883   1.068   5.759  15.159 -0.4108  0.5381 -0.3705
 7490TIP3   OH243884   2.082   5.329   2.108 -0.6817  0.7127 -0.4978
 7490TIP3    H143885   2.050   5.278   2.034 -0.4166 -1.3931  0.7904
 7490TIP3    H243886   2.168   5.360   2.079 -0.1207 -0.9736 -0.7110
 7491TIP3   OH243887   6.723   6.598  15.069 -0.1389 -0.0929 -0.2366
 7491TIP3    H143888   6.650   6.649  15.033  0.2663  0.2729 -0.5375
 7491TIP3    H243889   6.788   6.663  15.094  0.7363 -0.5113 -1.4165
 7492TIP3   OH243890   4.780   5.394   6.503  0.1032  0.4369  0.4116
 7492TIP3    H143891   4.684   5.400   6.499  0.1906  0.8621 -1.5691
 7492TIP3    H243892   4.801   5.411   6.595 -1.7399 -0.0006  0.9434
 7493TIP3   OH243893   6.517   1.609  17.177 -0.0800 -0.2941  0.0774
 7493TIP3    H143894   6.466   1.537  17.213  1.4562 -1.0094  0.9227
 7493TIP3    H243895   6.576   1.568  17.113 -0.4599  0.4830 -0.7843
 7494TIP3   OH243896   5.181   2.939  12.400  0.2893 -0.2436 -0.7297
 7494TIP3    H143897   5.086   2.948  12.413  0.2344  0.8144 -1.7832
 7494TIP3    H243898   5.213   2.900  12.481 -0.8365  0.8318  0.2408
 7495TIP3   OH243899   5.249   5.232  15.792 -0.3738 -0.3888 -0.1200
 7495TIP3    H143900   5.339   5.241  15.823 -0.5153 -0.0882  0.2068
 7495TIP3    H243901   5.249   5.151  15.742 -0.0594 -0.6939  0.3692
 7496TIP3   OH243902   1.061   3.911  10.171 -0.3964 -0.3438 -0.4510
 7496TIP3    H143903   1.066   3.965  10.092 -1.8149  1.4453  0.6363
 7496TIP3    H243904   0.973   3.874  10.170 -0.3300 -0.5355  0.1548
 7497TIP3   OH243905   1.992   0.055  16.852 -0.4431 -0.1806 -0.7250
 7497TIP3    H143906   2.008   0.088  16.764 -0.4522 -0.8168 -0.9695
 7497TIP3    H243907   2.045   0.111  16.909  1.0851 -0.9622 -1.3293
 7498TIP3   OH243908   3.921   1.074  16.282 -0.4831 -0.1069  0.3073
 7498TIP3    H143909   3.942   1.140  16.348  1.2386  0.7018 -1.0136
 7498TIP3    H243910   4.006   1.042  16.252 -1.1972  0.1434 -2.1217
 7499TIP3   OH243911   4.840   5.259  11.799 -0.3626  0.4835 -0.2378
 7499TIP3    H143912   4.871   5.298  11.717 -0.5322  0.5205 -0.2850
 7499TIP3    H243913   4.914   5.207  11.831  0.1574  1.5316  0.2673
 7500TIP3   OH243914   6.496   1.964  16.325  0.0466  0.0113  0.2566
 7500TIP3    H143915   6.530   1.888  16.277  1.1527  0.6687 -0.0155
 7500TIP3    H243916   6.402   1.964  16.306  0.0674 -1.1797  0.1138
 7501TIP3   OH243917   1.195   5.285   0.483  0.5413 -0.1692 -0.0063
 7501TIP3    H143918   1.198   5.347   0.411  0.2651  0.7261  0.7489
 7501TIP3    H243919   1.166   5.336   0.558 -0.1679 -1.3193  0.5119
 7502TIP3   OH243920   3.024   0.377  11.681 -0.2842  0.0771 -0.6710
 7502TIP3    H143921   2.966   0.301  11.672 -1.0396  0.5546  0.0722
 7502TIP3    H243922   2.965   0.451  11.692  0.4352  0.9428 -2.5083
 7503TIP3   OH243923   3.780   3.460  15.830  0.3025 -0.0174 -0.3727
 7503TIP3    H143924   3.771   3.542  15.782 -1.7213 -1.1460 -2.0254
 7503TIP3    H243925   3.745   3.479  15.917  1.9694  1.4537  0.0117
 7504TIP3   OH243926   5.494   4.494  15.393 -0.2163  0.1351  0.3428
 7504TIP3    H143927   5.534   4.568  15.439  0.2229 -0.2068  0.5116
 7504TIP3    H243928   5.410   4.528  15.361  0.6399  1.1306 -0.8447
 7505TIP3   OH243929   2.840   5.687   1.373 -0.2841 -0.9121 -0.3198
 7505TIP3    H143930   2.876   5.649   1.293  1.4778 -5.1788  2.2881
 7505TIP3    H243931   2.747   5.668   1.370  0.2129 -3.5960 -0.1588
 7506TIP3   OH243932   3.072   3.389  14.579 -0.0437 -0.3306 -0.0737
 7506TIP3    H143933   3.008   3.340  14.630 -1.2553  0.3728 -0.8973
 7506TIP3    H243934   3.021   3.456  14.534  1.5693  1.7161  1.0425
 7507TIP3   OH243935   3.269   1.846  11.880  0.8265 -0.2308 -0.4466
 7507TIP3    H143936   3.221   1.867  11.800 -1.7569 -0.5855  0.9372
 7507TIP3    H243937   3.223   1.894  11.949  2.0609 -1.1085  1.0273
 7508TIP3   OH243938   1.077   2.110   0.035  0.4081 -0.1073  0.5842
 7508TIP3    H143939   1.162   2.126  -0.004 -0.5763  2.5263 -0.5690
 7508TIP3    H243940   1.093   2.043   0.101  3.0218 -0.9359 -0.8454
 7509TIP3   OH243941   1.604   3.519  15.357  0.2157  0.3110 -0.4254
 7509TIP3    H143942   1.666   3.478  15.417  0.6202  1.3753 -0.1081
 7509TIP3    H243943   1.582   3.449  15.295  2.3004  0.1126 -1.0025
 7510TIP3   OH243944   6.312   3.366  14.929  0.6257 -0.2639  0.1242
 7510TIP3    H143945   6.259   3.426  14.876  1.1957  0.1271 -0.0153
 7510TIP3    H243946   6.397   3.365  14.885  0.0807 -2.6148 -0.9411
 7511TIP3   OH243947   6.215   4.104   1.720  0.3683  0.4469  0.5853
 7511TIP3    H143948   6.165   4.026   1.698 -2.5942  1.5008  3.2610
 7511TIP3    H243949   6.261   4.127   1.639 -1.9320 -1.6883 -1.3921
 7512TIP3   OH243950   2.863   0.755   4.852  0.3520 -0.0433  0.0317
 7512TIP3    H143951   2.949   0.735   4.889  1.0205  0.9981 -0.9162
 7512TIP3    H243952   2.826   0.821   4.911  0.4101 -0.1526  0.1885
 7513TIP3   OH243953   2.350   3.213  15.883 -0.2597  0.1284  0.9599
 7513TIP3    H143954   2.380   3.146  15.822  0.1844 -0.2790  1.6131
 7513TIP3    H243955   2.408   3.288  15.868 -2.7448  1.5638 -1.9986
 7514TIP3   OH243956   1.536   3.826   1.382  0.6242  0.1939 -0.3807
 7514TIP3    H143957   1.624   3.801   1.411 -0.5760 -2.4726  1.1556
 7514TIP3    H243958   1.507   3.752   1.328 -0.7641  0.9542 -0.6851
 7515TIP3   OH243959   3.004   5.392  16.717 -0.1591 -0.0863 -0.1932
 7515TIP3    H143960   3.082   5.339  16.704  0.6413  0.7717  1.0397
 7515TIP3    H243961   2.970   5.408  16.629  1.0776 -0.4065 -0.7285
 7516TIP3   OH243962   4.440   1.780  11.515 -0.0174 -0.1543 -0.1522
 7516TIP3    H143963   4.354   1.746  11.539  0.1559 -2.4396 -2.4892
 7516TIP3    H243964   4.501   1.726  11.565  0.1383 -0.7868 -1.0107
 7517TIP3   OH243965   3.052   5.997   0.708  0.3652 -0.7408  0.0365
 7517TIP3    H143966   3.145   6.015   0.701  0.0706  0.1559 -1.9289
 7517TIP3    H243967   3.039   5.971   0.799  2.1774  1.1455  0.8653
 7518TIP3   OH243968   6.315   5.568   0.206 -0.0840  0.9418  0.4622
 7518TIP3    H143969   6.237   5.584   0.151 -1.0242 -0.0406  1.4840
 7518TIP3    H243970   6.282   5.516   0.279  2.1302 -2.3467 -0.7606
 7519TIP3   OH243971   5.629   2.345   1.765 -0.3045 -0.5399 -0.5198
 7519TIP3    H143972   5.595   2.424   1.723  1.1617 -0.6882 -1.9963
 7519TIP3    H243973   5.699   2.315   1.708  1.8173 -0.7017  2.0856
 7520TIP3   OH243974   2.745   5.913  16.340 -0.2294 -0.4528 -0.0284
 7520TIP3    H143975   2.690   5.953  16.273 -0.8303  1.0596  1.3441
 7520TIP3    H243976   2.821   5.970  16.345 -0.6373 -0.0248  1.2611
 7521TIP3   OH243977   3.140   2.744   2.717 -0.1802 -0.0242  0.8298
 7521TIP3    H143978   3.218   2.745   2.662 -1.0548  0.6738 -0.3992
 7521TIP3    H243979   3.073   2.702   2.663 -1.0744  0.7669  1.3180
 7522TIP3   OH243980   4.815   2.446   4.958  0.0810 -0.3311 -0.6080
 7522TIP3    H143981   4.878   2.375   4.952  1.1343  0.6689 -1.6116
 7522TIP3    H243982   4.855   2.518   4.909 -2.0069  0.1971 -1.5946
 7523TIP3   OH243983   1.598   0.800   2.015 -0.1843 -0.0775  0.4332
 7523TIP3    H143984   1.509   0.790   2.048 -1.3826  0.3688 -2.4750
 7523TIP3    H243985   1.592   0.873   1.953  2.1025 -0.3298 -0.1290
 7524TIP3   OH243986   2.236   2.129  16.535 -0.3148  0.2584  0.1609
 7524TIP3    H143987   2.296   2.189  16.492 -1.4125  0.8959 -0.5029
 7524TIP3    H243988   2.173   2.105  16.466  0.5778 -2.2803  0.1872
 7525TIP3   OH243989   2.908   4.125   5.276  0.2779  0.4000 -1.1845
 7525TIP3    H143990   2.866   4.092   5.196 -1.3248 -0.3426 -0.0770
 7525TIP3    H243991   2.992   4.081   5.280 -1.1770 -2.4366 -0.5642
 7526TIP3   OH243992   2.841   0.223  13.566 -0.3566 -0.1672 -0.3047
 7526TIP3    H143993   2.770   0.286  13.578  1.1046  1.7158 -1.2303
 7526TIP3    H243994   2.866   0.231  13.474  0.9217 -0.9395 -0.0521
 7527TIP3   OH243995   0.032   3.082   2.556  0.1758 -0.0841 -0.2669
 7527TIP3    H143996   0.040   3.021   2.630  0.8559 -0.9038 -1.0048
 7527TIP3    H243997   0.015   3.026   2.481 -1.4867  0.8191 -0.5966
 7528TIP3   OH243998   0.038   4.104   2.074  0.6782  0.1526 -0.7519
 7528TIP3    H143999  -0.053   4.113   2.104  0.8637  1.4127 -0.5318
 7528TIP3    H244000   0.084   4.064   2.147  0.0005 -1.9340 -1.4261
 7529TIP3   OH244001   3.007   2.893   0.747  0.3256 -0.2328 -0.3398
 7529TIP3    H144002   3.087   2.846   0.725  1.5316  1.0359  1.2519
 7529TIP3    H244003   2.965   2.908   0.662  1.0932 -2.0425 -1.0759
 7530TIP3   OH244004   1.574   1.126   0.130 -0.7810 -0.1038  0.2945
 7530TIP3    H144005   1.544   1.036   0.144 -2.0629  0.5564  1.8101
 7530TIP3    H244006   1.494   1.178   0.125 -0.1144  0.7757 -2.0921
 7531TIP3   OH244007   5.614   4.393  16.935 -0.0137  0.2795  0.2186
 7531TIP3    H144008   5.534   4.426  16.894 -1.0998 -0.4916  1.6921
 7531TIP3    H244009   5.613   4.429  17.023  2.0245  1.4451 -0.1979
 7532TIP3   OH244010   4.930   5.694   5.843 -0.2362 -0.1207  0.3232
 7532TIP3    H144011   4.842   5.657   5.835 -0.3078 -0.0176  0.6368
 7532TIP3    H244012   4.932   5.732   5.931  0.4274 -0.9341  0.6648
 7533TIP3   OH244013   1.931   6.137   1.042  0.4780 -0.0699  0.3260
 7533TIP3    H144014   1.920   6.174   0.955 -2.2064  0.1982  0.7257
 7533TIP3    H244015   1.918   6.043   1.030 -1.5472  0.1504  0.6673
 7534TIP3   OH244016   5.815   1.636   4.691 -0.0294 -0.2276 -0.5679
 7534TIP3    H144017   5.872   1.662   4.763 -0.5878  0.5048 -0.3816
 7534TIP3    H244018   5.861   1.665   4.612  0.1872 -0.2708 -0.4568
 7535TIP3   OH244019   0.862   5.691   1.543 -0.2131 -0.2921  0.1053
 7535TIP3    H144020   0.932   5.677   1.606 -0.9765 -2.9115  0.4196
 7535TIP3    H244021   0.900   5.667   1.459 -0.2468 -0.1358  0.0441
 7536TIP3   OH244022   3.920   1.987  14.190 -0.1513 -0.3808  0.1641
 7536TIP3    H144023   4.012   1.984  14.216  0.4062 -0.2949 -1.7199
 7536TIP3    H244024   3.919   1.951  14.102 -1.6718  1.1822 -0.4846
 7537TIP3   OH244025   5.595   2.882  11.473  0.0176  0.1890  0.0752
 7537TIP3    H144026   5.514   2.931  11.485 -0.5365 -0.2038 -1.9766
 7537TIP3    H244027   5.664   2.949  11.475 -0.5566  0.8078 -0.5454
 7538TIP3   OH244028   4.894   1.060  12.457 -0.3177 -0.1120 -0.4543
 7538TIP3    H144029   4.887   0.967  12.481  0.8682 -0.7778 -2.5756
 7538TIP3    H244030   4.877   1.107  12.539  2.4647 -2.2701  1.4655
 7539TIP3   OH244031   6.431   0.944   0.980  0.2313 -0.0398  0.0159
 7539TIP3    H144032   6.513   0.990   0.964  0.4517 -0.5794 -0.3941
 7539TIP3    H244033   6.369   0.983   0.918  0.1833  0.3279  0.2881
 7540TIP3   OH244034   0.894   2.342  16.720 -0.1626  0.4485 -0.1342
 7540TIP3    H144035   0.857   2.396  16.790  1.0057 -0.5012  1.2356
 7540TIP3    H244036   0.858   2.255  16.735  0.4868  0.1296 -0.4084
 7541TIP3   OH244037   1.728   2.909  14.864 -0.3111 -0.1975 -0.4917
 7541TIP3    H144038   1.772   2.876  14.786 -0.5365 -0.3538 -0.5536
 7541TIP3    H244039   1.636   2.889  14.850 -0.3665 -0.1254 -0.2349
 7542TIP3   OH244040   4.850   6.750  12.600 -0.3606 -0.5778  0.0953
 7542TIP3    H144041   4.900   6.692  12.543  0.3446  0.6906 -0.6029
 7542TIP3    H244042   4.760   6.717  12.596 -0.5223  0.0314 -2.5251
 7543TIP3   OH244043   0.523   0.638  13.398 -0.1007 -0.0182 -0.8233
 7543TIP3    H144044   0.456   0.588  13.351 -1.3886  0.3655  0.5664
 7543TIP3    H244045   0.493   0.729  13.391  1.0253  0.3105 -1.3978
 7544TIP3   OH244046   0.902   5.177   2.476  0.4652 -0.4984  0.7657
 7544TIP3    H144047   0.981   5.130   2.503  0.1289 -0.4850  1.8197
 7544TIP3    H244048   0.859   5.119   2.414  1.7273 -0.1452 -0.4654
 7545TIP3   OH244049   3.743   0.672  14.437 -0.4061 -0.0732  0.4220
 7545TIP3    H144050   3.756   0.582  14.467 -1.5129  0.5305  2.7944
 7545TIP3    H244051   3.780   0.726  14.507 -0.9109  1.3338 -0.3805
 7546TIP3   OH244052   1.590   5.334   1.153  0.1991  0.2828  0.5709
 7546TIP3    H144053   1.634   5.287   1.223  0.1700 -1.1072 -0.3144
 7546TIP3    H244054   1.655   5.339   1.083  0.0891  1.2697  0.5352
 7547TIP3   OH244055   2.271   5.127   5.075 -0.1247  0.5968  0.0983
 7547TIP3    H144056   2.320   5.046   5.085  0.1442  0.6559 -0.6587
 7547TIP3    H244057   2.311   5.169   4.999 -0.8372  1.0219 -0.0431
 7548TIP3   OH244058   5.921   0.999  17.027 -0.0176  0.4681 -0.0754
 7548TIP3    H144059   5.924   0.949  17.108 -0.5895  2.2323  1.0670
 7548TIP3    H244060   6.012   1.023  17.009 -0.0456  1.2714  0.8241
 7549TIP3   OH244061   4.484   4.074  14.796  0.0953  0.5222  0.3182
 7549TIP3    H144062   4.463   4.021  14.873  0.5440 -0.7187 -0.4071
 7549TIP3    H244063   4.535   4.148  14.831  0.7000 -0.2828  1.1559
 7550TIP3   OH244064   2.999   5.002   2.361  0.0566  0.2966  0.0184
 7550TIP3    H144065   2.972   4.917   2.326  0.6993  0.8910 -1.9955
 7550TIP3    H244066   3.093   5.005   2.346  0.3728  0.5191  1.9750
 7551TIP3   OH244067   0.182   4.605   2.984  0.4623 -0.7074 -0.0387
 7551TIP3    H144068   0.117   4.665   3.019  2.1814  1.1581  0.0366
 7551TIP3    H244069   0.161   4.521   3.025 -0.2812  0.4449  2.0142
 7552TIP3   OH244070   0.531   3.978   4.460  0.1395  0.5974  0.3641
 7552TIP3    H144071   0.540   3.901   4.403 -0.7359  0.0097  0.9973
 7552TIP3    H244072   0.605   3.972   4.520  0.0218  0.2003  0.4691
 7553TIP3   OH244073   0.256   3.595  14.427 -0.2397  0.7766  0.6726
 7553TIP3    H144074   0.233   3.571  14.337 -1.3675 -1.6532  1.5630
 7553TIP3    H244075   0.187   3.656  14.453  0.9881  2.7723 -0.6207
 7554TIP3   OH244076   4.640   1.096   6.428 -0.2701  0.6767 -0.1500
 7554TIP3    H144077   4.615   1.177   6.473 -0.4868 -0.8297  2.5078
 7554TIP3    H244078   4.561   1.068   6.382 -0.9497  0.5985  1.0574
 7555TIP3   OH244079   6.682   1.026  12.826  0.8346  0.4648  0.6779
 7555TIP3    H144080   6.760   1.081  12.825  0.9543  0.3001 -1.5400
 7555TIP3    H244081   6.707   0.947  12.778 -1.1765  1.1626 -1.6301
 7556TIP3   OH244082   5.491   3.692   1.360 -0.2469 -0.4026  0.1592
 7556TIP3    H144083   5.537   3.681   1.444  0.5079  2.0293  0.1124
 7556TIP3    H244084   5.432   3.766   1.374 -1.1991 -0.9204 -1.0237
 7557TIP3   OH244085   4.073   0.962  17.219  0.2799  0.1640 -0.1908
 7557TIP3    H144086   4.090   0.936  17.309 -0.4465  1.2013  0.2705
 7557TIP3    H244087   4.108   1.051  17.213 -0.7915  0.5808 -0.5461
 7558TIP3   OH244088   6.280   3.428  12.625 -0.7859  0.1775 -0.6583
 7558TIP3    H144089   6.246   3.517  12.618  0.1683  0.6570  0.8200
 7558TIP3    H244090   6.311   3.420  12.715 -0.1582 -1.4047 -0.9919
 7559TIP3   OH244091   1.686   0.612  14.155  0.0049 -0.6494  0.5523
 7559TIP3    H144092   1.757   0.675  14.163 -0.3469  0.1186 -2.0392
 7559TIP3    H244093   1.609   0.659  14.185 -0.3389  0.3770 -1.8078
 7560TIP3   OH244094   3.437   0.098   4.815  0.1119  0.3189 -0.5877
 7560TIP3    H144095   3.486   0.088   4.897  1.2359 -0.3831 -1.3330
 7560TIP3    H244096   3.392   0.014   4.803 -0.7336  0.7154 -0.2696
 7561TIP3   OH244097   1.478   0.532   5.504 -0.3835 -0.0252 -0.4864
 7561TIP3    H144098   1.554   0.475   5.516  0.1746  0.9844  0.9037
 7561TIP3    H244099   1.430   0.525   5.587 -2.3903 -1.4566 -1.7138
 7562TIP3   OH244100   3.235   5.207   0.383 -0.4055 -0.1861 -0.2532
 7562TIP3    H144101   3.304   5.270   0.404 -2.3423  2.0570 -0.4352
 7562TIP3    H244102   3.158   5.240   0.430 -1.3146 -2.7832  0.1536
 7563TIP3   OH244103   2.950   5.201  14.241 -0.5476 -0.2174 -0.0316
 7563TIP3    H144104   3.034   5.212  14.197 -0.9103  1.3895 -0.3483
 7563TIP3    H244105   2.927   5.289  14.272 -1.3958 -0.9109  1.3525
 7564TIP3   OH244106   0.963   0.838  15.153 -0.2297  0.2714 -0.5993
 7564TIP3    H144107   1.030   0.827  15.086  1.6292 -1.5550  1.4557
 7564TIP3    H244108   1.002   0.799  15.232 -1.7248  3.6579  1.9446
 7565TIP3   OH244109   0.473   0.527   6.180 -0.0337 -0.6286 -0.1218
 7565TIP3    H144110   0.479   0.568   6.094  1.4817  2.1962  1.2438
 7565TIP3    H244111   0.382   0.537   6.206  0.7376  4.1204  1.1386
 7566TIP3   OH244112   0.644   3.291  12.442  0.0726 -0.4164  0.0929
 7566TIP3    H144113   0.689   3.262  12.363  1.0457 -1.8362  1.1485
 7566TIP3    H244114   0.571   3.230  12.452  0.2199 -0.5280  0.5272
 7567TIP3   OH244115   2.182   1.246   5.360 -0.0843 -0.3342  0.0488
 7567TIP3    H144116   2.249   1.181   5.338 -0.6456 -0.6255 -0.8378
 7567TIP3    H244117   2.178   1.303   5.284 -0.0730  0.3419  0.5491
 7568TIP3   OH244118   2.690   0.574   4.070 -0.1093  0.5078 -0.4132
 7568TIP3    H144119   2.776   0.617   4.063 -0.2440  0.7797 -0.4056
 7568TIP3    H244120   2.662   0.562   3.980 -0.2049  0.7043 -0.4097
 7569TIP3   OH244121   1.351   5.651   0.532 -0.5193 -0.0038 -0.2556
 7569TIP3    H144122   1.398   5.572   0.562  0.4201 -0.7530 -3.4833
 7569TIP3    H244123   1.286   5.618   0.470 -0.3280  1.7317 -1.4133
 7570TIP3   OH244124   2.409   2.462   1.822  0.2320  0.1776 -0.0240
 7570TIP3    H144125   2.359   2.406   1.882  1.4692  0.7952  1.6311
 7570TIP3    H244126   2.363   2.546   1.824 -0.0151  0.0481 -0.3217
 7571TIP3   OH244127   0.148   5.916  11.396  0.4952 -0.0099 -0.5251
 7571TIP3    H144128   0.157   5.989  11.335 -0.6024 -0.6611 -1.4760
 7571TIP3    H244129   0.163   5.955  11.482  1.2048  1.0782 -1.1270
 7572TIP3   OH244130   5.830   3.661   0.875 -0.5619  0.0739 -0.7109
 7572TIP3    H144131   5.857   3.752   0.862  2.0543 -0.5244  0.1328
 7572TIP3    H244132   5.766   3.665   0.946  0.4062  1.1549  0.1275
 7573TIP3   OH244133   3.423   5.336   2.183  0.0104 -0.3875 -0.5580
 7573TIP3    H144134   3.500   5.280   2.182  2.0953  2.3861  0.0096
 7573TIP3    H244135   3.392   5.337   2.092 -0.2288 -2.6189 -0.5181
 7574TIP3   OH244136   5.684   0.422  10.845 -0.3733  0.9292 -0.0445
 7574TIP3    H144137   5.701   0.463  10.760 -0.9577  0.3331 -0.4545
 7574TIP3    H244138   5.665   0.495  10.903 -3.3557  1.1586 -1.2151
 7575TIP3   OH244139   5.627   6.746  17.217 -0.4602 -0.1708  0.2731
 7575TIP3    H144140   5.632   6.749  17.312 -0.8088  0.9492  0.2660
 7575TIP3    H244141   5.602   6.834  17.191  2.0435  0.2276 -1.0123
 7576TIP3   OH244142   5.120   2.761  12.110 -0.3022  0.1011  0.1160
 7576TIP3    H144143   5.153   2.691  12.166  0.0192 -0.3287 -0.6042
 7576TIP3    H244144   5.050   2.720  12.058 -0.3271  0.3938 -0.0839
 7577TIP3   OH244145   2.512   0.139  16.578 -0.4972  0.1300  0.9068
 7577TIP3    H144146   2.430   0.090  16.568 -1.0894  1.2977 -0.0758
 7577TIP3    H244147   2.509   0.172  16.668  0.2623 -2.2278  1.8487
 7578TIP3   OH244148   3.204   2.238  15.338 -0.4680  0.2547 -0.2754
 7578TIP3    H144149   3.177   2.230  15.430  0.3993  0.9594  0.0517
 7578TIP3    H244150   3.256   2.160  15.321 -0.4196  0.2471 -0.0940
 7579TIP3   OH244151   3.837   4.198  12.382 -0.3375 -0.2107  0.2045
 7579TIP3    H144152   3.842   4.230  12.292 -0.3515 -0.4685  0.1115
 7579TIP3    H244153   3.928   4.183  12.408 -0.3593 -0.6087  0.0611
 7580TIP3   OH244154   4.039   3.626   2.334 -0.2222  0.3997  0.5009
 7580TIP3    H144155   4.060   3.596   2.423  3.3043 -0.1463 -0.4208
 7580TIP3    H244156   4.077   3.714   2.329 -0.1834  0.3310 -0.5272
 7581TIP3   OH244157   1.956   2.165  12.333 -0.0031 -0.6876 -0.2662
 7581TIP3    H144158   1.921   2.110  12.262 -0.4109 -1.2691  0.3673
 7581TIP3    H244159   2.004   2.234  12.289 -0.9794 -0.5490 -1.1428
 7582TIP3   OH244160   5.327   5.393   4.536 -0.2294 -0.0245 -0.3249
 7582TIP3    H144161   5.290   5.314   4.576  0.1265  1.2182  2.5211
 7582TIP3    H244162   5.264   5.462   4.556  2.2746  1.6019  2.4031
 7583TIP3   OH244163   5.999   1.158  16.098 -0.0027  0.3337 -0.6314
 7583TIP3    H144164   5.948   1.230  16.060 -1.3630 -0.0234  0.4599
 7583TIP3    H244165   5.933   1.104  16.142  1.1320 -1.0761 -0.6572
 7584TIP3   OH244166   3.606   3.673  16.251 -0.1379 -0.3551  0.2147
 7584TIP3    H144167   3.658   3.606  16.208 -0.8701  0.4213 -1.9834
 7584TIP3    H244168   3.670   3.729  16.295  0.6519 -1.0307 -0.0651
 7585TIP3   OH244169   2.143   3.107  16.031 -0.1484 -0.0095  0.5957
 7585TIP3    H144170   2.219   3.136  15.981 -0.9685  0.9321 -0.1440
 7585TIP3    H244171   2.125   3.019  15.999  0.6137 -0.2338  0.7691
 7586TIP3   OH244172   5.449   0.643  11.959  0.5092 -0.0058  0.0281
 7586TIP3    H144173   5.358   0.621  11.975  0.4109 -1.5127 -2.3613
 7586TIP3    H244174   5.498   0.587  12.020 -0.0100 -2.4539 -1.7320
 7587TIP3   OH244175   6.337   3.438   2.790 -0.0263  0.4371  0.4447
 7587TIP3    H144176   6.363   3.479   2.873 -0.3327 -1.4121  1.5013
 7587TIP3    H244177   6.419   3.406   2.753  0.2636  2.2973 -0.5746
 7588TIP3   OH244178   0.588   0.939   0.671 -0.1707  0.8452 -0.3324
 7588TIP3    H144179   0.620   1.019   0.630  0.0697  0.2500 -1.3104
 7588TIP3    H244180   0.497   0.959   0.694  0.1977  1.7507  0.3868
 7589TIP3   OH244181   2.654   2.346   0.433  0.0809 -0.5708 -0.4085
 7589TIP3    H144182   2.704   2.275   0.474  1.0297 -0.4782 -1.3784
 7589TIP3    H244183   2.635   2.406   0.505  1.9237 -0.3016 -0.1009
 7590TIP3   OH244184   0.474   2.597  17.112 -0.2784  0.4789 -0.5546
 7590TIP3    H144185   0.439   2.508  17.121 -0.4896  0.7722  1.7303
 7590TIP3    H244186   0.397   2.654  17.114 -0.0920  0.7806 -1.4112
 7591TIP3   OH244187   3.258   1.114   5.132  0.0962 -0.2390 -0.6115
 7591TIP3    H144188   3.248   1.097   5.038 -0.7488 -1.1105 -0.3869
 7591TIP3    H244189   3.180   1.073   5.171  0.0942  0.7076  0.3989
 7592TIP3   OH244190   1.696   1.022   2.165  0.4512 -0.1595  0.2243
 7592TIP3    H144191   1.634   0.973   2.111  1.3661  0.2159 -1.1772
 7592TIP3    H244192   1.782   0.984   2.145  1.0084  1.1020  0.1375
 7593TIP3   OH244193   1.861   1.211  15.881  0.4187  0.1111  0.0012
 7593TIP3    H144194   1.853   1.303  15.907 -1.9852  0.2129 -0.9087
 7593TIP3    H244195   1.874   1.214  15.786 -1.0627 -0.5003 -0.2349
 7594TIP3   OH244196   5.777   2.674   5.810 -0.2568 -0.1238 -0.2817
 7594TIP3    H144197   5.829   2.614   5.757 -0.5824  0.1052 -0.8681
 7594TIP3    H244198   5.696   2.625   5.829  0.2185 -0.5397  0.7619
 7595TIP3   OH244199   0.183   2.286   4.238  0.3074 -0.3847  0.9707
 7595TIP3    H144200   0.143   2.259   4.321  0.2703  1.0058  1.4243
 7595TIP3    H244201   0.113   2.279   4.174 -0.6065  1.6329  1.6823
 7596TIP3   OH244202   5.237   2.250   6.100 -0.3263  0.2943  0.5435
 7596TIP3    H144203   5.269   2.268   6.189 -1.3952 -0.3505  1.0625
 7596TIP3    H244204   5.315   2.257   6.045  0.7152 -1.2871  1.7892
 7597TIP3   OH244205   1.782   0.597   1.000  0.3446 -0.2247  0.3594
 7597TIP3    H144206   1.856   0.584   1.059 -0.3940  0.7175  1.5019
 7597TIP3    H244207   1.719   0.649   1.050 -1.1706 -1.1274 -0.5424
 7598TIP3   OH244208   4.510   2.694  12.337  0.0881  0.3790 -0.4367
 7598TIP3    H144209   4.508   2.632  12.410 -1.1187  0.5315 -0.3334
 7598TIP3    H244210   4.418   2.710  12.316  0.3787  2.0293 -0.5536
 7599TIP3   OH244211   4.605   3.295   4.111  0.5520  0.0442  0.7548
 7599TIP3    H144212   4.609   3.200   4.100 -1.2589 -0.1536  1.4900
 7599TIP3    H244213   4.691   3.320   4.143  1.3766 -1.2058 -0.4593
 7600TIP3   OH244214   4.875   6.490   4.159 -0.5887  0.3573 -0.0027
 7600TIP3    H144215   4.877   6.567   4.102 -0.0979  0.8767  0.7120
 7600TIP3    H244216   4.858   6.417   4.099  1.1176  0.7367 -1.0158
 7601TIP3   OH244217   5.904   5.426   1.004 -0.1664  0.2074  0.8238
 7601TIP3    H144218   5.912   5.401   0.912  2.6619  1.7254  0.5868
 7601TIP3    H244219   5.925   5.347   1.053 -0.9847 -0.4217  0.1694
 7602TIP3   OH244220   0.627   3.158   4.688  0.4760  0.1267  0.2540
 7602TIP3    H144221   0.557   3.211   4.650 -0.1057 -0.1383  0.9591
 7602TIP3    H244222   0.687   3.223   4.726  0.5972  0.3513 -0.3224
 7603TIP3   OH244223   1.818   2.664  15.597  1.2020  0.1021 -0.2435
 7603TIP3    H144224   1.739   2.691  15.550  1.5597 -0.0103 -0.9190
 7603TIP3    H244225   1.833   2.573  15.570  1.5361  0.1064 -0.0874
 7604TIP3   OH244226   4.675   0.915   2.877  0.0003  0.0564  0.3312
 7604TIP3    H144227   4.587   0.940   2.903 -0.1347 -0.0673 -0.0019
 7604TIP3    H244228   4.686   0.826   2.910  0.5797  0.6410  1.7534
 7605TIP3   OH244229   2.597   2.644   6.389  0.1742 -0.1395 -0.4723
 7605TIP3    H144230   2.503   2.646   6.370  0.2685 -0.7489 -1.0021
 7605TIP3    H244231   2.630   2.570   6.339  1.0114  0.3139 -0.5904
 7606TIP3   OH244232   5.782   0.545  12.997 -0.1489 -0.3811  0.1442
 7606TIP3    H144233   5.835   0.573  12.923  1.4202  0.3629  1.5047
 7606TIP3    H244234   5.832   0.474  13.037 -0.9110 -0.6879  0.5738
 7607TIP3   OH244235   5.210   0.001   1.404 -0.1290 -0.5159 -0.1375
 7607TIP3    H144236   5.181   0.013   1.313  2.2074 -0.2669 -0.8887
 7607TIP3    H244237   5.197   0.087   1.444  1.2303  0.1092 -0.9796
 7608TIP3   OH244238   3.849   1.697  13.598  0.2493  0.2557 -0.2746
 7608TIP3    H144239   3.768   1.711  13.647  0.6451  0.1798  0.4093
 7608TIP3    H244240   3.870   1.782  13.560 -0.0603  0.3191 -0.2999
 7609TIP3   OH244241   1.259   4.267   4.409 -0.6053 -0.2870 -0.1485
 7609TIP3    H144242   1.321   4.233   4.344 -1.1614 -0.5968 -0.5134
 7609TIP3    H244243   1.284   4.358   4.420  0.2769 -0.5519  0.1180
 7610TIP3   OH244244   4.299   2.551   2.930  0.4886 -0.2397  0.3674
 7610TIP3    H144245   4.313   2.572   2.838  0.4805 -1.6856  0.0105
 7610TIP3    H244246   4.366   2.600   2.977  0.9648 -0.0684 -0.4821
 7611TIP3   OH244247   3.158   5.389  12.573 -0.9278  0.2382  0.3517
 7611TIP3    H144248   3.092   5.376  12.505 -1.2847 -0.0168  0.7469
 7611TIP3    H244249   3.227   5.439  12.530 -1.1721  0.1137 -0.1868
 7612TIP3   OH244250   6.013   3.345   4.386 -0.0761  0.4949 -0.0392
 7612TIP3    H144251   6.090   3.401   4.395 -0.8169  1.6555 -0.7136
 7612TIP3    H244252   5.976   3.370   4.301 -1.0008 -0.3011  0.1217
 7613TIP3   OH244253   2.972   6.528   2.034  0.2664 -0.1803  0.4604
 7613TIP3    H144254   3.027   6.606   2.040  0.3189 -0.2385  0.7540
 7613TIP3    H244255   2.961   6.499   2.125  1.1654 -1.1535  0.2614
 7614TIP3   OH244256   4.576   6.625  13.375  0.3885  0.5759 -0.1921
 7614TIP3    H144257   4.613   6.600  13.291 -0.6032  0.2584 -0.5452
 7614TIP3    H244258   4.619   6.707  13.398  2.5310 -0.6387  0.2154
 7615TIP3   OH244259   1.279   3.468   2.578  0.3393  0.7297 -0.4344
 7615TIP3    H144260   1.254   3.383   2.613  2.4046  0.9927  1.8274
 7615TIP3    H244261   1.240   3.531   2.638  1.1269  1.2843 -0.4981
 7616TIP3   OH244262   3.209   0.399  13.429  0.3941  0.2476 -0.2960
 7616TIP3    H144263   3.247   0.319  13.466  0.8594  0.3996 -0.4417
 7616TIP3    H244264   3.165   0.440  13.504  0.3439 -0.0302 -0.1703
 7617TIP3   OH244265   4.786   3.826  13.025  0.2711  0.3667  0.5780
 7617TIP3    H144266   4.826   3.741  13.039 -1.1504 -0.4888 -0.3996
 7617TIP3    H244267   4.831   3.863  12.949  0.0084 -0.0962  0.1939
 7618TIP3   OH244268   0.336   0.661  16.517  0.1694  0.1098  1.0546
 7618TIP3    H144269   0.242   0.666  16.503  0.3893  1.6920  0.0460
 7618TIP3    H244270   0.358   0.739  16.568  0.8626 -0.4952  1.6983
 7619TIP3   OH244271   5.764   1.949   5.947  0.2660 -0.0198 -0.6771
 7619TIP3    H144272   5.825   1.916   5.881 -0.8779 -2.8276 -0.3830
 7619TIP3    H244273   5.814   1.949   6.028  0.1411 -1.5572 -0.5879
 7620TIP3   OH244274   4.015   6.470   1.934  0.5093  0.0265 -0.2448
 7620TIP3    H144275   4.099   6.484   1.891  0.6211  0.9902  0.2742
 7620TIP3    H244276   3.951   6.472   1.863  0.9367 -0.8819 -0.6601
 7621TIP3   OH244277   4.365   3.407   1.192 -0.1858  0.3678  0.8227
 7621TIP3    H144278   4.425   3.460   1.140  2.7080 -0.4794  3.1261
 7621TIP3    H244279   4.280   3.451   1.185  0.5753  1.3360 -2.9158
 7622TIP3   OH244280   3.728   6.020  14.447  0.2333  0.0369 -0.8028
 7622TIP3    H144281   3.686   5.977  14.372  1.2747 -1.0743 -0.7535
 7622TIP3    H244282   3.743   5.950  14.510  0.9968  0.6510 -0.2910
 7623TIP3   OH244283   0.987   3.088  14.250 -0.2547 -0.2416  0.0625
 7623TIP3    H144284   0.917   3.104  14.314  0.6580  2.6155  0.4487
 7623TIP3    H244285   1.067   3.111  14.297  0.6467 -0.3330 -1.4070
 7624TIP3   OH244286   2.988   2.798   4.027 -0.4071 -0.1333 -0.5023
 7624TIP3    H144287   2.892   2.805   4.028 -0.2838  1.7284 -0.9341
 7624TIP3    H244288   3.012   2.794   4.120 -0.8537 -0.0864 -0.3819
 7625TIP3   OH244289   0.647   0.614   1.955 -0.3442 -0.0878  0.5767
 7625TIP3    H144290   0.606   0.649   2.034 -1.0936  0.0655  0.1364
 7625TIP3    H244291   0.719   0.560   1.986 -0.9237 -0.4095  1.3812
 7626TIP3   OH244292   0.438   3.328  17.088  0.0330 -0.0018  0.1763
 7626TIP3    H144293   0.393   3.328  17.003  0.3660  0.3896 -0.0049
 7626TIP3    H244294   0.391   3.393  17.140 -0.3679 -0.4690  0.4006
 7627TIP3   OH244295   5.767   3.636   1.314  0.2411 -0.2651 -0.7651
 7627TIP3    H144296   5.819   3.702   1.269 -2.2646  1.0592 -1.8206
 7627TIP3    H244297   5.676   3.663   1.300 -0.7148 -1.5862  2.3833
 7628TIP3   OH244298   1.955   0.031   3.378  0.3367 -0.4739  0.4528
 7628TIP3    H144299   1.887  -0.013   3.327 -1.8309  2.8707  0.3083
 7628TIP3    H244300   1.925   0.025   3.469 -0.2601  1.0439  0.3840
 7629TIP3   OH244301   0.635   4.704  17.218 -0.3217  0.2611 -0.5157
 7629TIP3    H144302   0.551   4.676  17.180 -0.8589 -1.6744  1.9973
 7629TIP3    H244303   0.611   4.768  17.285  0.1914 -0.4179  0.3211
 7630TIP3   OH244304   4.430   5.383  14.766 -0.0994  0.6107 -0.9902
 7630TIP3    H144305   4.502   5.335  14.725  0.9409  1.1847  0.1576
 7630TIP3    H244306   4.391   5.433  14.694  1.1485  0.9289 -1.4652
 7631TIP3   OH244307   2.519   1.433   2.187  0.6619  0.5140 -0.7619
 7631TIP3    H144308   2.519   1.524   2.216  2.0996  1.1772 -2.7775
 7631TIP3    H244309   2.560   1.385   2.260  0.3449  1.5350  0.0994
 7632TIP3   OH244310   3.396   0.297  16.322 -0.0167 -0.8462  0.2859
 7632TIP3    H144311   3.393   0.364  16.391 -1.4514 -2.0120  1.3721
 7632TIP3    H244312   3.363   0.342  16.244 -0.3774 -0.1080  0.8548
 7633TIP3   OH244313   2.644   2.595   2.347  0.0983 -0.6376 -0.2741
 7633TIP3    H144314   2.668   2.682   2.379 -1.7829 -0.3381  0.3772
 7633TIP3    H244315   2.621   2.546   2.426 -2.9941 -0.3906 -0.9561
 7634TIP3   OH244316   1.629   2.012   0.288  0.4492 -0.4957  0.0068
 7634TIP3    H144317   1.675   1.932   0.264  0.3152 -0.5828  0.0352
 7634TIP3    H244318   1.633   2.066   0.209  0.5956 -0.5043  0.0084
 7635TIP3   OH244319   0.757   0.839   4.667 -0.1493 -0.3581 -0.1049
 7635TIP3    H144320   0.746   0.913   4.607 -1.7218 -0.5926 -0.1364
 7635TIP3    H244321   0.822   0.868   4.730  0.6897  0.3153 -1.2749
 7636TIP3   OH244322   1.756   3.734  16.584 -0.3693  0.5346 -0.8276
 7636TIP3    H144323   1.686   3.771  16.638 -0.9704  1.2622 -2.1013
 7636TIP3    H244324   1.789   3.660  16.636 -3.5133 -1.1878 -1.1448
 7637TIP3   OH244325   4.099   1.979   2.438  0.2237  0.2859  0.0859
 7637TIP3    H144326   4.157   2.047   2.404  0.3239  0.3655  0.4187
 7637TIP3    H244327   4.072   2.011   2.524  2.8003 -1.5698  1.6412
 7638TIP3   OH244328   0.338   2.457  16.306  0.0706 -0.8514  0.0881
 7638TIP3    H144329   0.430   2.484  16.298 -0.4468  1.2097  0.8315
 7638TIP3    H244330   0.343   2.374  16.354  1.4653  0.0770  1.6252
 7639TIP3   OH244331   2.521   4.811   0.849 -0.4630 -0.1009 -0.5280
 7639TIP3    H144332   2.542   4.903   0.863 -0.7492 -0.4548  2.3717
 7639TIP3    H244333   2.606   4.767   0.844 -0.3624 -0.0157  0.4586
 7640TIP3   OH244334   2.828   2.279  14.019 -0.2815  0.3274  0.0843
 7640TIP3    H144335   2.868   2.261  14.104  1.5569  3.3403 -0.0299
 7640TIP3    H244336   2.883   2.232  13.956  2.8627  3.8728 -0.0026
 7641TIP3   OH244337   6.760   4.182  16.555  0.0817 -0.4546  0.5123
 7641TIP3    H144338   6.766   4.209  16.463 -0.4156 -0.2311  0.5438
 7641TIP3    H244339   6.731   4.261  16.600 -0.1213 -0.6948  0.7960
 7642TIP3   OH244340   5.280   4.726  15.598  0.2759  0.0377  0.4374
 7642TIP3    H144341   5.221   4.656  15.569  2.1622 -1.1145 -0.7181
 7642TIP3    H244342   5.332   4.686  15.667  1.6750  0.1545 -0.5328
 7643TIP3   OH244343   4.952   2.648  12.493 -0.1032  0.2849  0.6563
 7643TIP3    H144344   4.918   2.563  12.521  1.6005 -0.6970 -0.1563
 7643TIP3    H244345   5.047   2.637  12.492  0.0570  1.3960 -1.8784
 7644TIP3   OH244346   5.868   2.897  11.767 -0.7232 -0.1314  0.2292
 7644TIP3    H144347   5.823   2.821  11.733  0.0238 -0.4035 -0.1581
 7644TIP3    H244348   5.866   2.961  11.696  0.2149 -0.4419 -0.0775
 7645TIP3   OH244349   1.592   6.541  16.124 -0.3217 -0.2787 -0.5466
 7645TIP3    H144350   1.517   6.586  16.084 -0.2884  0.1328 -0.1596
 7645TIP3    H244351   1.662   6.607  16.124  0.1917 -0.8162 -1.3473
 7646TIP3   OH244352   4.087   3.166  14.727  0.0337  0.2828  0.3369
 7646TIP3    H144353   4.068   3.227  14.657  0.6003  0.3164  0.2087
 7646TIP3    H244354   4.123   3.089  14.683 -1.4905 -0.4895  0.4185
 7647TIP3   OH244355   5.610   5.134  16.920 -0.7033 -0.1528 -0.2944
 7647TIP3    H144356   5.642   5.219  16.950  1.0934 -0.1956 -1.9901
 7647TIP3    H244357   5.584   5.149  16.829 -1.4539 -1.1486 -0.2510
 7648TIP3   OH244358   0.443   5.048   5.400 -0.1120 -0.1414  0.3821
 7648TIP3    H144359   0.403   4.969   5.437 -2.0139  0.4407 -0.3830
 7648TIP3    H244360   0.478   5.094   5.476  0.0305 -1.1778  0.9609
 7649TIP3   OH244361   6.735   5.000   4.884 -0.2044 -0.3105  0.0935
 7649TIP3    H144362   6.785   4.987   4.964 -0.7805  0.4193  0.5852
 7649TIP3    H244363   6.798   4.986   4.814  0.8213  1.0640  0.7019
 7650TIP3   OH244364   4.075   2.062   4.336 -0.0142  0.2309 -0.0301
 7650TIP3    H144365   4.139   2.006   4.292  1.6777  0.3383  2.2005
 7650TIP3    H244366   4.074   2.142   4.285 -1.3032 -1.1876 -2.3418
 7651TIP3   OH244367   5.513   1.760   0.382 -0.0563 -0.4217 -0.2865
 7651TIP3    H144368   5.541   1.829   0.442  1.5459 -0.5109 -0.9130
 7651TIP3    H244369   5.483   1.807   0.304 -0.9771 -0.3569  0.1008
 7652TIP3   OH244370   3.547   6.126   5.538  0.3315  0.2187 -0.1892
 7652TIP3    H144371   3.590   6.126   5.624 -0.4753 -0.0614  0.2259
 7652TIP3    H244372   3.559   6.216   5.506 -0.5368  0.7169  0.8291
 7653TIP3   OH244373   4.375   3.143  13.757  0.2968 -0.0689 -0.1941
 7653TIP3    H144374   4.466   3.125  13.733  0.1078 -2.0831  0.5219
 7653TIP3    H244375   4.376   3.143  13.853 -0.4997 -0.3056 -0.1848
 7654TIP3   OH244376   2.907   4.098   4.042  0.0888  0.3218 -0.0784
 7654TIP3    H144377   2.930   4.105   4.134 -2.5265  1.6990  0.5099
 7654TIP3    H244378   2.989   4.073   3.999  0.5990 -4.1079  3.0599
 7655TIP3   OH244379   1.330   2.867   2.980  1.1134 -0.1525  0.4002
 7655TIP3    H144380   1.244   2.840   3.010  0.4866  0.5801 -0.7205
 7655TIP3    H244381   1.334   2.961   2.996  1.9398 -0.2852  1.0116
 7656TIP3   OH244382   2.396   5.104  11.140 -0.1050  0.1216 -0.3164
 7656TIP3    H144383   2.332   5.062  11.196  1.4572  0.5029  1.8124
 7656TIP3    H244384   2.439   5.032  11.093 -1.1996 -0.2175 -0.8030
 7657TIP3   OH244385   6.586   5.531   2.290 -0.1901 -0.2039  0.0647
 7657TIP3    H144386   6.502   5.568   2.261  0.0315  0.5145  0.3237
 7657TIP3    H244387   6.629   5.603   2.336  0.1301 -0.8830  0.8258
 7658TIP3   OH244388   2.608   0.468   2.703 -0.8971  0.6267  0.2095
 7658TIP3    H144389   2.514   0.486   2.700 -0.5417  2.5028 -0.9177
 7658TIP3    H244390   2.642   0.531   2.767 -0.7587 -1.9446  2.7621
 7659TIP3   OH244391   5.767   6.419  11.729  0.6878  0.0695  1.0878
 7659TIP3    H144392   5.749   6.330  11.759  1.0824  0.5065  2.6941
 7659TIP3    H244393   5.833   6.408  11.661 -0.5493 -0.9916  0.0281
 7660TIP3   OH244394   6.734   2.066  16.159 -0.1167  0.2244  0.1738
 7660TIP3    H144395   6.757   2.053  16.251  0.7900  0.3337 -0.0394
 7660TIP3    H244396   6.734   1.979  16.121 -0.3000  0.2002  0.2283
 7661TIP3   OH244397   6.049   1.538   3.833  0.1308 -0.4256 -0.1282
 7661TIP3    H144398   6.086   1.619   3.797 -0.6752  1.1194  2.3737
 7661TIP3    H244399   6.062   1.473   3.764  0.0248  2.0160 -2.5551
 7662TIP3   OH244400   3.587   4.199  15.729 -0.3452 -0.1273  0.3044
 7662TIP3    H144401   3.540   4.260  15.786  1.8521  1.4246  0.5164
 7662TIP3    H244402   3.611   4.251  15.653  0.3191 -1.1153 -0.1677
 7663TIP3   OH244403   4.965   6.684  17.193 -0.4535 -0.2903  0.3180
 7663TIP3    H144404   4.918   6.620  17.247 -0.6173 -2.3567 -2.1735
 7663TIP3    H244405   4.896   6.735  17.150 -0.3813 -0.8084 -0.4233
 7664TIP3   OH244406   4.966   6.607   3.552 -0.3459  0.6675  0.4339
 7664TIP3    H144407   5.039   6.620   3.612  1.6366  0.0478 -1.7990
 7664TIP3    H244408   4.951   6.512   3.552  0.8110  0.4643 -1.3389
 7665TIP3   OH244409   5.341   1.890   5.752 -0.0950 -0.4140 -0.1220
 7665TIP3    H144410   5.399   1.960   5.780  0.6931 -1.2952  0.4947
 7665TIP3    H244411   5.385   1.849   5.678 -0.2015 -0.7020 -0.0315
 7666TIP3   OH244412   6.490   5.846   3.845 -0.0721  0.2655  0.0396
 7666TIP3    H144413   6.533   5.913   3.897 -1.8143  0.1013  1.7612
 7666TIP3    H244414   6.432   5.895   3.787 -0.6206  0.3020  0.6145
 7667TIP3   OH244415   1.076   4.706   0.902  0.1426  0.2901  0.1167
 7667TIP3    H144416   1.062   4.612   0.910  0.1254  0.1740 -1.1907
 7667TIP3    H244417   1.168   4.715   0.875  0.7800  0.7595  2.3208
 7668TIP3   OH244418   5.969   4.687  15.682  0.8259 -0.3732 -0.6636
 7668TIP3    H144419   6.004   4.650  15.600  1.2096  0.3101 -0.8037
 7668TIP3    H244420   5.880   4.715  15.658  0.8005 -0.5194 -0.7467
 7669TIP3   OH244421   1.911   1.587   2.176 -0.1523 -0.6031 -0.1035
 7669TIP3    H144422   1.903   1.566   2.083 -1.5158 -0.4159 -0.0366
 7669TIP3    H244423   1.821   1.600   2.205  0.2359 -1.1157  1.3521
 7670TIP3   OH244424   1.235   4.319  13.836  0.3989 -0.4416  0.0358
 7670TIP3    H144425   1.276   4.399  13.805  1.6213 -0.6989  0.9424
 7670TIP3    H244426   1.302   4.277  13.891 -0.3377 -1.9084 -0.1534
 7671TIP3   OH244427   3.012   1.060  13.071  0.6537 -0.5141  0.1410
 7671TIP3    H144428   2.988   1.004  12.997  0.0838  0.9378 -0.7884
 7671TIP3    H244429   2.962   1.141  13.057  1.8623  0.4304  1.1927
 7672TIP3   OH244430   0.684   0.350  13.836  0.2059  0.2370  0.5530
 7672TIP3    H144431   0.693   0.254  13.832  1.1517  0.2996  1.0110
 7672TIP3    H244432   0.597   0.364  13.873  0.1360 -0.4548  0.6626
 7673TIP3   OH244433   4.631   4.197  12.971  0.4215  0.3693  0.3857
 7673TIP3    H144434   4.666   4.183  12.883  1.8390  0.7822  0.8716
 7673TIP3    H244435   4.630   4.110  13.011 -0.8484  0.0777 -0.2512
 7674TIP3   OH244436   6.268   1.070  13.885 -0.5141 -0.0593  0.2742
 7674TIP3    H144437   6.278   1.110  13.799 -1.2035  1.0812  0.7060
 7674TIP3    H244438   6.346   1.097  13.934 -0.2170 -0.5467  0.0692
 7675TIP3   OH244439   2.352   2.104   0.481 -0.0850 -0.1515  0.0898
 7675TIP3    H144440   2.291   2.156   0.428 -0.1073  0.0927  0.3566
 7675TIP3    H244441   2.296   2.039   0.524 -0.2011  0.2661  0.5744
 7676TIP3   OH244442   6.735   3.588  13.301  0.7934 -0.5215  0.1654
 7676TIP3    H144443   6.755   3.681  13.311 -0.3045 -0.3748  1.0902
 7676TIP3    H244444   6.781   3.546  13.374 -0.2200 -0.4831  0.8283
 7677TIP3   OH244445   1.114   3.455   3.672 -0.1641 -0.2025  0.6455
 7677TIP3    H144446   1.159   3.480   3.753 -0.3623 -0.0057  0.6933
 7677TIP3    H244447   1.022   3.454   3.695 -0.2970  0.8056  0.1661
 7678TIP3   OH244448   5.394   0.951   4.768  0.0335 -0.0818 -0.1324
 7678TIP3    H144449   5.313   0.937   4.719  0.6793 -0.9383 -0.9774
 7678TIP3    H244450   5.403   1.046   4.773 -0.4056  0.0153 -1.0871
 7679TIP3   OH244451   1.590   1.430   6.511 -0.1653 -0.3485  0.0961
 7679TIP3    H144452   1.595   1.396   6.601  0.4765 -1.7879 -0.4569
 7679TIP3    H244453   1.498   1.421   6.487 -0.1892 -0.7346  0.3247
 7680TIP3   OH244454   5.743   2.237   2.488  0.3386 -0.4406 -0.2232
 7680TIP3    H144455   5.715   2.295   2.417 -0.8227 -0.5253  0.1447
 7680TIP3    H244456   5.838   2.240   2.486  0.3889 -1.8267 -2.9348
 7681TIP3   OH244457   4.109   0.405   0.628 -0.5970  0.3564 -0.5393
 7681TIP3    H144458   4.061   0.354   0.563  0.2079 -1.0322 -0.0849
 7681TIP3    H244459   4.063   0.488   0.633 -3.9702 -1.5539  1.1545
 7682TIP3   OH244460   6.311   3.586   5.412 -0.1151 -0.1754 -0.4902
 7682TIP3    H144461   6.215   3.593   5.409 -0.2009 -1.5320 -0.9936
 7682TIP3    H244462   6.330   3.553   5.500  0.0374  1.9515  0.3285
 7683TIP3   OH244463   1.596   2.688   2.323 -0.0842  0.5558 -0.1294
 7683TIP3    H144464   1.524   2.635   2.289  0.5039  0.1024 -0.6704
 7683TIP3    H244465   1.653   2.703   2.248 -0.2831  2.0378 -0.0016
 7684TIP3   OH244466   4.079   6.418  11.777 -0.0404  0.2430 -0.5458
 7684TIP3    H144467   4.057   6.350  11.714  2.8236 -1.0076 -0.2634
 7684TIP3    H244468   4.027   6.396  11.855 -1.6143  0.3056 -1.5625
 7685TIP3   OH244469   4.297   3.800  11.587  0.7636  0.1350  0.2689
 7685TIP3    H144470   4.240   3.803  11.510  0.9982 -0.3166  0.0747
 7685TIP3    H244471   4.238   3.799  11.662  0.5263  0.2717  0.0817
 7686TIP3   OH244472   2.937   5.038   3.337  0.2442  0.3234 -0.1006
 7686TIP3    H144473   3.009   5.100   3.322  0.5681 -0.4015 -1.6234
 7686TIP3    H244474   2.886   5.041   3.256 -0.1797 -0.8078  0.1192
 7687TIP3   OH244475   3.839   5.363   4.377 -0.0300 -0.4910  0.7883
 7687TIP3    H144476   3.922   5.405   4.354 -1.0563  0.6783 -0.9266
 7687TIP3    H244477   3.799   5.422   4.441 -0.6349  0.2382 -0.2400
 7688TIP3   OH244478   1.089   5.926  13.431  0.4940 -0.0565  0.2155
 7688TIP3    H144479   1.123   5.839  13.455 -0.8292 -0.3737  1.0041
 7688TIP3    H244480   1.081   5.972  13.514 -1.2051 -0.0765  0.0845
 7689TIP3   OH244481   6.227   0.363   1.720  0.1283  0.2350 -0.2064
 7689TIP3    H144482   6.165   0.290   1.721 -0.0326  0.3760  0.2934
 7689TIP3    H244483   6.198   0.420   1.792  2.3583 -0.9614  1.7010
 7690TIP3   OH244484   6.310   6.211  14.887  0.1497 -0.4010 -0.3147
 7690TIP3    H144485   6.391   6.262  14.888 -0.0757 -0.0274 -1.1259
 7690TIP3    H244486   6.255   6.253  14.821 -0.7133 -0.6419  0.2328
 7691TIP3   OH244487   5.115   1.401   4.177  0.1906 -0.3018 -0.4207
 7691TIP3    H144488   5.036   1.441   4.211 -0.2863 -0.6439 -1.0996
 7691TIP3    H244489   5.110   1.309   4.204  0.8458 -0.1110  0.3813
 7692TIP3   OH244490   0.890   0.469   6.709 -0.4164  0.5948 -0.7098
 7692TIP3    H144491   0.849   0.552   6.684 -0.3500  0.7597 -0.2739
 7692TIP3    H244492   0.817   0.410   6.727 -0.5577  1.9160  3.5956
 7693TIP3   OH244493   6.495   0.733   5.696  0.0518  0.5768 -0.0699
 7693TIP3    H144494   6.557   0.743   5.624 -0.2917  1.0107 -0.3107
 7693TIP3    H244495   6.409   0.748   5.656 -0.2409 -0.4333  0.1783
 7694TIP3   OH244496   0.469   1.170   1.916 -0.0483  0.5710 -0.4043
 7694TIP3    H144497   0.453   1.226   1.992  3.2665 -0.8508  1.4517
 7694TIP3    H244498   0.564   1.160   1.913 -0.3699 -2.7149 -2.3108
 7695TIP3   OH244499   4.857   0.232   3.433  0.4308  0.5914  0.8067
 7695TIP3    H144500   4.889   0.299   3.372 -0.8034  0.2294 -0.2530
 7695TIP3    H244501   4.908   0.154   3.412  0.0625  0.4892  0.3011
 7696TIP3   OH244502   2.597   1.664  15.963  0.0526 -1.1019 -0.2530
 7696TIP3    H144503   2.535   1.736  15.973  2.0082  0.5367  0.3651
 7696TIP3    H244504   2.589   1.637  15.872 -1.0302 -0.4088 -0.3665
 7697TIP3   OH244505   5.437   0.243   0.005  0.9771  0.3596  0.2407
 7697TIP3    H144506   5.458   0.272  -0.083 -1.0517 -0.4774 -0.5463
 7697TIP3    H244507   5.353   0.285   0.025  0.0987 -1.5858  0.7082
 7698TIP3   OH244508   5.574   2.565  16.405 -0.3868  0.5551  0.3062
 7698TIP3    H144509   5.502   2.564  16.342 -0.7955  0.3734  0.7801
 7698TIP3    H244510   5.532   2.578  16.490  0.0844 -0.0687  0.6407
 7699TIP3   OH244511   2.124   5.455   0.214 -0.1450  0.4846  0.2073
 7699TIP3    H144512   2.151   5.369   0.180  1.5919  0.4679  1.5817
 7699TIP3    H244513   2.204   5.507   0.214 -0.7572  1.4507  1.4132
 7700TIP3   OH244514   3.959   5.876   3.744  0.4250 -0.2563  0.3033
 7700TIP3    H144515   4.024   5.846   3.681 -0.6302  1.3965 -1.6340
 7700TIP3    H244516   3.915   5.796   3.773  1.8360 -1.1626 -0.0397
 7701TIP3   OH244517   3.671   0.192  16.117 -0.1442  0.1619  0.7340
 7701TIP3    H144518   3.752   0.141  16.107  0.5296  1.4085 -0.3269
 7701TIP3    H244519   3.687   0.247  16.194  0.1315  0.6090  0.3598
 7702TIP3   OH244520   6.686   5.375  11.055  0.0959  0.3204  0.0771
 7702TIP3    H144521   6.751   5.444  11.045 -1.2762  1.6092 -0.1729
 7702TIP3    H244522   6.634   5.378  10.975  0.4104 -1.4350 -0.2120
 7703TIP3   OH244523   4.593   0.932  12.582  0.3578 -0.7418 -0.2630
 7703TIP3    H144524   4.650   0.990  12.632  0.5563 -0.4839 -0.7941
 7703TIP3    H244525   4.527   0.904  12.646  1.4055 -1.5090  0.5150
 7704TIP3   OH244526   6.484   4.812   1.702  0.2483  0.2532  0.3537
 7704TIP3    H144527   6.484   4.812   1.798 -2.0622 -1.3795  0.3897
 7704TIP3    H244528   6.577   4.813   1.678  0.8532  0.3916  2.6056
 7705TIP3   OH244529   0.608   5.933   1.376  0.2676 -0.3289 -0.0840
 7705TIP3    H144530   0.612   5.968   1.288 -0.6933  0.0574  0.0165
 7705TIP3    H244531   0.515   5.937   1.399  0.5408 -0.2240  1.0263
 7706TIP3   OH244532   3.157   3.294   5.157  0.4427  0.4945  0.4107
 7706TIP3    H144533   3.238   3.253   5.185  1.2150  1.7632  0.0645
 7706TIP3    H244534   3.091   3.262   5.218  1.0573 -1.0909  0.2706
 7707TIP3   OH244535   0.691   0.373  11.236  0.1659 -0.3246  0.3277
 7707TIP3    H144536   0.727   0.427  11.165 -0.1039 -0.4298  0.1119
 7707TIP3    H244537   0.698   0.429  11.313  2.4233 -0.9828  0.6319
 7708TIP3   OH244538   2.211   1.724   0.261 -0.3785 -0.1029 -0.2397
 7708TIP3    H144539   2.122   1.754   0.245 -0.6527 -0.5415  0.4366
 7708TIP3    H244540   2.205   1.629   0.261 -0.1738 -0.1287  1.1892
 7709TIP3   OH244541   5.479   3.076   1.330  0.3521  0.6014  0.0831
 7709TIP3    H144542   5.417   3.122   1.386  0.8561  0.1426  1.0453
 7709TIP3    H244543   5.542   3.038   1.391  0.7142 -0.2141 -0.7815
 7710TIP3   OH244544   4.471   0.789  15.750  0.0207  0.1720  0.3905
 7710TIP3    H144545   4.490   0.880  15.725  1.4312  0.3228  1.9698
 7710TIP3    H244546   4.540   0.738  15.708  0.5571  0.0868  1.3608
 7711TIP3   OH244547   2.152   5.194   2.343 -0.3984  0.1057  0.1313
 7711TIP3    H144548   2.133   5.248   2.266  0.2486  0.1751  0.0166
 7711TIP3    H244549   2.099   5.115   2.330  0.6934 -0.4562 -1.0419
 7712TIP3   OH244550   0.325   0.072   3.508 -0.3201  0.3150  0.2575
 7712TIP3    H144551   0.254   0.134   3.490 -0.7777  0.2962  1.8673
 7712TIP3    H244552   0.294  -0.011   3.472 -1.1176  0.3172  0.9112
 7713TIP3   OH244553   0.413   0.735  13.667  0.1972 -0.1118  0.4164
 7713TIP3    H144554   0.482   0.709  13.605  2.3578  0.8335  2.3422
 7713TIP3    H244555   0.373   0.812  13.627  0.7265 -0.2551 -0.4126
 7714TIP3   OH244556   4.921   6.756   5.495  0.0577  0.6521 -0.1173
 7714TIP3    H144557   4.883   6.800   5.570  0.9045 -0.0392  0.7250
 7714TIP3    H244558   5.012   6.787   5.491  0.6246 -0.8591  0.4057
 7715TIP3   OH244559   3.424   6.785  15.156 -0.8744 -0.1506 -0.4502
 7715TIP3    H144560   3.446   6.857  15.215  0.0626  0.3156 -1.3580
 7715TIP3    H244561   3.328   6.787  15.151 -0.9310  0.1474  0.6205
 7716TIP3   OH244562   1.931   5.102  12.504  0.3406 -0.1143  0.0127
 7716TIP3    H144563   1.914   5.020  12.550 -1.1758 -0.7145 -1.6017
 7716TIP3    H244564   1.904   5.086  12.414 -0.3840  2.2735 -0.2366
 7717TIP3   OH244565   6.583   5.091   2.982 -0.0624  0.3021 -0.4335
 7717TIP3    H144566   6.540   5.005   2.985 -1.3150  0.9639  0.9714
 7717TIP3    H244567   6.511   5.154   2.986  0.7908  1.4420 -2.3758
 7718TIP3   OH244568   1.685   3.370  16.009 -1.0013  0.2259  0.5206
 7718TIP3    H144569   1.697   3.430  16.082 -1.6879 -0.1513  0.9564
 7718TIP3    H244570   1.774   3.346  15.982 -0.7410  0.5198  1.1099
 7719TIP3   OH244571   6.525   1.528  12.000  0.7038 -0.3334  0.1630
 7719TIP3    H144572   6.466   1.600  12.021 -0.6743 -1.2914 -0.3130
 7719TIP3    H244573   6.612   1.564  12.010  0.0279  1.4834 -0.3404
 7720TIP3   OH244574   0.171   0.308   3.123  0.4047 -0.8245  0.1710
 7720TIP3    H144575   0.078   0.286   3.112 -0.0153  1.8436 -2.2008
 7720TIP3    H244576   0.177   0.346   3.210 -0.9630  0.0634 -0.1111
 7721TIP3   OH244577   2.987   1.365  13.973  0.1575  0.3206 -0.3310
 7721TIP3    H144578   2.900   1.396  13.996 -0.2117  0.3466 -1.7602
 7721TIP3    H244579   2.978   1.271  13.963  0.2774  0.3343 -0.5712
 7722TIP3   OH244580   6.336   0.690   0.863 -0.3314 -0.5103 -0.4408
 7722TIP3    H144581   6.344   0.605   0.908  1.3534 -0.8980 -1.4105
 7722TIP3    H244582   6.379   0.752   0.922 -1.1410 -0.4056  0.0479
 7723TIP3   OH244583   6.492   6.230  11.615  0.0080 -0.0504 -0.1525
 7723TIP3    H144584   6.552   6.199  11.684 -1.6231  0.3055  1.4667
 7723TIP3    H244585   6.522   6.318  11.596  0.1159  0.0675  0.5241
 7724TIP3   OH244586   5.987   4.907   4.057  0.1872 -0.0602  0.2583
 7724TIP3    H144587   5.896   4.908   4.028 -0.8304  0.1337  3.2896
 7724TIP3    H244588   6.032   4.851   3.994 -2.1235 -0.5316 -1.0142
 7725TIP3   OH244589   0.634   4.833  12.203 -0.4939  0.3651 -0.1185
 7725TIP3    H144590   0.581   4.831  12.123 -0.7344 -1.6691  0.0743
 7725TIP3    H244591   0.669   4.744  12.211 -0.1623  0.6541  1.8407
 7726TIP3   OH244592   0.207   1.780  11.236  0.1572 -0.2431 -0.4937
 7726TIP3    H144593   0.181   1.750  11.149  3.7983 -1.4370 -1.2705
 7726TIP3    H244594   0.223   1.873  11.225 -2.3975  0.2590 -0.2895
 7727TIP3   OH244595   0.143   1.492  11.133  0.0887 -0.4902 -0.5179
 7727TIP3    H144596   0.202   1.566  11.146 -1.1116  0.3381  0.3863
 7727TIP3    H244597   0.199   1.415  11.145  1.2388  0.2690 -0.9177
 7728TIP3   OH244598   4.887   3.887   4.312  0.2066  0.3342 -0.6966
 7728TIP3    H144599   4.879   3.967   4.261 -0.9484  0.2610 -0.6419
 7728TIP3    H244600   4.846   3.908   4.396 -1.3277 -0.7189 -1.1599
 7729TIP3   OH244601   3.008   4.941  14.642  0.9182  0.1833 -0.1027
 7729TIP3    H144602   2.916   4.961  14.625  0.2890 -2.1942  0.2776
 7729TIP3    H244603   3.054   4.975  14.566 -0.1888  1.8635 -0.0634
 7730TIP3   OH244604   3.478   4.910  10.437 -0.1091 -0.6836  0.3070
 7730TIP3    H144605   3.418   4.978  10.409  0.0045 -0.2013  1.2015
 7730TIP3    H244606   3.513   4.942  10.520 -0.7402 -2.2506  1.2016
 7731TIP3   OH244607   4.965   3.023  15.446 -0.4747  0.1896 -0.0082
 7731TIP3    H144608   4.970   2.927  15.440  0.4314  0.2365 -0.0087
 7731TIP3    H244609   4.913   3.039  15.525 -1.3586 -0.3064 -0.4792
 7732TIP3   OH244610   0.187   5.306  16.327 -0.1444  0.1863  0.4481
 7732TIP3    H144611   0.257   5.353  16.282 -1.5539  0.8708 -1.1056
 7732TIP3    H244612   0.116   5.370  16.332 -0.2843 -0.1313  2.9932
 7733TIP3   OH244613   6.564   4.942  13.364  0.0772  0.2072 -0.1988
 7733TIP3    H144614   6.478   4.984  13.366  0.3537  0.7523  0.5391
 7733TIP3    H244615   6.611   4.987  13.294  0.9252  2.2768  1.6241
 7734TIP3   OH244616   4.343   6.382  11.866 -0.0972 -0.4120 -0.1166
 7734TIP3    H144617   4.260   6.418  11.835  0.2579  1.6284  1.1993
 7734TIP3    H244618   4.328   6.365  11.959  0.8778 -0.2685  0.0692
 7735TIP3   OH244619   1.290   1.877  15.650 -0.0084  0.6045  0.1324
 7735TIP3    H144620   1.280   1.951  15.590  0.6353  0.1169 -0.5733
 7735TIP3    H244621   1.254   1.909  15.732 -0.2244  1.5282 -0.3102
 7736TIP3   OH244622   2.785   3.113   3.411 -0.0696  0.7010 -0.0947
 7736TIP3    H144623   2.762   3.164   3.334 -0.4053  2.9096  1.4093
 7736TIP3    H244624   2.736   3.155   3.482 -0.3926 -1.7724  1.1863
 7737TIP3   OH244625   1.333   0.415  13.532  0.4081 -0.2146  0.4213
 7737TIP3    H144626   1.276   0.416  13.609 -2.4930  1.2235 -1.6191
 7737TIP3    H244627   1.297   0.344  13.478  1.8989 -0.6662  0.0219
 7738TIP3   OH244628   0.953   4.408   2.548 -0.3573  0.2255 -0.0715
 7738TIP3    H144629   0.995   4.383   2.465  2.5668  0.9572  1.1194
 7738TIP3    H244630   0.895   4.480   2.524  0.2748  0.2776 -1.5407
 7739TIP3   OH244631   5.145   0.802  13.554 -0.2471  0.2331  0.1942
 7739TIP3    H144632   5.051   0.791  13.571 -0.0086 -0.7922  0.9073
 7739TIP3    H244633   5.181   0.834  13.637  0.2429 -0.6467  0.3231
 7740TIP3   OH244634   5.504   5.773  14.363  0.4034 -0.4504 -0.1550
 7740TIP3    H144635   5.473   5.688  14.333  0.3775 -0.7425  0.6960
 7740TIP3    H244636   5.575   5.753  14.424  0.0398  0.1233  0.4602
 7741TIP3   OH244637   3.434   5.961  13.505  0.5260 -0.4007 -0.5448
 7741TIP3    H144638   3.482   5.899  13.451 -0.2577 -0.2857 -1.3818
 7741TIP3    H244639   3.402   5.909  13.579  1.5609 -0.5639 -0.2041
 7742TIP3   OH244640   2.458   3.745  13.864  0.1517 -0.0587 -0.4915
 7742TIP3    H144641   2.504   3.782  13.789  0.6764  1.5125  0.5709
 7742TIP3    H244642   2.366   3.750  13.841  0.3882 -1.2146 -1.7418
 7743TIP3   OH244643   4.544   5.739   5.263  1.4899  0.1339  0.1873
 7743TIP3    H144644   4.594   5.817   5.286  1.5386  0.8893 -2.2779
 7743TIP3    H244645   4.497   5.764   5.183 -0.1238 -1.6911  0.5257
 7744TIP3   OH244646   1.185   2.644   5.858  0.1820  0.0654 -0.4022
 7744TIP3    H144647   1.119   2.622   5.792  0.5102 -2.4060  0.0573
 7744TIP3    H244648   1.183   2.571   5.919  2.9906  0.1905 -0.1097
 7745TIP3   OH244649   3.913   5.174  11.446 -0.3397 -0.7743 -0.1576
 7745TIP3    H144650   3.921   5.100  11.507  0.6753  0.6377  1.4478
 7745TIP3    H244651   3.868   5.242  11.496  0.4781  0.4001 -0.9895
 7746TIP3   OH244652   6.235   1.656   1.920  0.7918  0.0320  0.0294
 7746TIP3    H144653   6.194   1.592   1.862 -1.1450  1.5015 -0.2859
 7746TIP3    H244654   6.193   1.642   2.005  1.0730  0.2308  0.2028
 7747TIP3   OH244655   1.547   1.227   5.122 -0.6325  0.8514  0.1352
 7747TIP3    H144656   1.543   1.319   5.149 -0.3693  0.3338  2.0246
 7747TIP3    H244657   1.524   1.178   5.201 -0.7376 -0.7160 -0.8432
 7748TIP3   OH244658   1.150   2.250  14.046  0.1411 -0.0750  0.3692
 7748TIP3    H144659   1.176   2.278  14.133  1.2234 -3.8913  1.3556
 7748TIP3    H244660   1.074   2.193  14.061  0.4358 -0.8920 -1.1581
 7749TIP3   OH244661   4.072   4.710   0.016  0.0752  0.5665  0.2892
 7749TIP3    H144662   4.021   4.783   0.052  1.7358  1.2497  1.3191
 7749TIP3    H244663   4.133   4.687   0.086  2.4360  0.9929 -1.5850
 7750TIP3   OH244664   5.102   5.100   3.366 -0.2650  0.2876 -0.2550
 7750TIP3    H144665   5.172   5.161   3.344 -0.5746  0.2068 -1.5251
 7750TIP3    H244666   5.023   5.142   3.332 -0.4862 -0.7905 -1.1163
 7751TIP3   OH244667   3.120   4.120  14.409 -0.0057 -0.1409 -0.8477
 7751TIP3    H144668   3.073   4.045  14.374  0.6668 -0.5640 -0.8632
 7751TIP3    H244669   3.065   4.152  14.480 -1.0859  0.3624 -1.9058
 7752TIP3   OH244670   5.237   0.851  17.203 -0.1805  0.2082  0.1680
 7752TIP3    H144671   5.308   0.889  17.255  1.7362 -2.4878 -0.3552
 7752TIP3    H244672   5.177   0.813  17.268 -0.0765  0.6765  0.5446
 7753TIP3   OH244673   0.106   5.429   0.305 -0.8353  0.0072  0.0972
 7753TIP3    H144674   0.140   5.457   0.390 -1.4370 -0.0425  0.3585
 7753TIP3    H244675   0.094   5.335   0.314  0.3886 -0.2089 -0.4994
 7754TIP3   OH244676   3.413   2.908   3.983 -0.0036  0.8523 -0.4238
 7754TIP3    H144677   3.390   2.815   3.984  0.7004  0.6864  0.7023
 7754TIP3    H244678   3.371   2.941   3.903 -1.4446 -0.1240 -0.1105
 7755TIP3   OH244679   4.011   3.856  14.372 -0.2814  0.2557 -0.4045
 7755TIP3    H144680   4.082   3.825  14.428 -0.0100 -0.1489 -0.9569
 7755TIP3    H244681   4.039   3.831  14.283 -1.0813  0.1454 -0.6276
 7756TIP3   OH244682   4.916   1.326   1.532 -0.1120  0.0748 -1.1226
 7756TIP3    H144683   4.877   1.395   1.585  0.6412 -0.6347  0.3857
 7756TIP3    H244684   4.841   1.278   1.496 -0.6319  0.5055 -0.6103
 7757TIP3   OH244685   5.802   0.701   6.703 -0.0763  0.2309  0.1587
 7757TIP3    H144686   5.866   0.696   6.774 -2.3530 -1.2546  2.1927
 7757TIP3    H244687   5.759   0.785   6.715 -0.5853 -0.0981  0.6854
 7758TIP3   OH244688   5.457   6.633   2.172  0.4009  0.0286  0.0986
 7758TIP3    H144689   5.392   6.700   2.152 -0.9464 -0.8635  1.3542
 7758TIP3    H244690   5.407   6.553   2.184  1.6480 -0.5675  1.6748
 7759TIP3   OH244691   3.243   3.102   0.391  0.3254  0.3733 -0.4639
 7759TIP3    H144692   3.163   3.140   0.354  0.0045 -1.2399 -1.5007
 7759TIP3    H244693   3.307   3.105   0.320  0.6594  0.0800 -0.1780
 7760TIP3   OH244694   6.201   4.670  11.074 -0.2870  0.3938 -0.0117
 7760TIP3    H144695   6.189   4.753  11.029 -0.6129 -0.2565 -1.1388
 7760TIP3    H244696   6.187   4.604  11.007 -1.1457 -0.6045  1.1250
 7761TIP3   OH244697   4.765   3.040  14.391  0.0434 -0.2633  0.0715
 7761TIP3    H144698   4.786   2.956  14.431  0.6060  0.7354  1.9372
 7761TIP3    H244699   4.711   3.085  14.456 -2.2029 -0.0736 -1.8532
 7762TIP3   OH244700   4.341   4.597  14.860 -0.1323 -0.0940 -0.1705
 7762TIP3    H144701   4.393   4.557  14.930 -0.8168 -0.2614  0.2449
 7762TIP3    H244702   4.284   4.526  14.829 -1.0882  0.4439  0.3168
 7763TIP3   OH244703   2.164   6.592   4.791 -0.0316 -0.7216 -0.4012
 7763TIP3    H144704   2.185   6.587   4.698  2.2625  0.1627  0.0208
 7763TIP3    H244705   2.190   6.681   4.816  2.5469 -1.9969  1.7653
 7764TIP3   OH244706   2.307   4.840   5.128 -0.0429  0.2745 -0.8802
 7764TIP3    H144707   2.231   4.794   5.165  0.7926  0.6756  1.4621
 7764TIP3    H244708   2.327   4.793   5.048 -0.0559 -2.6120  0.7219
 7765TIP3   OH244709   1.863   4.174  15.761  0.4336  0.2784  0.1076
 7765TIP3    H144710   1.873   4.237  15.689 -0.2668 -1.4523 -1.5254
 7765TIP3    H244711   1.927   4.203  15.826 -0.7913  3.4932 -0.0046
 7766TIP3   OH244712   2.778   0.579  11.463 -0.0463  0.2914  0.9667
 7766TIP3    H144713   2.806   0.541  11.380  2.8394 -1.0083  2.4632
 7766TIP3    H244714   2.819   0.665  11.465 -0.0688  0.2994  1.0787
 7767TIP3   OH244715   4.265   2.902   5.530  0.0229 -0.2853 -0.5714
 7767TIP3    H144716   4.312   2.985   5.522  0.7398 -0.6484 -0.2275
 7767TIP3    H244717   4.328   2.836   5.500 -0.6287 -0.6786 -1.0849
 7768TIP3   OH244718   3.001   0.293  12.971 -0.2673 -0.2399  0.4229
 7768TIP3    H144719   3.042   0.298  13.057 -2.1798  2.5244  1.2185
 7768TIP3    H244720   3.054   0.351  12.916  0.0534 -0.8377  0.0941
 7769TIP3   OH244721   4.247   0.326   0.848  0.3363 -0.6350 -0.0093
 7769TIP3    H144722   4.215   0.363   0.766 -0.5794 -0.4494  0.4167
 7769TIP3    H244723   4.342   0.331   0.842  0.2536  2.6762  0.4128
 7770TIP3   OH244724   2.295   5.614  13.832 -0.0899 -0.0555 -0.2647
 7770TIP3    H144725   2.335   5.568  13.906  0.2838 -1.7202 -1.4797
 7770TIP3    H244726   2.250   5.546  13.783  1.4961  0.6432 -2.7928
 7771TIP3   OH244727   1.623   5.686   6.007 -0.0971  0.6849 -0.0636
 7771TIP3    H144728   1.569   5.619   5.965  0.5269  0.2633 -0.1990
 7771TIP3    H244729   1.712   5.650   6.005 -0.3270 -0.3081  3.5180
 7772TIP3   OH244730   2.330   2.336  13.882  0.0402  0.1055 -0.0081
 7772TIP3    H144731   2.388   2.395  13.929  0.5561  0.3733 -0.9708
 7772TIP3    H244732   2.242   2.367  13.905  0.2952  2.4173 -1.9107
 7773TIP3   OH244733   1.573   5.581   3.825  0.2808 -0.0504  0.0527
 7773TIP3    H144734   1.640   5.513   3.822 -1.3334 -1.6483 -2.1428
 7773TIP3    H244735   1.510   5.550   3.890  0.5787  0.3734  0.5444
 7774TIP3   OH244736   0.420   3.244   5.288 -0.3084 -0.0171 -0.1117
 7774TIP3    H144737   0.347   3.197   5.248 -0.3307 -0.5654  0.5628
 7774TIP3    H244738   0.400   3.336   5.273 -0.6861 -0.1894 -0.7080
 7775TIP3   OH244739   4.328   5.766   1.886 -0.3442 -0.1265  0.0481
 7775TIP3    H144740   4.290   5.843   1.929  0.3530  0.0870  0.3082
 7775TIP3    H244741   4.419   5.764   1.918 -0.2656 -0.8695 -0.2144
 7776TIP3   OH244742   4.456   6.637  13.928  0.0505  0.1024 -0.1585
 7776TIP3    H144743   4.523   6.685  13.879 -0.9428  1.4421 -0.2335
 7776TIP3    H244744   4.492   6.630  14.016  0.3184  0.7845 -0.2063
 7777TIP3   OH244745   6.192   5.410  10.994  0.3158 -0.2331 -0.0602
 7777TIP3    H144746   6.140   5.342  10.951  0.4922 -0.8785  0.7332
 7777TIP3    H244747   6.167   5.491  10.950 -0.8918 -0.6255 -0.1074
 7778TIP3   OH244748   3.734   2.334  16.112 -0.0161 -0.4881  0.0008
 7778TIP3    H144749   3.683   2.391  16.054  0.2049  2.5462  2.6140
 7778TIP3    H244750   3.689   2.250  16.108 -1.4376  0.3215 -2.6505
 7779TIP3   OH244751   4.582   3.940  14.553 -0.2133  0.2056 -0.0797
 7779TIP3    H144752   4.576   4.016  14.610 -0.2070 -0.3880  0.7179
 7779TIP3    H244753   4.675   3.933  14.532 -0.1328  0.0810  0.3129
 7780TIP3   OH244754   2.192   1.201  12.807  0.4375  0.0428  0.2685
 7780TIP3    H144755   2.256   1.245  12.863 -0.2092 -0.8370  1.7465
 7780TIP3    H244756   2.113   1.199  12.860 -0.0241 -1.3231 -0.4696
 7781TIP3   OH244757   2.420   1.953   2.882 -1.1092  0.1583 -0.6859
 7781TIP3    H144758   2.374   1.989   2.958 -1.0016  0.6360 -0.8400
 7781TIP3    H244759   2.350   1.924   2.824 -1.1838 -0.5765 -0.2332
 7782TIP3   OH244760   5.378   2.922  13.552  0.1021 -0.3802 -0.1122
 7782TIP3    H144761   5.299   2.885  13.512  0.1844  0.4382 -1.0498
 7782TIP3    H244762   5.397   2.999  13.500  1.0558 -0.1087  0.6286
 7783TIP3   OH244763   2.647   0.212   2.305  0.0056  0.1430 -0.4709
 7783TIP3    H144764   2.583   0.283   2.312 -1.4307 -1.1617  0.1560
 7783TIP3    H244765   2.673   0.195   2.395  0.0469 -0.3789 -0.5797
 7784TIP3   OH244766   2.396   0.702   3.126  0.3879 -0.0405 -0.2435
 7784TIP3    H144767   2.414   0.730   3.216  0.6837  1.2376 -0.6865
 7784TIP3    H244768   2.415   0.780   3.073  0.4465 -0.8616 -1.4327
 7785TIP3   OH244769   6.388   3.669   1.848  0.3507  0.1550  0.4111
 7785TIP3    H144770   6.422   3.703   1.765  0.0546  0.2917  0.3430
 7785TIP3    H244771   6.300   3.706   1.854 -0.4434 -1.5865 -0.2501
 7786TIP3   OH244772   5.396   1.011   3.755 -0.4494  0.9050 -0.8731
 7786TIP3    H144773   5.326   1.071   3.780 -0.6107 -0.2756  1.6998
 7786TIP3    H244774   5.460   1.017   3.826 -0.4086 -1.8039 -0.6093
 7787TIP3   OH244775   4.843   3.844  15.400  0.0625  0.5891  0.0798
 7787TIP3    H144776   4.796   3.766  15.372 -1.7312  0.7512  2.4110
 7787TIP3    H244777   4.935   3.821  15.396 -0.2988 -0.5463 -2.3239
 7788TIP3   OH244778   0.821   1.593   1.764  0.5914  0.2085 -0.2092
 7788TIP3    H144779   0.885   1.626   1.700  0.3299  0.1782 -0.4856
 7788TIP3    H244780   0.770   1.670   1.789 -0.6556 -0.1632 -1.5832
 7789TIP3   OH244781   6.093   4.616  14.206 -0.7788  0.3420  0.7521
 7789TIP3    H144782   6.103   4.544  14.144  1.5209  1.0944  0.1762
 7789TIP3    H244783   6.178   4.622  14.249 -0.1999  4.0104 -0.7237
 7790TIP3   OH244784   1.106   0.161  13.909  0.5928 -0.7212 -0.4943
 7790TIP3    H144785   1.097   0.199  13.996  0.3225  0.4890 -1.0300
 7790TIP3    H244786   1.197   0.179  13.884  0.8388 -1.5947 -0.2196
 7791TIP3   OH244787   1.651   2.062  13.023  0.0130  0.1517 -0.2872
 7791TIP3    H144788   1.732   2.018  12.996  0.1364  0.0498  0.2429
 7791TIP3    H244789   1.604   2.078  12.941 -0.3367 -1.5508 -0.4209
 7792TIP3   OH244790   5.136   3.625  13.506  0.4522  0.5128 -0.6270
 7792TIP3    H144791   5.134   3.530  13.489  0.2269  0.5144 -0.6066
 7792TIP3    H244792   5.222   3.653  13.473  0.2568  0.4175 -1.2346
 7793TIP3   OH244793   4.637   4.206  16.795 -0.7597 -0.0632 -0.3483
 7793TIP3    H144794   4.544   4.229  16.804 -0.1460  2.5377 -0.5123
 7793TIP3    H244795   4.673   4.273  16.737  1.6929  0.1534  1.3815
 7794TIP3   OH244796   2.948   6.287   5.012 -0.5131 -0.0080 -0.1892
 7794TIP3    H144797   3.032   6.253   4.980 -0.2943  0.0479  0.3218
 7794TIP3    H244798   2.925   6.229   5.085 -0.1827  0.8895  0.6279
 7795TIP3   OH244799   5.567   3.916  15.072  0.2425  0.2367  0.1060
 7795TIP3    H144800   5.625   3.839  15.067 -0.8719 -0.5257 -1.3927
 7795TIP3    H244801   5.492   3.886  15.122 -0.8216 -0.0719 -1.6519
 7796TIP3   OH244802   5.306   3.906   3.351  0.1207 -0.0296 -0.4713
 7796TIP3    H144803   5.283   3.820   3.386 -2.3326  0.3476 -1.0564
 7796TIP3    H244804   5.364   3.944   3.417 -0.5055 -1.2757  0.8381
 7797TIP3   OH244805   5.167   6.344   0.644  0.0578 -0.0104  0.5079
 7797TIP3    H144806   5.179   6.323   0.551 -0.5110 -1.1676  0.6852
 7797TIP3    H244807   5.203   6.268   0.690  2.5339  1.5832  1.3239
 7798TIP3   OH244808   3.814   2.768  14.178 -0.0533 -0.3121 -0.3853
 7798TIP3    H144809   3.727   2.756  14.141 -0.0435  0.6166 -0.7253
 7798TIP3    H244810   3.818   2.707  14.251 -1.2401  0.1346  0.0581
 7799TIP3   OH244811   0.512   1.736  13.070  0.0609  0.5204 -0.3451
 7799TIP3    H144812   0.601   1.772  13.067  0.7311 -1.0477  0.2519
 7799TIP3    H244813   0.503   1.702  13.159 -1.6067  1.7682 -0.0010
 7800TIP3   OH244814   5.226   3.421  13.071  0.1004  0.2489 -0.4188
 7800TIP3    H144815   5.248   3.512  13.091 -0.6635  0.4230 -0.3593
 7800TIP3    H244816   5.273   3.402  12.990 -0.3798  0.9494 -0.8623
 7801TIP3   OH244817   2.509   5.068   4.675  0.1918 -0.4155  0.0003
 7801TIP3    H144818   2.482   5.158   4.696 -1.4470 -0.5497 -1.3653
 7801TIP3    H244819   2.588   5.054   4.727 -1.7305  0.4112  3.2974
 7802TIP3   OH244820   3.124   5.042  13.129 -0.0638 -0.5477  0.5381
 7802TIP3    H144821   3.133   5.135  13.107 -0.1110 -0.5723  0.4149
 7802TIP3    H244822   3.059   5.040  13.199  0.6198 -0.4036  1.1874
 7803TIP3   OH244823   6.171   3.002  15.941  0.1250 -0.1287  0.1890
 7803TIP3    H144824   6.237   3.045  15.886 -0.4834  1.3048  0.5624
 7803TIP3    H244825   6.206   3.009  16.030  0.8579 -1.9871  0.0674
 7804TIP3   OH244826   0.989   5.133   2.782 -0.2074  0.3302  0.0769
 7804TIP3    H144827   1.083   5.143   2.800  0.1808 -0.9255 -1.1515
 7804TIP3    H244828   0.960   5.220   2.758  0.6722  0.7220  0.4125
 7805TIP3   OH244829   5.013   1.664  11.496 -0.1207  0.4916 -0.0374
 7805TIP3    H144830   4.941   1.724  11.477  1.0135  1.8302 -0.1981
 7805TIP3    H244831   4.995   1.587  11.441 -2.3545  0.0518  1.2602
 7806TIP3   OH244832   5.053   1.944  14.133 -0.0001 -0.0721  0.0032
 7806TIP3    H144833   4.981   1.972  14.189 -0.7752 -2.9616  0.5799
 7806TIP3    H244834   5.020   1.864  14.091  1.7248  0.3031 -2.1429
 7807TIP3   OH244835   5.115   0.598   2.496  0.1872  1.0808  0.8158
 7807TIP3    H144836   5.069   0.658   2.554  0.0078 -0.2017  2.0190
 7807TIP3    H244837   5.206   0.598   2.529  0.2703  0.9907  0.5866
 7808TIP3   OH244838   2.129   4.090  12.708 -0.2106 -1.0008  0.9696
 7808TIP3    H144839   2.191   4.037  12.658 -0.0017  0.7202 -0.6069
 7808TIP3    H244840   2.054   4.101  12.650 -0.5686 -0.1878  1.5818
 7809TIP3   OH244841   4.841   4.949   1.921 -0.2658  0.4160  0.7626
 7809TIP3    H144842   4.895   4.873   1.945 -0.4279  0.6066  1.7592
 7809TIP3    H244843   4.870   4.972   1.833  0.8865  0.1478  1.0557
 7810TIP3   OH244844   2.182   4.748  12.745  0.4388  0.6680 -0.4762
 7810TIP3    H144845   2.277   4.734  12.739 -0.0600 -3.3444 -0.9421
 7810TIP3    H244846   2.157   4.704  12.826 -0.8570  3.0252  0.4412
 7811TIP3   OH244847   5.352   3.187   1.798  0.1052  0.7330 -0.4763
 7811TIP3    H144848   5.423   3.236   1.755  0.7567 -0.3081 -0.5954
 7811TIP3    H244849   5.379   3.182   1.890  1.0100 -1.0589 -0.8063
 7812TIP3   OH244850   1.561   0.700   1.165  0.2194 -0.2358  0.1332
 7812TIP3    H144851   1.466   0.707   1.150  0.1187 -0.7823  0.5110
 7812TIP3    H244852   1.569   0.672   1.256  0.7036 -1.5283 -0.2951
 7813TIP3   OH244853   0.875   3.539   3.897 -0.3441  0.1967 -0.2410
 7813TIP3    H144854   0.962   3.510   3.924  0.0380 -0.8748 -2.5105
 7813TIP3    H244855   0.886   3.633   3.881  0.7699 -0.1812 -1.8513
 7814TIP3   OH244856   6.072   3.020   0.641 -0.0883  0.3614  0.0998
 7814TIP3    H144857   6.092   3.029   0.734 -0.1538  0.1275  0.1370
 7814TIP3    H244858   6.128   3.084   0.598  0.2102  0.2118  0.2673
 7815TIP3   OH244859   3.470   1.352   5.845  0.9422 -0.5494  0.3597
 7815TIP3    H144860   3.385   1.392   5.827  0.8229 -0.3951  1.2644
 7815TIP3    H244861   3.489   1.375   5.936  0.5650 -3.0928  1.1190
 7816TIP3   OH244862   1.313   0.222   0.956  0.0212  0.4994  0.0161
 7816TIP3    H144863   1.335   0.290   1.020  0.9956 -1.8481  2.2383
 7816TIP3    H244864   1.388   0.220   0.897  1.0218 -0.1659  1.2880
 7817TIP3   OH244865   1.698   5.119  15.560 -0.1702 -0.2112  0.1085
 7817TIP3    H144866   1.658   5.205  15.550 -1.3222 -0.7149  0.2868
 7817TIP3    H244867   1.662   5.085  15.642 -3.8186 -2.9732 -2.4744
 7818TIP3   OH244868   5.351   5.506  15.236  0.5841 -0.2908  0.2119
 7818TIP3    H144869   5.265   5.547  15.241  1.2334  1.0763  0.5521
 7818TIP3    H244870   5.363   5.463  15.321 -0.0785 -1.1701 -0.1293
 7819TIP3   OH244871   4.561   6.706   1.578  0.0399 -0.0318  0.0512
 7819TIP3    H144872   4.596   6.626   1.617 -1.1366  1.7226  5.0945
 7819TIP3    H244873   4.637   6.763   1.568  0.2979 -0.3099  0.3904
 7820TIP3   OH244874   2.125   0.695  13.528 -0.2347 -0.2002 -0.4806
 7820TIP3    H144875   2.158   0.785  13.532  0.8924 -0.6316  0.2270
 7820TIP3    H244876   2.181   0.646  13.589 -1.0089 -1.3276 -0.6564
 7821TIP3   OH244877   1.323   6.172   0.969 -0.1219  0.2656  0.1053
 7821TIP3    H144878   1.397   6.113   0.958 -0.5814 -0.5113  1.0735
 7821TIP3    H244879   1.254   6.134   0.915  0.2584  1.1657 -1.0543
 7822TIP3   OH244880   0.295   5.105   4.071 -0.3443  0.0133  0.0134
 7822TIP3    H144881   0.282   5.040   4.140 -0.6812  1.5635  1.4335
 7822TIP3    H244882   0.233   5.079   4.003 -1.7902 -0.0936  1.3338
 7823TIP3   OH244883   4.237   6.354  16.673  0.5143  0.3982  0.3452
 7823TIP3    H144884   4.235   6.260  16.653 -0.2352  0.7774 -1.4626
 7823TIP3    H244885   4.330   6.377  16.664  0.9085 -0.4028  2.0667
 7824TIP3   OH244886   1.297   6.485  15.879 -0.4374 -0.0815  0.3945
 7824TIP3    H144887   1.279   6.483  15.973 -0.3789 -1.6480  0.3981
 7824TIP3    H244888   1.234   6.422  15.843 -0.4219  0.4791 -0.6091
 7825TIP3   OH244889   0.764   4.122  10.268  0.0097  0.3791  0.4533
 7825TIP3    H144890   0.746   4.103  10.360 -0.2116  0.9241  0.5259
 7825TIP3    H244891   0.805   4.042  10.235 -2.0980 -0.6919  0.3950
 7826TIP3   OH244892   3.412   5.113   2.563  0.2675 -0.1042 -0.4178
 7826TIP3    H144893   3.415   5.048   2.494  1.9276 -0.8556  0.3372
 7826TIP3    H244894   3.497   5.157   2.559 -0.5013  1.4463 -0.3670
 7827TIP3   OH244895   4.488   0.529   5.931 -0.1699 -0.1160  1.0191
 7827TIP3    H144896   4.533   0.445   5.922 -0.1564  0.1435 -1.9611
 7827TIP3    H244897   4.430   0.518   6.006  0.4923 -2.4957  1.2083
 7828TIP3   OH244898   3.959   6.284  11.571  0.5255 -0.7913  0.2648
 7828TIP3    H144899   3.985   6.208  11.518  0.5623 -0.1208 -0.7037
 7828TIP3    H244900   3.909   6.339  11.511 -0.6647 -0.6815  1.3349
 7829TIP3   OH244901   1.880   2.728   3.471 -0.0345  0.1580 -0.4428
 7829TIP3    H144902   1.875   2.640   3.508 -0.4509  0.9334  1.3959
 7829TIP3    H244903   1.935   2.777   3.532  0.4245  1.1101 -1.5978
 7830TIP3   OH244904   1.327   2.511   1.234 -0.4516  0.5240 -0.6284
 7830TIP3    H144905   1.378   2.434   1.212  1.6327  1.2907  1.3011
 7830TIP3    H244906   1.275   2.529   1.156  2.4983 -0.0718 -2.8067
 7831TIP3   OH244907   2.862   4.546   3.637  0.5976  0.3548 -0.0422
 7831TIP3    H144908   2.900   4.477   3.582 -1.7903 -0.5028 -0.6981
 7831TIP3    H244909   2.869   4.625   3.583 -0.6743 -0.2610 -1.1478
 7832TIP3   OH244910   6.237   2.139  12.030 -0.1081 -0.9018  0.3116
 7832TIP3    H144911   6.318   2.184  12.053 -1.7466  2.7146 -0.7243
 7832TIP3    H244912   6.240   2.130  11.935 -1.1640 -0.2852  0.2187
 7833TIP3   OH244913   0.601   5.017   5.924  0.0964 -0.0078 -0.7715
 7833TIP3    H144914   0.512   5.011   5.889  0.0723  0.9676 -0.8932
 7833TIP3    H244915   0.596   5.084   5.992  0.4000 -1.0681  0.3158
 7834TIP3   OH244916   6.414   3.907   3.040 -0.0716  0.2424  0.3696
 7834TIP3    H144917   6.347   3.862   3.092 -0.5447 -0.1225 -0.5511
 7834TIP3    H244918   6.497   3.872   3.074 -0.3675  0.1149  0.9747
 7835TIP3   OH244919   1.190   5.634  10.794 -0.3728 -0.3863 -0.0627
 7835TIP3    H144920   1.250   5.560  10.789 -0.5492 -0.3826 -4.5544
 7835TIP3    H244921   1.219   5.693  10.724 -3.6141  1.1096 -0.2532
 7836TIP3   OH244922   3.156   0.869   2.069 -0.2909 -0.0866 -0.5261
 7836TIP3    H144923   3.064   0.859   2.090 -0.8421  1.9322 -1.8431
 7836TIP3    H244924   3.159   0.878   1.974  1.2418 -0.0416 -0.4899
 7837TIP3   OH244925   4.846   0.890   1.540 -0.1331 -0.1931  0.1640
 7837TIP3    H144926   4.884   0.974   1.564 -0.4027  0.3360 -1.2070
 7837TIP3    H244927   4.906   0.825   1.576  2.1853  0.6332 -2.0786
 7838TIP3   OH244928   3.892   3.968   6.170  0.4678  0.9122 -0.7962
 7838TIP3    H144929   3.954   3.922   6.227 -2.6995 -0.8284  1.4264
 7838TIP3    H244930   3.880   3.910   6.095  1.7187  1.4066 -1.3952
 7839TIP3   OH244931   5.531   0.213   0.267 -0.2944  0.1074 -0.2359
 7839TIP3    H144932   5.499   0.234   0.179 -2.5012 -1.3461  0.1748
 7839TIP3    H244933   5.503   0.123   0.281  1.7773 -0.3227  1.2061
 7840TIP3   OH244934   4.776   6.369   4.483 -0.0372  0.8246  0.1479
 7840TIP3    H144935   4.774   6.417   4.566  0.6276  2.2625 -0.6319
 7840TIP3    H244936   4.699   6.400   4.436 -0.6002 -0.2435  0.3613
 7841TIP3   OH244937   6.748   5.002   5.623 -0.1130 -0.1555  0.2432
 7841TIP3    H144938   6.757   4.937   5.553  0.4310  0.7443 -0.5422
 7841TIP3    H244939   6.710   5.079   5.580  1.6983  0.9708  0.5604
 7842TIP3   OH244940   5.686   1.396   4.665  0.4020  0.7635 -0.3880
 7842TIP3    H144941   5.683   1.402   4.569  2.4164 -1.3404 -0.6440
 7842TIP3    H244942   5.705   1.485   4.694 -0.6888  1.5089 -1.9157
 7843TIP3   OH244943   3.955   6.426   3.472 -0.2785 -0.6897  0.0466
 7843TIP3    H144944   3.991   6.413   3.384 -0.3355  0.4000 -0.1535
 7843TIP3    H244945   3.904   6.507   3.465 -1.8205 -1.5972  0.6275
 7844TIP3   OH244946   0.017   1.196   2.837  0.0408 -0.4293  0.5148
 7844TIP3    H144947   0.082   1.158   2.779 -1.4503 -0.2527 -1.3299
 7844TIP3    H244948  -0.011   1.124   2.894  0.1195 -1.0911 -0.2843
 7845TIP3   OH244949   2.674   5.416  10.616  0.3645  0.4009 -0.0117
 7845TIP3    H144950   2.715   5.424  10.702  1.2078  0.6050 -0.4357
 7845TIP3    H244951   2.726   5.350  10.570  0.2390  0.6777 -0.5560
 7846TIP3   OH244952   4.082   4.028   3.738  0.3079 -0.3808  0.1083
 7846TIP3    H144953   4.123   3.966   3.678  0.9919  1.6533 -1.5783
 7846TIP3    H244954   4.149   4.042   3.806  0.2978 -1.1811  0.2866
 7847TIP3   OH244955   0.156   5.048  10.869 -0.2412  0.1520 -0.1557
 7847TIP3    H144956   0.115   5.078  10.951 -1.6824 -0.6727 -0.5564
 7847TIP3    H244957   0.122   5.107  10.802 -1.0414 -0.7483 -0.5465
 7848TIP3   OH244958   1.058   3.339   4.489 -0.6908  0.0309  0.0016
 7848TIP3    H144959   0.986   3.282   4.461  1.3959 -3.1569  0.7903
 7848TIP3    H244960   1.069   3.319   4.582  1.3082  0.3092 -0.1564
 7849TIP3   OH244961   4.225   5.117   4.026 -0.1094 -0.3574 -0.4077
 7849TIP3    H144962   4.301   5.080   4.071  2.0170  0.7105 -2.9581
 7849TIP3    H244963   4.193   5.185   4.085  1.0023 -0.7278  0.6456
 7850TIP3   OH244964   3.691   2.536   2.199 -0.3401  0.2628 -0.3867
 7850TIP3    H144965   3.766   2.490   2.237 -2.2487 -1.0697  1.9170
 7850TIP3    H244966   3.674   2.491   2.116  0.5428 -0.3098 -0.2630
 7851TIP3   OH244967   6.711   5.610   4.917  0.4881  0.5593  0.1337
 7851TIP3    H144968   6.668   5.593   4.834  1.6071 -0.7839 -0.1992
 7851TIP3    H244969   6.712   5.526   4.961 -0.5663  1.3777  1.7495
 7852TIP3   OH244970   6.248   1.676  17.053 -0.1824 -0.0746  0.1147
 7852TIP3    H144971   6.301   1.637  17.122 -0.9616 -1.6483 -0.1425
 7852TIP3    H244972   6.311   1.712  16.991  0.5079  2.2964  2.1458
 7853TIP3   OH244973   5.652   4.903   5.533 -0.4056 -0.2623  0.0582
 7853TIP3    H144974   5.655   4.823   5.586 -1.9205 -0.8530 -0.7308
 7853TIP3    H244975   5.744   4.925   5.520  0.0170 -0.4007  2.4672
 7854TIP3   OH244976   0.660   2.180  12.447 -0.5249 -0.0880 -0.2972
 7854TIP3    H144977   0.697   2.091  12.444 -0.2420  0.0151  0.1763
 7854TIP3    H244978   0.735   2.236  12.467 -0.9824  0.1049  0.8654
 7855TIP3   OH244979   0.018   5.160   0.350  0.0267  0.0922 -0.5790
 7855TIP3    H144980   0.027   5.064   0.351 -0.3159  0.0722  1.7200
 7855TIP3    H244981  -0.023   5.179   0.266 -0.1819 -1.8060 -0.9286
 7856TIP3   OH244982   2.879   2.611  13.982 -0.3641 -0.2883  0.0404
 7856TIP3    H144983   2.865   2.546  13.914 -1.9423  0.2401 -0.1613
 7856TIP3    H244984   2.887   2.560  14.063 -0.1048 -0.8085 -0.3138
 7857TIP3   OH244985   1.773   3.890   1.518  0.5081 -0.2367 -0.3288
 7857TIP3    H144986   1.866   3.908   1.504  0.6969  0.0825  1.2699
 7857TIP3    H244987   1.731   3.976   1.519  0.0996 -0.4203 -1.7101
 7858TIP3   OH244988   5.904   0.691   3.964  0.3174 -0.4593 -0.2441
 7858TIP3    H144989   5.920   0.599   3.945  1.4631 -0.3523  0.1682
 7858TIP3    H244990   5.983   0.736   3.932  0.6543  0.1475  1.4041
 7859TIP3   OH244991   2.845   6.474   0.964 -0.0867  0.3460  0.5967
 7859TIP3    H144992   2.816   6.564   0.977  0.6117  0.9546 -1.7806
 7859TIP3    H244993   2.777   6.435   0.908  1.7528  0.7271 -2.0107
 7860TIP3   OH244994   2.460   1.622   3.859 -0.3796  0.3020 -0.1116
 7860TIP3    H144995   2.525   1.691   3.869  0.5431 -0.2532 -2.1046
 7860TIP3    H244996   2.377   1.669   3.851 -0.2973  1.0037  2.6480
 7861TIP3   OH244997   5.567   3.142  16.894  0.2794 -0.5785 -0.2303
 7861TIP3    H144998   5.506   3.188  16.835  1.0047 -0.6629 -1.0588
 7861TIP3    H244999   5.650   3.188  16.883  0.1401  0.1402  1.6281
 7862TIP3   OH245000   3.331   0.536   4.966  0.7998  0.4346 -0.1507
 7862TIP3    H145001   3.327   0.476   4.891 -0.5251  1.5528 -1.0140
 7862TIP3    H245002   3.399   0.599   4.943  0.1047  1.0261 -0.6306
 7863TIP3   OH245003   5.425   2.017   2.939 -0.6919  0.5683  0.1979
 7863TIP3    H145004   5.419   2.110   2.916 -1.2045  0.5382  0.2185
 7863TIP3    H245005   5.350   1.977   2.897 -0.5275  0.1784  0.2791
 7864TIP3   OH245006   2.009   5.751   0.692  0.0371 -0.3606 -0.7687
 7864TIP3    H145007   2.072   5.804   0.740 -1.6502  2.5224 -1.6013
 7864TIP3    H245008   2.055   5.669   0.674  1.3872 -0.8149  3.9872
 7865TIP3   OH245009   3.417   4.754   4.756  0.0579 -0.7362 -0.0695
 7865TIP3    H145010   3.327   4.786   4.757 -0.1451 -1.3268  1.3212
 7865TIP3    H245011   3.463   4.813   4.696 -1.2333 -0.3854 -0.7247
 7866TIP3   OH245012   0.876   2.891   4.257 -0.5032 -0.2430 -0.0285
 7866TIP3    H145013   0.857   2.985   4.246  0.8415 -0.0309 -0.6991
 7866TIP3    H245014   0.919   2.885   4.343  0.6453 -0.0326 -0.5744
 7867TIP3   OH245015   2.467   1.209   0.634  0.0417 -0.2931  0.4620
 7867TIP3    H145016   2.496   1.299   0.630 -1.1406  0.0795 -0.1788
 7867TIP3    H245017   2.538   1.158   0.595 -0.4801  0.6765 -1.8700
 7868TIP3   OH245018   5.981   0.702   5.675 -0.8031  0.0730 -0.3164
 7868TIP3    H145019   6.072   0.676   5.665 -0.3165  1.8827 -0.6991
 7868TIP3    H245020   5.982   0.768   5.743 -1.8859 -0.1415 -0.0787
 7869TIP3   OH245021   6.496   3.533  15.099 -0.4643 -0.0518  0.1503
 7869TIP3    H145022   6.535   3.596  15.038 -1.2181  0.5176  0.2535
 7869TIP3    H245023   6.403   3.531  15.076 -0.7233  0.0421  1.1676
 7870TIP3   OH245024   0.975   0.200  13.194 -0.0626  0.1033  0.2697
 7870TIP3    H145025   0.929   0.281  13.215 -0.9753 -0.1995 -0.5182
 7870TIP3    H245026   0.958   0.142  13.269  0.3105  0.5210  0.6781
 7871TIP3   OH245027   3.584   5.929  16.831 -0.3594 -0.1318  0.1831
 7871TIP3    H145028   3.658   5.927  16.770 -0.4284 -3.4786  0.1267
 7871TIP3    H245029   3.519   5.984  16.789  1.0257  0.5678 -1.0615
 7872TIP3   OH245030   1.602   2.782  14.232  0.5569  0.0322 -0.1199
 7872TIP3    H145031   1.601   2.693  14.268  1.1893  0.2787  0.5347
 7872TIP3    H245032   1.675   2.782  14.171  1.3669  0.4682  0.8484
 7873TIP3   OH245033   3.520   4.498  11.571  0.2786  0.4636  0.5164
 7873TIP3    H145034   3.561   4.580  11.541  0.4214 -0.3391 -1.5782
 7873TIP3    H245035   3.427   4.518  11.575  0.3105  0.7344 -0.0098
 7874TIP3   OH245036   3.907   1.488   0.676 -0.1351 -0.2669  0.2286
 7874TIP3    H145037   3.898   1.407   0.727 -0.3856 -0.8156 -0.6745
 7874TIP3    H245038   3.820   1.526   0.676 -0.0429 -0.0523  0.5546
 7875TIP3   OH245039   3.334   5.362  15.955  0.3093  0.6889  0.0806
 7875TIP3    H145040   3.408   5.320  15.999 -0.4731 -0.2201  0.5350
 7875TIP3    H245041   3.366   5.379  15.866  0.8832 -0.2130  0.1057
 7876TIP3   OH245042   2.379   6.057   5.097 -0.5683 -0.0106  0.3560
 7876TIP3    H145043   2.394   6.151   5.096  0.4876 -0.1907 -0.7873
 7876TIP3    H245044   2.423   6.027   5.177 -1.1581  0.4987  0.8791
 7877TIP3   OH245045   4.213   5.842  12.481 -0.0694  0.6212  0.1122
 7877TIP3    H145046   4.237   5.909  12.545 -0.5537  1.9396 -1.0675
 7877TIP3    H245047   4.117   5.836  12.487  0.1494 -1.6633  1.8713
 7878TIP3   OH245048   4.918   1.213  14.860  0.2364 -0.4454 -0.2141
 7878TIP3    H145049   4.920   1.158  14.782 -0.5887  0.4890 -0.9038
 7878TIP3    H245050   4.997   1.266  14.854 -1.0170  1.3047 -1.6621
 7879TIP3   OH245051   1.981   3.061  16.634  0.3070 -0.2667 -0.2309
 7879TIP3    H145052   2.026   3.083  16.552 -1.1236  0.6479 -0.8091
 7879TIP3    H245053   1.915   2.996  16.609 -1.7555  1.7683 -0.3145
 7880TIP3   OH245054   5.154   0.245   3.310 -0.3775  0.5579  0.3250
 7880TIP3    H145055   5.228   0.203   3.354 -2.0432 -0.8168  1.8882
 7880TIP3    H245056   5.143   0.195   3.229  0.5618  0.9529 -0.0605
 7881TIP3   OH245057   4.699   2.211  12.365  0.4627 -0.4622 -0.5358
 7881TIP3    H145058   4.689   2.295  12.321  1.7759  0.3864  0.7483
 7881TIP3    H245059   4.793   2.201  12.377  0.3374 -2.1766 -0.7593
 7882TIP3   OH245060   1.685   0.567   1.840 -0.3631 -0.2265  0.1302
 7882TIP3    H145061   1.657   0.640   1.895  0.4498  0.0444  0.1932
 7882TIP3    H245062   1.780   0.573   1.839 -0.4047  0.2043 -1.8963
 7883TIP3   OH245063   0.814   3.359   5.494  0.2971  0.0522 -0.1714
 7883TIP3    H145064   0.814   3.391   5.404 -2.4454 -1.6320 -0.8106
 7883TIP3    H245065   0.862   3.426   5.543 -0.6159  2.3949 -2.3914
 7884TIP3   OH245066   0.208   2.132   0.981 -0.4773 -0.0171 -0.3675
 7884TIP3    H145067   0.211   2.219   1.022  0.0058  0.6710 -1.7998
 7884TIP3    H245068   0.132   2.136   0.922  0.9189  0.3047 -2.2223
 7885TIP3   OH245069   0.273   6.210   5.855  0.2315  0.2390  0.2035
 7885TIP3    H145070   0.220   6.268   5.910  0.1120 -0.0970  0.4456
 7885TIP3    H245071   0.343   6.180   5.912  1.3185  1.5207 -0.4124
 7886TIP3   OH245072   3.607   0.055  14.635 -0.5710 -0.0295 -0.0781
 7886TIP3    H145073   3.648  -0.006  14.697 -0.6926  0.8637  0.8908
 7886TIP3    H245074   3.570   0.124  14.690 -2.1207 -0.0782 -1.0367
 7887TIP3   OH245075   5.301   2.378  11.722  0.3107  0.7736 -0.1954
 7887TIP3    H145076   5.287   2.443  11.791  1.5748  0.9980 -0.1366
 7887TIP3    H245077   5.333   2.300  11.769  0.4330  0.6729 -0.4441
 7888TIP3   OH245078   2.090   5.042  12.098 -0.2802 -0.1374 -0.3956
 7888TIP3    H145079   2.055   5.108  12.038  2.5995  3.0329  1.2187
 7888TIP3    H245080   2.179   5.026  12.067  0.3814 -0.3115  1.5101
 7889TIP3   OH245081   4.281   5.635  16.339  0.0903  0.5384  0.6517
 7889TIP3    H145082   4.336   5.599  16.409 -0.8725 -0.3945  0.9460
 7889TIP3    H245083   4.321   5.601  16.259 -0.4136 -0.6686  0.8925
 7890TIP3   OH245084   5.776   2.799   0.625  0.0496  0.3790  0.1506
 7890TIP3    H145085   5.843   2.805   0.556 -1.0171  1.5719 -0.7899
 7890TIP3    H245086   5.787   2.710   0.660  3.3845  1.1868  1.3213
 7891TIP3   OH245087   0.681   5.241  13.542  0.2507  0.4286 -0.0033
 7891TIP3    H145088   0.597   5.238  13.498  0.5998 -0.1797 -0.6468
 7891TIP3    H245089   0.674   5.175  13.611 -0.6116  2.0041  1.4584
 7892TIP3   OH245090   5.618   2.077  11.873 -0.0450  0.1404  0.0854
 7892TIP3    H145091   5.559   2.149  11.898 -1.1652 -0.4759 -0.7230
 7892TIP3    H245092   5.607   2.011  11.941  0.4065  0.4087  0.4205
 7893TIP3   OH245093   1.991   3.127  11.724  0.0589 -0.6935 -0.1278
 7893TIP3    H145094   2.031   3.195  11.778 -0.2393 -0.5855 -0.0471
 7893TIP3    H245095   2.002   3.159  11.634 -0.8548 -0.1311 -0.0403
 7894TIP3   OH245096   2.308   0.305   3.989 -0.1208 -0.1614 -0.1532
 7894TIP3    H145097   2.284   0.251   3.914 -1.4612  1.1449 -0.6747
 7894TIP3    H245098   2.402   0.319   3.980  0.0343 -1.4397 -0.6295
 7895TIP3   OH245099   5.303   1.049   2.017  0.4545  0.3698 -0.2113
 7895TIP3    H145100   5.216   1.046   1.977 -0.0258 -0.2842  0.8691
 7895TIP3    H245101   5.363   1.044   1.942 -0.4246  0.6209 -0.9509
 7896TIP3   OH245102   1.950   1.568   1.638 -0.3698 -0.4026 -0.2161
 7896TIP3    H145103   1.943   1.640   1.575 -2.6873 -0.3120  0.0781
 7896TIP3    H245104   2.042   1.567   1.664 -0.3331  2.6312 -0.0560
 7897TIP3   OH245105   0.347   2.459  16.668  0.0179  0.1649 -0.5392
 7897TIP3    H145106   0.423   2.496  16.713 -0.2520 -0.5676  0.5331
 7897TIP3    H245107   0.282   2.529  16.669  0.5240  0.6506 -1.0964
 7898TIP3   OH245108   0.204   3.302   2.659 -0.3786  0.4345  0.0222
 7898TIP3    H145109   0.248   3.244   2.721  0.4395  0.7452 -0.2676
 7898TIP3    H245110   0.151   3.243   2.606 -0.5258  0.0878  0.5487
 7899TIP3   OH245111   1.012   5.754  11.954 -0.3046 -0.6594 -0.0276
 7899TIP3    H145112   1.053   5.738  12.039  1.1902  0.3695 -0.5357
 7899TIP3    H245113   0.961   5.834  11.967 -0.1612 -0.5609 -0.0744
 7900TIP3   OH245114   3.175   4.799  15.019 -0.4575  0.1057 -0.1109
 7900TIP3    H145115   3.264   4.769  15.038 -0.6907  0.0241  0.8409
 7900TIP3    H245116   3.148   4.746  14.944  0.5367  0.5945 -0.8233
 7901TIP3   OH245117   6.038   2.726  16.246 -0.5922  0.4617 -0.2226
 7901TIP3    H145118   5.966   2.715  16.184  0.2636  2.1094 -1.5328
 7901TIP3    H245119   6.091   2.648  16.235 -0.9085  0.3458 -0.9433
 7902TIP3   OH245120   3.378   1.932   0.565 -0.7579 -0.1009  0.2888
 7902TIP3    H145121   3.385   1.956   0.657  1.6440 -0.0689  0.1313
 7902TIP3    H245122   3.415   2.007   0.518  0.1350 -1.0731 -0.5752
 7903TIP3   OH245123   0.803   6.000   5.881 -0.4101  0.9409  0.1212
 7903TIP3    H145124   0.779   5.932   5.944  0.9275 -0.2606 -0.6397
 7903TIP3    H245125   0.792   6.082   5.930 -1.5132  0.1728  1.2218
 7904TIP3   OH245126   0.786   3.158  12.239  0.3588 -0.3454 -0.0005
 7904TIP3    H145127   0.876   3.171  12.208  0.0624  0.1959 -0.6345
 7904TIP3    H245128   0.731   3.176  12.162 -0.3441  0.2956  0.6514
 7905TIP3   OH245129   6.717   5.695  15.778  0.3211  0.4539 -0.0187
 7905TIP3    H145130   6.745   5.639  15.706  2.5403  2.5549 -0.8532
 7905TIP3    H245131   6.627   5.719  15.757 -0.2090 -1.6712 -0.3086
 7906TIP3   OH245132   5.745   2.140  15.620 -0.1659 -0.3493 -0.1768
 7906TIP3    H145133   5.820   2.125  15.678  0.8990 -0.0253 -1.4241
 7906TIP3    H245134   5.785   2.168  15.537 -1.7122  0.6844 -0.5926
 7907TIP3   OH245135   6.493   5.032  17.063 -0.6325 -0.3958  0.0480
 7907TIP3    H145136   6.443   5.010  17.142  0.0928  1.6755  1.1221
 7907TIP3    H245137   6.451   4.981  16.994 -2.0963 -1.2815  1.5382
 7908TIP3   OH245138   1.150   5.624   4.093 -0.1367  0.2851  0.2644
 7908TIP3    H145139   1.080   5.685   4.115 -1.3432 -1.2265  0.7743
 7908TIP3    H245140   1.181   5.591   4.177 -0.3071 -0.6669 -0.0343
 7909TIP3   OH245141   4.937   2.066  12.265  0.0387  0.3653  0.7108
 7909TIP3    H145142   5.016   2.115  12.241 -1.1570  3.1583  2.1779
 7909TIP3    H245143   4.905   2.029  12.183 -0.0010  3.6466 -0.8428
 7910TIP3   OH245144   0.134   5.753  15.953 -0.8967 -0.3731 -0.1468
 7910TIP3    H145145   0.057   5.732  15.900 -0.1296 -0.7352 -1.1364
 7910TIP3    H245146   0.109   5.833  16.000 -0.8004  1.3140 -2.8301
 7911TIP3   OH245147   4.138   5.288   2.180  0.2656 -0.2464 -0.3068
 7911TIP3    H145148   4.172   5.218   2.235  0.8082 -0.3626 -0.7814
 7911TIP3    H245149   4.216   5.338   2.155  0.0294 -0.2360 -1.0217
 7912TIP3   OH245150   0.784   2.267   6.176 -0.5766 -0.5891 -0.1595
 7912TIP3    H145151   0.777   2.341   6.236 -1.2309 -0.4351 -0.4227
 7912TIP3    H245152   0.877   2.262   6.155 -0.2371 -1.0321  1.3480
 7913TIP3   OH245153   0.066   2.086   1.379 -0.0624 -0.4636  0.3541
 7913TIP3    H145154   0.092   2.175   1.357  0.5671 -1.0661 -1.4600
 7913TIP3    H245155   0.149   2.040   1.396 -0.2247 -1.2584 -0.9452
 7914TIP3   OH245156   6.264   0.509  14.330  0.4981 -0.7713  0.2673
 7914TIP3    H145157   6.355   0.524  14.304  0.3887  4.2016  2.1819
 7914TIP3    H245158   6.270   0.470  14.417  0.7454 -2.9260 -0.6815
 7915TIP3   OH245159   2.133   2.460  13.147  0.1650  0.0751 -0.3050
 7915TIP3    H145160   2.177   2.532  13.101  0.6895 -1.1683 -1.7988
 7915TIP3    H245161   2.139   2.484  13.240 -1.3642  2.8870 -0.8766
 7916TIP3   OH245162   5.540   6.007   0.730  0.0914 -0.1887  0.1447
 7916TIP3    H145163   5.539   5.957   0.648 -0.6251 -0.9611  0.6159
 7916TIP3    H245164   5.633   6.008   0.755  0.0626 -1.7236  0.3782
 7917TIP3   OH245165   3.169   2.083  11.772 -0.4594  0.0592  0.0920
 7917TIP3    H145166   3.250   2.123  11.803 -1.1409  1.9135 -0.4560
 7917TIP3    H245167   3.120   2.061  11.851 -0.2237  0.6337  0.3975
 7918TIP3   OH245168   3.530   2.954  15.417 -0.5584  0.5785 -0.3203
 7918TIP3    H145169   3.547   2.967  15.510 -1.8889  1.4670 -0.1779
 7918TIP3    H245170   3.612   2.978  15.374 -0.4853  1.8529  0.5047
 7919TIP3   OH245171   3.731   1.518  16.017  0.0572 -1.0147  0.4966
 7919TIP3    H145172   3.819   1.509  16.055  1.0051 -0.1993 -1.4326
 7919TIP3    H245173   3.714   1.612  16.018 -0.1963 -1.0485 -0.4444
 7920TIP3   OH245174   0.575   2.251   5.778 -1.2620  0.0200 -0.0840
 7920TIP3    H145175   0.498   2.290   5.820 -0.6937  0.3769  0.6456
 7920TIP3    H245176   0.541   2.178   5.727 -2.0664  0.0629  0.3895
 7921TIP3   OH245177   1.514   5.657  12.810  0.0490  0.8226 -0.9422
 7921TIP3    H145178   1.419   5.642  12.803  0.4154 -1.5051 -1.1932
 7921TIP3    H245179   1.525   5.697  12.896 -1.1906  1.3431 -1.0049
 7922TIP3   OH245180   5.008   3.346   1.402  0.5051 -0.0791  0.2981
 7922TIP3    H145181   4.921   3.338   1.362 -0.0946  2.3342  1.0248
 7922TIP3    H245182   4.993   3.333   1.495  1.2065 -1.2809  0.2539
 7923TIP3   OH245183   0.010   0.038   5.151 -0.4219  0.0827 -0.5144
 7923TIP3    H145184   0.091   0.012   5.108 -0.5532  0.0858 -0.7673
 7923TIP3    H245185  -0.039   0.084   5.083 -0.4970  0.3642 -0.2710
 7924TIP3   OH245186   5.850   2.445  13.114  0.1178 -0.2910  0.2119
 7924TIP3    H145187   5.945   2.459  13.119  0.2964 -0.8269 -1.3602
 7924TIP3    H245188   5.833   2.427  13.021 -1.7079  1.0123  0.2727
 7925TIP3   OH245189   1.452   4.259  11.005  0.0133  0.2101 -0.4682
 7925TIP3    H145190   1.439   4.266  11.100  1.2623 -0.6770 -0.2174
 7925TIP3    H245191   1.503   4.336  10.982 -1.9230  1.4533 -0.7622
 7926TIP3   OH245192   1.648   0.874  13.822 -0.3184 -0.7114 -0.0019
 7926TIP3    H145193   1.684   0.801  13.771 -0.5012 -0.1721 -0.9306
 7926TIP3    H245194   1.725   0.919  13.857 -0.1439 -0.4423 -0.7249
 7927TIP3   OH245195   0.696   4.537  14.126 -0.0474  0.3732  0.4001
 7927TIP3    H145196   0.737   4.451  14.131  0.4862  0.5999 -0.0446
 7927TIP3    H245197   0.720   4.581  14.207 -0.2159  0.1485  0.5707
 7928TIP3   OH245198   4.685   3.614   0.691  0.0560 -0.7307  0.2204
 7928TIP3    H145199   4.728   3.698   0.680 -0.0955 -0.4701  1.5495
 7928TIP3    H245200   4.756   3.553   0.710 -0.1478 -0.2321  2.7893
 7929TIP3   OH245201   3.195   0.777  15.917  0.4529  0.5528 -0.2858
 7929TIP3    H145202   3.227   0.687  15.916 -1.8671 -0.3050 -0.5594
 7929TIP3    H245203   3.125   0.777  15.983 -0.8867  1.6618 -1.6758
 7930TIP3   OH245204   5.315   3.445   1.476 -0.1777  0.9294  0.0368
 7930TIP3    H145205   5.324   3.483   1.389 -0.7926 -1.2902 -1.0378
 7930TIP3    H245206   5.229   3.403   1.475  0.7381 -1.0192  0.9334
 7931TIP3   OH245207   5.611   3.975   4.928  0.3202  0.3062 -0.1433
 7931TIP3    H145208   5.674   4.047   4.922 -0.9886  1.4018 -1.2405
 7931TIP3    H245209   5.531   4.016   4.961 -0.8287 -0.3546 -2.0218
 7932TIP3   OH245210   2.353   0.636  11.559  0.6198 -0.4151  0.4711
 7932TIP3    H145211   2.258   0.648  11.549  0.9453 -0.0811 -2.7898
 7932TIP3    H245212   2.365   0.541  11.559  0.2158 -0.4657  1.6261
 7933TIP3   OH245213   0.481   0.472   6.854  0.3531  0.0976  0.0690
 7933TIP3    H145214   0.397   0.513   6.834 -0.1700 -0.6386  0.7172
 7933TIP3    H245215   0.546   0.534   6.823 -0.4327 -0.0309 -1.9164
 7934TIP3   OH245216   2.179   3.344   4.770 -0.0896  0.0226 -0.2999
 7934TIP3    H145217   2.169   3.416   4.832  2.1261  0.4388 -0.3828
 7934TIP3    H245218   2.238   3.379   4.703 -0.8880 -1.0884 -1.6146
 7935TIP3   OH245219   5.443   2.082   5.279 -0.1924  0.2941 -0.3319
 7935TIP3    H145220   5.426   2.058   5.370 -0.5451 -0.8920 -0.6972
 7935TIP3    H245221   5.535   2.105   5.277 -0.0422 -0.2462  0.2094
 7936TIP3   OH245222   3.939   5.727  15.690  0.5678  0.9602  0.4433
 7936TIP3    H145223   3.969   5.809  15.650  1.9808  0.0794 -0.3467
 7936TIP3    H245224   4.017   5.690  15.730  0.6429 -1.4951 -1.8380
 7937TIP3   OH245225   2.968   4.662  11.625  0.1674 -0.2727  0.4836
 7937TIP3    H145226   2.984   4.642  11.533  0.2220 -0.6456  0.5727
 7937TIP3    H245227   2.942   4.578  11.664  0.2978 -0.1487  0.8419
 7938TIP3   OH245228   3.714   6.139   4.420 -0.8394 -0.4623 -0.0255
 7938TIP3    H145229   3.694   6.222   4.463 -0.3639 -0.2316 -0.2491
 7938TIP3    H245230   3.634   6.117   4.371 -0.8646  0.0036 -0.1944
 7939TIP3   OH245231   3.368   6.062  12.635  0.0137  0.1948 -0.3066
 7939TIP3    H145232   3.393   6.151  12.612 -0.2104  0.1659 -0.6528
 7939TIP3    H245233   3.361   6.063  12.731 -0.5660  0.6960 -0.3564
 7940TIP3   OH245234   1.068   3.327   0.289 -0.3273  0.1668 -0.5409
 7940TIP3    H145235   1.133   3.388   0.255  1.2036 -1.2329 -0.1681
 7940TIP3    H245236   1.063   3.258   0.224 -2.8485  1.1800 -1.4822
 7941TIP3   OH245237   0.800   6.132   4.543  0.0255  0.2159 -0.0478
 7941TIP3    H145238   0.792   6.089   4.458  0.6261 -1.5059  0.7389
 7941TIP3    H245239   0.789   6.061   4.607 -0.6268  1.5242  1.3096
 7942TIP3   OH245240   1.012   2.094   1.524 -0.2906 -0.0913  0.0042
 7942TIP3    H145241   0.966   2.176   1.542  1.0497  0.8895 -0.8995
 7942TIP3    H245242   1.104   2.115   1.540  0.0318 -1.5595  0.1973
 7943TIP3   OH245243   0.899   4.339   6.301 -0.0057 -0.1177 -0.7301
 7943TIP3    H145244   0.981   4.378   6.332 -0.7638  1.9496 -1.2743
 7943TIP3    H245245   0.923   4.293   6.221  1.1102 -1.7473  0.5006
 7944TIP3   OH245246   3.756   3.376  11.168  0.6893  0.4642  0.3934
 7944TIP3    H145247   3.766   3.316  11.094  1.8518  0.0720  0.8695
 7944TIP3    H245248   3.666   3.408  11.160  0.0849 -1.2914  0.1115
 7945TIP3   OH245249   1.590   3.190  11.041  0.1048 -0.3705 -0.3316
 7945TIP3    H145250   1.611   3.169  10.950 -0.7680 -0.0654 -0.6069
 7945TIP3    H245251   1.496   3.209  11.041  0.2678  0.5274  0.4611
 7946TIP3   OH245252   1.506   1.149   2.983 -0.5923  0.1447  0.0783
 7946TIP3    H145253   1.496   1.128   3.076  1.5106 -0.7241  0.1247
 7946TIP3    H245254   1.501   1.244   2.978  2.0053  0.3728  1.4377
 7947TIP3   OH245255   6.641   0.559   2.136 -0.1793  0.4212 -0.5454
 7947TIP3    H145256   6.711   0.512   2.182 -0.9296  0.6817  0.8926
 7947TIP3    H245257   6.659   0.652   2.154 -0.6395  0.5145 -0.5656
 7948TIP3   OH245258   2.223   1.473   0.654 -0.1948 -1.1431 -0.2236
 7948TIP3    H145259   2.193   1.383   0.662 -0.9048 -0.7638  1.8612
 7948TIP3    H245260   2.186   1.504   0.572 -3.5058 -1.4857  1.0459
 7949TIP3   OH245261   0.815   0.546   2.909 -0.6375  0.6427  0.1931
 7949TIP3    H145262   0.839   0.517   2.821 -0.5603  2.0238 -0.2596
 7949TIP3    H245263   0.865   0.627   2.922 -3.2422  2.3223  0.1270
 7950TIP3   OH245264   5.580   5.808   4.370  0.1900 -0.5371  0.1936
 7950TIP3    H145265   5.658   5.854   4.400 -0.1186  0.0699  0.0745
 7950TIP3    H245266   5.595   5.791   4.277 -0.9372  1.9340 -0.4783
 7951TIP3   OH245267   5.701   4.688  14.590 -0.6303  0.1760  0.2886
 7951TIP3    H145268   5.784   4.684  14.542  0.0763 -0.2435  1.5013
 7951TIP3    H245269   5.644   4.741  14.535  0.0722 -0.4796 -1.1127
 7952TIP3   OH245270   4.267   4.203   2.437  0.3267 -0.1037  0.2281
 7952TIP3    H145271   4.213   4.245   2.505 -0.9748  0.7419 -1.3078
 7952TIP3    H245272   4.252   4.109   2.450 -0.0102  0.0510  1.0340
 7953TIP3   OH245273   2.775   1.137  14.204  0.4417 -0.7003 -0.6593
 7953TIP3    H145274   2.832   1.138  14.127 -0.4760 -1.3936 -1.3713
 7953TIP3    H245275   2.715   1.064  14.188 -0.1833 -0.4298  0.4038
 7954TIP3   OH245276   1.833   1.869  15.436 -0.0595 -0.3163 -0.0797
 7954TIP3    H145277   1.781   1.931  15.385  0.2000  0.1806  0.2466
 7954TIP3    H245278   1.923   1.883  15.406  0.2169  0.6115  1.1257
 7955TIP3   OH245279   4.368   0.558  16.907 -0.5749  0.1265  0.2089
 7955TIP3    H145280   4.299   0.557  16.973 -0.1379 -0.8210  0.6642
 7955TIP3    H245281   4.321   0.570  16.824 -1.2567 -0.1154  0.5517
 7956TIP3   OH245282   5.508   3.592  10.763  0.0651  0.0801 -0.4094
 7956TIP3    H145283   5.523   3.676  10.719 -0.0096  0.7038  0.7495
 7956TIP3    H245284   5.491   3.615  10.854 -1.9694 -1.0471 -0.4790
 7957TIP3   OH245285   2.030   1.720  16.518 -0.3335 -0.2736 -0.6620
 7957TIP3    H145286   2.118   1.758  16.522 -1.0832  1.9580 -3.3893
 7957TIP3    H245287   1.998   1.723  16.608  2.1447 -0.5384  0.2581
 7958TIP3   OH245288   2.863   4.171   1.570  0.3820  0.3259  0.1208
 7958TIP3    H145289   2.901   4.097   1.618  1.3290  0.1416 -0.8761
 7958TIP3    H245290   2.889   4.248   1.620  1.9890  0.1882 -0.4475
 7959TIP3   OH245291   5.745   1.784  16.895  0.0541  0.0040 -0.3306
 7959TIP3    H145292   5.668   1.839  16.880 -0.3790  0.1001  2.0902
 7959TIP3    H245293   5.714   1.715  16.953  1.4073 -0.9003 -0.6539
 7960TIP3   OH245294   6.430   2.930   1.434 -0.2613 -0.2694  0.2975
 7960TIP3    H145295   6.370   3.003   1.448  0.2775  0.1989  0.2116
 7960TIP3    H245296   6.374   2.853   1.429 -1.2051  0.5237 -3.1409
 7961TIP3   OH245297   4.286   4.752   1.757  0.1497  0.1516 -0.0800
 7961TIP3    H145298   4.369   4.777   1.798 -0.0407  0.2235  0.2670
 7961TIP3    H245299   4.272   4.661   1.783 -0.0846  0.2674  0.2110
 7962TIP3   OH245300   3.915   1.705   2.426 -0.2568  0.1839  0.5546
 7962TIP3    H145301   3.990   1.764   2.412 -0.0334 -0.4854 -1.2200
 7962TIP3    H245302   3.947   1.639   2.487  0.0982  0.8164  1.0554
 7963TIP3   OH245303   1.425   3.614  15.558  0.0373  0.4567 -0.2700
 7963TIP3    H145304   1.491   3.576  15.501 -0.1693  1.7222 -1.3746
 7963TIP3    H245305   1.462   3.698  15.586  0.0910 -0.1007  1.3801
 7964TIP3   OH245306   5.860   0.145   3.693  0.2391 -1.0610  0.8844
 7964TIP3    H145307   5.859   0.126   3.599 -0.4254 -0.2958  0.7301
 7964TIP3    H245308   5.853   0.240   3.698 -0.4189 -1.1488  1.7228
 7965TIP3   OH245309   1.860   4.031   4.885  0.1325  0.1638  0.3683
 7965TIP3    H145310   1.847   4.069   4.798 -0.3450 -1.1480 -0.1450
 7965TIP3    H245311   1.954   4.037   4.900  0.1175  1.1403  0.1127
 7966TIP3   OH245312   6.179   0.079  17.011  1.0064  0.5232  0.6469
 7966TIP3    H145313   6.203   0.018  17.081  1.1497 -1.1831 -0.8334
 7966TIP3    H245314   6.127   0.146  17.054  1.2297 -0.4052  2.4179
 7967TIP3   OH245315   3.942   0.445   5.812 -0.3366  0.3481 -0.0886
 7967TIP3    H145316   4.016   0.494   5.849  1.2034 -0.4111 -2.0406
 7967TIP3    H245317   3.983   0.369   5.770 -2.3544 -0.6991 -0.2068
 7968TIP3   OH245318   1.677   3.545  16.992  0.2101 -0.5195 -0.3254
 7968TIP3    H145319   1.616   3.472  16.981  0.9676 -1.5617  2.0235
 7968TIP3    H245320   1.757   3.505  17.028  1.7024  1.0522 -1.7757
 7969TIP3   OH245321   4.886   2.998  11.612 -0.1839 -0.0414 -0.6656
 7969TIP3    H145322   4.852   3.086  11.627  0.8636  0.5118 -1.4826
 7969TIP3    H245323   4.960   2.990  11.673  0.5240  0.1256 -1.4925
 7970TIP3   OH245324   6.209   6.534   1.858  0.1609 -0.0224  0.1328
 7970TIP3    H145325   6.226   6.448   1.896 -0.7350  0.9012  2.6820
 7970TIP3    H245326   6.115   6.535   1.842  0.4666 -0.2510 -1.8323
 7971TIP3   OH245327   3.131   3.742  14.773 -0.2417 -0.3382 -0.1919
 7971TIP3    H145328   3.037   3.755  14.785 -0.1889  0.4104 -0.6103
 7971TIP3    H245329   3.171   3.778  14.853 -0.1966  0.7916 -0.7223
 7972TIP3   OH245330   5.778   4.265  16.104 -0.1418  0.3273 -0.2809
 7972TIP3    H145331   5.842   4.258  16.175 -1.8022 -3.6292  0.9441
 7972TIP3    H245332   5.830   4.287  16.027  2.3647 -0.3018  1.1679
 7973TIP3   OH245333   1.302   3.913   2.652 -0.2028 -0.4243  0.2984
 7973TIP3    H145334   1.351   3.861   2.588 -0.2946 -1.2218  0.8727
 7973TIP3    H245335   1.287   3.853   2.725  2.9828  1.4461  2.6344
 7974TIP3   OH245336   1.984   6.283  12.369  0.1958 -0.2065  0.2678
 7974TIP3    H145337   1.930   6.361  12.357 -0.4430 -0.1070  3.3929
 7974TIP3    H245338   2.068   6.318  12.401  0.0773 -0.7413  1.1802
 7975TIP3   OH245339   1.353   1.320   3.560  0.0843  0.2520  0.3250
 7975TIP3    H145340   1.366   1.333   3.466  0.5341 -0.7051  0.2420
 7975TIP3    H245341   1.441   1.298   3.593 -0.0026  0.9696  1.0307
 7976TIP3   OH245342   5.787   6.469   5.764 -0.7602 -0.5484  0.2974
 7976TIP3    H145343   5.843   6.446   5.690 -0.0586 -0.5519  0.8215
 7976TIP3    H245344   5.737   6.545   5.733  0.1226 -0.0384  0.0975
 7977TIP3   OH245345   2.538   2.757  12.390 -0.0493  0.2450  0.1847
 7977TIP3    H145346   2.572   2.769  12.302  0.9387 -0.9769  0.3845
 7977TIP3    H245347   2.482   2.833  12.405  0.0629  0.6369 -1.3548
 7978TIP3   OH245348   4.748   5.972  12.084 -0.0793 -0.4917 -0.4033
 7978TIP3    H145349   4.821   5.920  12.049  1.6860  1.5449  0.2026
 7978TIP3    H245350   4.728   6.035  12.014  1.4072  1.5591  0.9771
 7979TIP3   OH245351   1.797   0.600   0.162 -0.3836 -0.3796  0.2069
 7979TIP3    H145352   1.730   0.634   0.222 -0.0027  1.0467 -0.1652
 7979TIP3    H245353   1.747   0.565   0.088 -0.8252 -1.5942  1.0660
 7980TIP3   OH245354   6.139   1.258   2.708 -0.1269  0.6592 -0.1293
 7980TIP3    H145355   6.141   1.243   2.613  0.4174  1.1984 -0.2111
 7980TIP3    H245356   6.046   1.256   2.731 -0.1666 -1.1490 -0.3897
 7981TIP3   OH245357   0.979   0.991   6.159 -0.0020  0.4699  0.3043
 7981TIP3    H145358   1.066   0.952   6.148 -0.2116 -0.0308  0.4169
 7981TIP3    H245359   0.964   0.988   6.254  0.0685  1.0132  0.3314
 7982TIP3   OH245360   3.760   4.588  13.654  0.3125 -0.2496  0.1563
 7982TIP3    H145361   3.823   4.624  13.592  0.7905  0.3013  0.9569
 7982TIP3    H245362   3.705   4.529  13.602  0.7199  0.2040 -0.7750
 7983TIP3   OH245363   1.652   4.269   0.077  0.4827  0.6238  0.1425
 7983TIP3    H145364   1.642   4.214  -0.001  0.9863 -0.0625  0.5574
 7983TIP3    H245365   1.631   4.357   0.046 -1.4370  0.0464 -0.2719
 7984TIP3   OH245366   3.108   1.854   5.061  0.6817 -0.4857  0.4565
 7984TIP3    H145367   3.178   1.884   5.118  1.3395 -1.7053  0.2924
 7984TIP3    H245368   3.149   1.841   4.976  0.2165 -0.9711  0.2967
 7985TIP3   OH245369   5.281   0.816   0.836  0.4356 -0.2840 -0.0914
 7985TIP3    H145370   5.234   0.737   0.809  0.8889 -0.6909  0.3025
 7985TIP3    H245371   5.262   0.880   0.767 -1.7106 -0.0354  0.6882
 7986TIP3   OH245372   4.654   2.248   0.517  0.1034 -0.1080  0.5010
 7986TIP3    H145373   4.691   2.237   0.605  1.2682 -0.6320 -0.0391
 7986TIP3    H245374   4.578   2.190   0.515  0.2967 -0.3814  1.0339
 7987TIP3   OH245375   1.584   5.004   3.900 -0.1641  0.1431 -0.2041
 7987TIP3    H145376   1.499   5.042   3.878  0.2551  1.0290 -0.3365
 7987TIP3    H245377   1.611   5.051   3.979  1.0754  1.2263 -1.2583
 7988TIP3   OH245378   4.138   0.439   3.948  0.1173  0.1038  0.1932
 7988TIP3    H145379   4.144   0.351   3.983 -0.1266 -0.2182 -0.5561
 7988TIP3    H245380   4.046   0.450   3.924  0.6050 -0.3484 -2.0030
 7989TIP3   OH245381   3.710   0.341  13.723  0.0009  0.3596 -0.0028
 7989TIP3    H145382   3.770   0.267  13.726  0.5055  0.6587 -2.0541
 7989TIP3    H245383   3.623   0.301  13.729  0.2945 -0.3539 -0.3773
 7990TIP3   OH245384   2.571   5.325  16.601 -0.2464 -0.1249 -0.0853
 7990TIP3    H145385   2.638   5.311  16.668 -0.7824 -0.6571  0.3427
 7990TIP3    H245386   2.575   5.247  16.547 -0.7190 -0.2872  0.1138
 7991TIP3   OH245387   6.040   0.854  12.311 -0.1040 -0.1871  0.1157
 7991TIP3    H145388   6.096   0.806  12.250 -0.1132  0.1430 -0.1511
 7991TIP3    H245389   6.028   0.940  12.271  1.0310  0.5196  1.2490
 7992TIP3   OH245390   2.436   5.029  15.621  0.3136  0.4378  0.2658
 7992TIP3    H145391   2.462   5.046  15.531 -0.6834  1.0746  0.0930
 7992TIP3    H245392   2.475   4.945  15.642  2.2824  1.2321 -0.0864
 7993TIP3   OH245393   6.569   3.577   2.924 -0.1776 -0.2471 -0.0236
 7993TIP3    H145394   6.591   3.637   2.853  1.1847 -0.0637  0.5439
 7993TIP3    H245395   6.646   3.522   2.933 -1.5650 -2.4298 -0.8616
 7994TIP3   OH245396   1.988   3.446  11.108  0.4857 -0.2724  0.5028
 7994TIP3    H145397   2.058   3.459  11.044  0.2570 -3.6941 -0.5089
 7994TIP3    H245398   1.943   3.530  11.111  3.1790  1.2926 -0.5460
 7995TIP3   OH245399   0.727   3.699   4.468  0.1731 -0.5872 -0.1581
 7995TIP3    H145400   0.644   3.695   4.421 -0.8125  1.5071  1.3057
 7995TIP3    H245401   0.781   3.631   4.428 -0.5574  1.1652 -4.4031
 7996TIP3   OH245402   3.449   5.701   4.570 -0.0555 -0.4034 -0.6924
 7996TIP3    H145403   3.526   5.670   4.523  0.5335  1.6592 -1.1090
 7996TIP3    H245404   3.375   5.665   4.520  0.5863  0.0115 -1.9649
 7997TIP3   OH245405   4.284   1.027   4.824 -0.0972  0.1626  0.5628
 7997TIP3    H145406   4.379   1.018   4.825 -0.1675 -0.7148  3.0336
 7997TIP3    H245407   4.257   0.993   4.739  1.8034  0.5262 -0.1998
 7998TIP3   OH245408   1.508   0.609  13.832  0.4517  0.0106 -0.0471
 7998TIP3    H145409   1.496   0.690  13.881  1.4586  0.2491 -0.1809
 7998TIP3    H245410   1.466   0.625  13.747  3.3767  1.5444 -1.2559
 7999TIP3   OH245411   4.878   4.641   2.008 -0.1289  0.4017 -0.3074
 7999TIP3    H145412   4.838   4.565   1.966  0.3221 -1.1879  2.0083
 7999TIP3    H245413   4.972   4.629   1.996 -0.0902  0.9260 -0.5057
 8000TIP3   OH245414   1.101   3.167   2.086 -0.4271 -0.4342  0.0162
 8000TIP3    H145415   1.171   3.113   2.049 -1.4736 -1.5944 -0.3328
 8000TIP3    H245416   1.146   3.243   2.124  1.1816 -2.0005  1.3625
 8001TIP3   OH245417   2.488   2.568  16.761 -0.1725  0.9160  0.5801
 8001TIP3    H145418   2.516   2.610  16.680 -1.0213  1.2464  0.4509
 8001TIP3    H245419   2.564   2.572  16.818  0.2437  1.2165  0.0068
 8002TIP3   OH245420   6.496   0.679  11.972  0.0310 -0.0398  0.3752
 8002TIP3    H145421   6.520   0.600  12.022 -1.8412 -0.4324  0.6660
 8002TIP3    H245422   6.470   0.647  11.886 -0.5805  0.2724  0.4399
 8003TIP3   OH245423   0.626   6.479  16.238  0.2284  0.1433 -0.1858
 8003TIP3    H145424   0.657   6.410  16.180 -0.6677 -1.2237  0.9159
 8003TIP3    H245425   0.542   6.446  16.270  0.7607  0.8308  1.9564
 8004TIP3   OH245426   4.417   3.011  14.809  0.0947  0.0611 -0.2014
 8004TIP3    H145427   4.336   2.985  14.852  0.9179 -0.7688  0.8685
 8004TIP3    H245428   4.390   3.038  14.721 -0.9036 -4.0434 -1.2889
 8005TIP3   OH245429   1.980   0.451   2.191  0.1237  0.1464  0.0947
 8005TIP3    H145430   2.052   0.474   2.249  0.3322  1.2743 -0.5937
 8005TIP3    H245431   1.905   0.500   2.224 -0.1540 -0.4818  0.3923
 8006TIP3   OH245432   6.480   3.024  11.868  0.3418  0.0896 -0.4524
 8006TIP3    H145433   6.512   2.972  11.794  2.2957 -1.6491  1.5779
 8006TIP3    H245434   6.546   3.093  11.878 -0.0980  0.5220 -0.5209
 8007TIP3   OH245435   0.810   2.291   5.888  0.1137  0.1618 -0.0037
 8007TIP3    H145436   0.774   2.268   5.974  0.3890  0.3719  0.1689
 8007TIP3    H245437   0.738   2.275   5.827 -0.4573  1.1021  0.4076
 8008TIP3   OH245438   0.895   2.912  12.032  0.0898 -0.2940 -0.2976
 8008TIP3    H145439   0.963   2.897  12.099  1.3895  2.0604 -1.0262
 8008TIP3    H245440   0.937   2.888  11.950 -1.2887 -2.5378 -0.3862
 8009TIP3   OH245441   6.605   6.302   6.314 -0.9505 -0.0925 -0.1219
 8009TIP3    H145442   6.693   6.300   6.277 -0.5467 -0.9899  0.8504
 8009TIP3    H245443   6.548   6.278   6.241 -0.2723 -0.7232 -0.4521
 8010TIP3   OH245444   5.376   0.371  15.927 -1.0019  0.2510 -0.6254
 8010TIP3    H145445   5.341   0.288  15.960 -2.4083 -0.0410 -2.7261
 8010TIP3    H245446   5.366   0.432  16.000  0.1157 -1.4275  0.9667
 8011TIP3   OH245447   1.580   0.135   2.176  0.6209 -0.2331  0.0442
 8011TIP3    H145448   1.549   0.062   2.123  1.7179 -0.5392 -0.1883
 8011TIP3    H245449   1.540   0.121   2.262 -2.7479  1.3224 -1.1837
 8012TIP3   OH245450   0.448   3.369   1.134 -0.1374 -0.5892  0.0882
 8012TIP3    H145451   0.467   3.420   1.055 -0.6694 -1.6373 -0.7295
 8012TIP3    H245452   0.519   3.305   1.139 -1.2233 -1.8790 -0.7135
 8013TIP3   OH245453   2.961   0.245   1.646 -0.3547 -0.2011  0.4036
 8013TIP3    H145454   2.922   0.258   1.559 -0.5875  0.0234  0.5429
 8013TIP3    H245455   2.937   0.156   1.670  0.0118 -0.3874  0.0814
 8014TIP3   OH245456   3.528   2.625   1.010  0.4430  1.0238 -0.5814
 8014TIP3    H145457   3.562   2.692   1.070  0.0606 -0.7662  1.7046
 8014TIP3    H245458   3.466   2.575   1.064 -0.2581 -0.3432 -2.6304
 8015TIP3   OH245459   3.715   0.270   0.798  0.3483 -0.3683 -0.1520
 8015TIP3    H145460   3.631   0.292   0.840 -0.6198 -1.4886 -1.4449
 8015TIP3    H245461   3.772   0.244   0.870  0.4934  3.0785  1.0673
 8016TIP3   OH245462   1.250   6.517   2.473  0.7480 -0.5597 -0.7897
 8016TIP3    H145463   1.254   6.439   2.528  1.6055 -0.0108 -0.0545
 8016TIP3    H245464   1.233   6.484   2.385 -1.2192 -1.4052 -0.1082
 8017TIP3   OH245465   5.276   6.357   2.615  0.1870 -0.0944  0.5285
 8017TIP3    H145466   5.364   6.389   2.637  0.9563 -0.6543 -1.6327
 8017TIP3    H245467   5.281   6.263   2.627 -0.1684 -0.1087  0.5639
 8018TIP3   OH245468   5.267   4.246   3.830  0.6704  0.3193  0.2798
 8018TIP3    H145469   5.174   4.246   3.852  0.2745  0.4095 -1.3243
 8018TIP3    H245470   5.272   4.294   3.747  2.1688  0.4876  0.4531
 8019TIP3   OH245471   2.308   0.727   5.462 -0.3377 -0.8086  0.2604
 8019TIP3    H145472   2.245   0.748   5.393  1.4236  0.2392 -1.0744
 8019TIP3    H245473   2.295   0.794   5.528  0.3439  0.2576 -0.6765
 8020TIP3   OH245474   0.349   5.282   1.014 -0.7568 -0.0692  0.3295
 8020TIP3    H145475   0.301   5.365   1.014  0.8302  0.8637  0.0569
 8020TIP3    H245476   0.406   5.287   0.937 -0.9541 -1.6117  0.0564
 8021TIP3   OH245477   1.892   4.576  14.595 -0.0036 -0.3601  0.6337
 8021TIP3    H145478   1.821   4.640  14.605  0.9934  0.6945  0.9503
 8021TIP3    H245479   1.886   4.521  14.673 -0.4920 -0.3054  0.6400
 8022TIP3   OH245480   1.679   0.998   7.056  0.7226  0.2187 -0.1949
 8022TIP3    H145481   1.586   1.014   7.037  1.0547  1.9555 -0.4504
 8022TIP3    H245482   1.716   0.970   6.972  0.0497 -2.4320  0.3486
 8023TIP3   OH245483   6.128   5.960  14.654 -0.5070 -0.4833  0.1355
 8023TIP3    H145484   6.041   5.979  14.690 -0.2450  1.2574 -0.0926
 8023TIP3    H245485   6.110   5.913  14.572 -1.2477 -0.0621  0.0450
 8024TIP3   OH245486   0.806   4.069  16.096 -0.0639 -0.5908 -0.0126
 8024TIP3    H145487   0.872   4.136  16.080 -1.3022  0.9315  1.1499
 8024TIP3    H245488   0.731   4.096  16.042  0.1615 -2.1987 -1.1750
 8025TIP3   OH245489   5.684   2.136  14.146  0.2209  1.0090 -0.0704
 8025TIP3    H145490   5.604   2.176  14.111 -0.4771 -0.2154  0.0870
 8025TIP3    H245491   5.660   2.044  14.159  1.8869  0.4756 -0.7069
 8026TIP3   OH245492   1.347   6.776  12.913 -0.6700 -0.1384 -0.1625
 8026TIP3    H145493   1.252   6.789  12.919 -0.9861 -1.3554 -1.9927
 8026TIP3    H245494   1.381   6.861  12.885 -1.1865  0.3407  0.6348
 8027TIP3   OH245495   4.581   3.423  14.964 -0.0774  0.0404 -0.7021
 8027TIP3    H145496   4.557   3.458  14.878 -0.1859  0.7103 -0.3980
 8027TIP3    H245497   4.543   3.484  15.027 -0.3004 -0.6453 -0.1698
 8028TIP3   OH245498   1.389   1.766  11.539  0.7640 -0.1543 -0.4530
 8028TIP3    H145499   1.374   1.691  11.596 -0.4139  0.4041 -0.0269
 8028TIP3    H245500   1.445   1.732  11.469  0.0069 -1.5040 -0.4097
 8029TIP3   OH245501   3.666   4.931  13.229  0.1464 -0.0507  0.1595
 8029TIP3    H145502   3.611   4.929  13.151 -0.3875 -1.0193  0.5493
 8029TIP3    H245503   3.702   4.842  13.234 -1.9921 -0.8180  2.5594
 8030TIP3   OH245504   0.508   2.097   0.141 -0.5551  0.2254  0.2106
 8030TIP3    H145505   0.501   2.067   0.050 -0.3943  3.8854 -1.1136
 8030TIP3    H245506   0.599   2.081   0.165 -0.3990 -0.0532 -0.5498
 8031TIP3   OH245507   1.759   2.067   1.755 -0.1651 -0.1783 -0.3862
 8031TIP3    H145508   1.765   2.162   1.770 -2.4698  0.2334 -1.8665
 8031TIP3    H245509   1.836   2.046   1.703 -0.2410  1.0872 -1.0209
 8032TIP3   OH245510   5.756   0.074   2.515 -0.2447  0.5036  0.0485
 8032TIP3    H145511   5.759  -0.020   2.498  0.3449  0.3319  1.1108
 8032TIP3    H245512   5.667   0.100   2.488 -0.5250 -0.4109  0.0688
 8033TIP3   OH245513   4.777   6.066   0.778  0.4603  0.0728 -0.0511
 8033TIP3    H145514   4.834   6.126   0.825  0.5342 -0.0539  0.0223
 8033TIP3    H245515   4.770   6.102   0.690 -0.6946  0.9973  0.4026
 8034TIP3   OH245516   0.753   3.486  13.683 -0.2292  0.0099  0.7760
 8034TIP3    H145517   0.742   3.529  13.768  0.4222 -0.2295  0.9828
 8034TIP3    H245518   0.815   3.415  13.700  0.4690  0.4178 -0.0545
 8035TIP3   OH245519   2.493   1.397   5.754  0.0481 -0.2432 -0.0803
 8035TIP3    H145520   2.513   1.458   5.682  1.6770 -1.5016 -0.7216
 8035TIP3    H245521   2.530   1.439   5.832 -0.1617  0.2995 -0.2716
 8036TIP3   OH245522   0.723   1.582  15.885 -0.5780 -0.1703  0.5094
 8036TIP3    H145523   0.725   1.579  15.789 -1.4633  0.8119  0.4577
 8036TIP3    H245524   0.807   1.619  15.910 -0.3259 -0.4722  0.1182
 8037TIP3   OH245525   4.116   3.405   3.787  0.0454  0.4547  0.0230
 8037TIP3    H145526   4.041   3.436   3.837 -0.6202  0.7794 -1.1481
 8037TIP3    H245527   4.078   3.366   3.709  1.1367  1.4833 -1.0507
 8038TIP3   OH245528   2.949   5.442   4.496 -0.2827 -0.4601 -0.6447
 8038TIP3    H145529   2.854   5.446   4.496 -0.3214 -1.2482 -1.5685
 8038TIP3    H245530   2.973   5.428   4.404  0.7008 -0.7441 -0.3551
 8039TIP3   OH245531   4.822   6.432  10.727 -0.0149  0.3785  0.3342
 8039TIP3    H145532   4.866   6.348  10.739 -1.4113 -0.2247  1.3237
 8039TIP3    H245533   4.795   6.432  10.635  1.6611  0.5723 -0.1617
 8040TIP3   OH245534   5.535   3.539  12.275  0.0076  0.5913 -0.1211
 8040TIP3    H145535   5.610   3.586  12.239  1.1301 -0.6275  0.5842
 8040TIP3    H245536   5.529   3.459  12.222 -0.3139  0.3140  0.3265
 8041TIP3   OH245537   1.985   4.645  13.346 -0.3024  0.6566  0.4557
 8041TIP3    H145538   2.058   4.588  13.371 -0.9984 -0.9249 -1.0525
 8041TIP3    H245539   2.021   4.698  13.275  0.2055  1.8408  1.5625
 8042TIP3   OH245540   1.268   6.261  16.553  0.2875  0.0238  0.1256
 8042TIP3    H145541   1.329   6.309  16.499 -0.3711 -0.0981 -0.7349
 8042TIP3    H245542   1.233   6.326  16.614 -0.3895  0.5738 -0.8458
 8043TIP3   OH245543   6.399   4.816   0.465  0.1101  0.4145 -0.7372
 8043TIP3    H145544   6.394   4.853   0.554 -1.3467 -0.5846 -0.3879
 8043TIP3    H245545   6.487   4.777   0.461  0.9016  2.0883 -0.4037
 8044TIP3   OH245546   2.307   2.901   3.727 -0.1952  0.0633 -0.1052
 8044TIP3    H145547   2.336   2.860   3.809 -1.4512  0.8904  0.7719
 8044TIP3    H245548   2.315   2.995   3.744  1.6211  0.2377 -1.7136
 8045TIP3   OH245549   3.150   5.775  15.646  0.2493 -0.3544 -0.0606
 8045TIP3    H145550   3.155   5.868  15.669 -0.3646 -0.3019 -0.1147
 8045TIP3    H245551   3.096   5.773  15.567  0.4853 -0.7366 -0.2142
 8046TIP3   OH245552   0.495   6.080  15.067  0.2134  0.0574 -0.1189
 8046TIP3    H145553   0.569   6.020  15.054  0.1748 -0.1505  0.5985
 8046TIP3    H245554   0.519   6.159  15.017  0.0894 -0.6831 -1.3792
 8047TIP3   OH245555   0.530   1.669   2.351 -0.7343 -0.0743 -0.0209
 8047TIP3    H145556   0.574   1.682   2.435  1.1758  0.7230 -1.1164
 8047TIP3    H245557   0.575   1.594   2.311  0.3335  1.3794 -1.5933
 8048TIP3   OH245558   3.598   5.062   3.791  0.2823  0.3278  0.1364
 8048TIP3    H145559   3.537   4.993   3.816 -0.2406  0.0420 -1.8493
 8048TIP3    H245560   3.650   5.078   3.870 -0.6018 -1.2502  1.0640
 8049TIP3   OH245561   5.248   4.272  15.621 -0.1006  0.3523 -0.1114
 8049TIP3    H145562   5.219   4.363  15.621  0.1365  0.4268 -0.9063
 8049TIP3    H245563   5.237   4.244  15.712  0.5953  1.4105  0.3053
 8050TIP3   OH245564   1.967   6.642  13.722 -0.0738 -0.1273  0.1586
 8050TIP3    H145565   1.901   6.712  13.726 -1.5602 -1.3208 -2.0198
 8050TIP3    H245566   2.018   6.662  13.644  0.4090 -0.6851  0.3268
 8051TIP3   OH245567   3.988   0.161   2.384  0.3809 -0.6576  0.1590
 8051TIP3    H145568   3.924   0.095   2.410 -1.6491  0.0785 -2.7704
 8051TIP3    H245569   4.070   0.113   2.375 -1.0438 -2.7869 -1.8098
 8052TIP3   OH245570   4.800   4.303  15.565 -0.1265 -0.0559  0.0882
 8052TIP3    H145571   4.740   4.351  15.508 -0.4103  0.3138  0.6862
 8052TIP3    H245572   4.831   4.230  15.512 -1.8792 -0.8339  0.0824
 8053TIP3   OH245573   2.946   5.268   2.311  0.0442 -0.2527  0.2822
 8053TIP3    H145574   2.905   5.279   2.396  0.2678  1.1794  0.2046
 8053TIP3    H245575   2.989   5.182   2.316 -1.6787 -1.1018  0.8813
 8054TIP3   OH245576   1.382   3.484  17.225 -0.2318 -0.3595  0.6079
 8054TIP3    H145577   1.443   3.424  17.183  1.4646 -0.3403  2.8992
 8054TIP3    H245578   1.433   3.564  17.241 -0.5121 -0.6768  3.4117
 8055TIP3   OH245579   2.024   3.538  15.899  0.5904 -0.4122 -0.4067
 8055TIP3    H145580   1.975   3.456  15.898 -1.0526  0.5214  1.2776
 8055TIP3    H245581   1.963   3.603  15.933  2.4164  1.1717 -0.0243
 8056TIP3   OH245582   1.125   2.225  12.551 -0.0369 -0.4779  0.3044
 8056TIP3    H145583   1.098   2.133  12.563  0.9280 -0.9138 -0.8605
 8056TIP3    H245584   1.045   2.275  12.567 -0.4307 -1.4718  1.5908
 8057TIP3   OH245585   1.338   3.631   3.774 -0.4291 -0.5434  0.2429
 8057TIP3    H145586   1.308   3.672   3.855  0.9996 -0.6044  0.8152
 8057TIP3    H245587   1.295   3.681   3.704 -1.7548 -0.5649  1.0317
 8058TIP3   OH245588   5.808   2.391   3.715 -0.0691 -0.2191  0.3860
 8058TIP3    H145589   5.855   2.317   3.676  1.3989  0.4234  0.8774
 8058TIP3    H245590   5.716   2.366   3.713  0.2408 -1.2763 -1.1329
 8059TIP3   OH245591   1.990   4.589  15.664  0.0788  0.5818 -0.6236
 8059TIP3    H145592   1.925   4.658  15.677  0.6593  0.6734  1.9875
 8059TIP3    H245593   2.049   4.624  15.597 -1.1990  1.4378 -1.3403
 8060TIP3   OH245594   1.088   0.991  14.902 -0.8027 -0.3147  0.3119
 8060TIP3    H145595   1.151   1.063  14.905 -0.8851 -0.2765  1.0297
 8060TIP3    H245596   1.002   1.033  14.902 -0.8308 -0.3623 -0.8071
 8061TIP3   OH245597   0.833   4.860   3.562 -0.3753  0.1098 -0.4579
 8061TIP3    H145598   0.760   4.907   3.601 -0.4858 -1.4191  1.2666
 8061TIP3    H245599   0.829   4.773   3.602  2.8668  0.2511  0.3286
 8062TIP3   OH245600   6.645   6.010  15.170 -0.2142 -0.4493  0.5730
 8062TIP3    H145601   6.666   5.917  15.164  2.0490  0.0026  1.0511
 8062TIP3    H245602   6.670   6.046  15.085  0.7900  0.0683  1.0809
 8063TIP3   OH245603   0.916   6.694   2.626  0.1295  0.1115 -0.0062
 8063TIP3    H145604   0.886   6.784   2.636 -0.1077 -0.0052  0.3455
 8063TIP3    H245605   0.904   6.674   2.534 -0.0991  0.3388 -0.0245
 8064TIP3   OH245606   5.752   1.887  14.734  0.2663  0.1081 -1.0883
 8064TIP3    H145607   5.692   1.945  14.687  1.0131  1.3911 -0.4891
 8064TIP3    H245608   5.821   1.945  14.767  0.5883 -0.9950  0.2401
 8065TIP3   OH245609   3.714   4.709  12.755 -0.1593  0.2449  0.0854
 8065TIP3    H145610   3.695   4.628  12.709 -0.5735  0.9484 -0.9802
 8065TIP3    H245611   3.628   4.746  12.774 -0.0119 -0.2241  1.7759
 8066TIP3   OH245612   0.190   1.285   4.078  0.1604 -0.4058 -0.0771
 8066TIP3    H145613   0.273   1.241   4.061  0.3053 -0.1271 -0.0934
 8066TIP3    H245614   0.213   1.377   4.091 -0.2187 -0.2050 -0.7756
 8067TIP3   OH245615   0.948   5.667  14.458 -0.1763  0.3624 -0.0681
 8067TIP3    H145616   0.935   5.601  14.390  1.6090 -0.9514  0.8157
 8067TIP3    H245617   0.880   5.732  14.441  0.3175  0.1728 -3.2248
 8068TIP3   OH245618   1.866   0.721   2.806 -0.5897  0.4622 -0.0764
 8068TIP3    H145619   1.818   0.738   2.887  1.1805  0.4626  0.9954
 8068TIP3    H245620   1.869   0.626   2.799 -0.0036  0.4496  0.3158
 8069TIP3   OH245621   4.209   4.920  16.382 -0.5260 -0.3298  0.3685
 8069TIP3    H145622   4.147   4.854  16.413 -0.6772  0.0440  0.8806
 8069TIP3    H245623   4.176   5.002  16.419 -1.6067  0.3678 -2.0554
 8070TIP3   OH245624   3.807   0.010   1.696  0.6748 -0.1161  0.0544
 8070TIP3    H145625   3.716  -0.016   1.702  0.6745 -0.2189 -0.3576
 8070TIP3    H245626   3.804   0.100   1.661  0.6737  0.4643  1.5084
 8071TIP3   OH245627   5.956   5.656   1.699 -0.1560 -0.1118 -0.3569
 8071TIP3    H145628   5.940   5.627   1.609  0.1940 -1.1661 -0.0889
 8071TIP3    H245629   6.051   5.654   1.708 -0.1221  1.1602 -0.3333
 8072TIP3   OH245630   0.467   4.297   2.693  0.0123 -0.1246 -0.1906
 8072TIP3    H145631   0.506   4.384   2.691 -0.8958  0.3024  0.2152
 8072TIP3    H245632   0.401   4.299   2.623 -0.0052 -0.4969 -0.1886
 8073TIP3   OH245633   2.407   1.897   6.450 -0.3775  0.3813  0.0478
 8073TIP3    H145634   2.430   1.804   6.440 -0.9861  0.0566  1.5758
 8073TIP3    H245635   2.452   1.924   6.529 -1.9918  0.8036  0.8358
 8074TIP3   OH245636   6.042   4.630   1.841  0.0953  0.0576 -0.3746
 8074TIP3    H145637   6.107   4.634   1.911  0.0629  1.1798 -0.4022
 8074TIP3    H245638   6.064   4.551   1.792  0.1307 -0.7288  0.8962
 8075TIP3   OH245639   4.862   2.228  16.367  0.2576 -0.2054  0.1670
 8075TIP3    H145640   4.805   2.155  16.390  0.6617 -0.5699  0.0207
 8075TIP3    H245641   4.826   2.303  16.414 -0.7827 -0.2656 -0.5097
 8076TIP3   OH245642   2.973   5.808  14.850 -0.3788  0.1100 -0.2951
 8076TIP3    H145643   3.004   5.895  14.826 -1.4275  1.1032  1.7883
 8076TIP3    H245644   2.887   5.801  14.808 -1.7137  1.4044  2.0475
 8077TIP3   OH245645   3.979   5.693   5.434  0.0071  0.1695  0.1974
 8077TIP3    H145646   4.043   5.717   5.501  1.1711  0.4702 -0.9942
 8077TIP3    H245647   3.963   5.599   5.448  0.7631  0.0771  0.4723
 8078TIP3   OH245648   6.478   3.888  12.862 -0.2769  0.0193 -0.0976
 8078TIP3    H145649   6.551   3.827  12.867 -1.7131 -1.7368 -0.2807
 8078TIP3    H245650   6.481   3.936  12.945  0.5391 -0.6549  0.2731
 8079TIP3   OH245651   2.121   5.807   0.299  0.7520  0.6279 -0.3353
 8079TIP3    H145652   2.084   5.893   0.320 -0.7803  0.0549 -0.6234
 8079TIP3    H245653   2.057   5.745   0.333  0.3430 -0.3579 -2.8458
 8080TIP3   OH245654   3.267   3.535   1.096  0.1090 -0.0133 -0.2709
 8080TIP3    H145655   3.228   3.621   1.079 -0.8234 -0.1949  0.8940
 8080TIP3    H245656   3.203   3.472   1.061 -1.3188 -0.3571  2.7967
 8081TIP3   OH245657   3.472   4.670  10.517  0.0581  0.8345  0.9878
 8081TIP3    H145658   3.478   4.755  10.473 -0.6305 -0.2547 -1.2658
 8081TIP3    H245659   3.383   4.668  10.553 -0.2321  0.6976  0.2641
 8082TIP3   OH245660   3.816   4.567   4.905  0.1008  0.1507 -0.2327
 8082TIP3    H145661   3.834   4.661   4.909 -1.5631  0.4698 -0.1681
 8082TIP3    H245662   3.777   4.547   4.990  0.2754 -0.5749 -0.3187
 8083TIP3   OH245663   5.222   3.865   1.233 -0.0539 -0.2739 -0.1507
 8083TIP3    H145664   5.145   3.921   1.225  0.2765  0.0428 -1.2296
 8083TIP3    H245665   5.282   3.914   1.289  0.0996  0.3072 -0.8203
 8084TIP3   OH245666   5.203   0.105  13.647  0.4319  0.1588  0.0048
 8084TIP3    H145667   5.205   0.087  13.553 -0.7907  1.3437 -0.2611
 8084TIP3    H245668   5.273   0.169  13.660 -0.1012  0.8038 -0.2812
 8085TIP3   OH245669   4.989   1.686   3.492  0.5454  0.2423  0.1102
 8085TIP3    H145670   5.058   1.752   3.505  2.1855 -1.9115  3.1412
 8085TIP3    H245671   5.031   1.603   3.515 -1.7729 -1.7772 -2.5610
 8086TIP3   OH245672   5.839   1.878  16.227 -0.1367  0.1347  0.2000
 8086TIP3    H145673   5.892   1.950  16.263 -0.5889 -0.3316  1.8555
 8086TIP3    H245674   5.752   1.891  16.266 -0.2878 -1.1617  0.3000
 8087TIP3   OH245675   1.870   6.195   0.086 -0.2651  0.9162  0.0560
 8087TIP3    H145676   1.951   6.162   0.048  0.1607  1.2713  0.6352
 8087TIP3    H245677   1.896   6.275   0.133 -0.6699  0.1830  1.5639
 8088TIP3   OH245678   0.238   3.220  15.934  0.4690 -0.1072  0.1569
 8088TIP3    H145679   0.169   3.284  15.916  2.2913  1.7219 -0.5270
 8088TIP3    H245680   0.199   3.135  15.909 -1.7189  0.8072  0.3803
 8089TIP3   OH245681   5.243   5.367  14.983 -0.2555  0.1020 -0.1190
 8089TIP3    H145682   5.274   5.411  15.062  0.0072 -0.4948  0.1199
 8089TIP3    H245683   5.323   5.350  14.933 -0.2104 -1.1794  0.3624
 8090TIP3   OH245684   4.678   3.907  13.549 -0.5866 -0.2884  0.4386
 8090TIP3    H145685   4.650   3.921  13.459  0.8305 -0.6244 -0.0624
 8090TIP3    H245686   4.744   3.838  13.544  0.5967  0.7178  1.5362
 8091TIP3   OH245687   2.574   6.120   3.276  0.1942  0.5724  0.0158
 8091TIP3    H145688   2.664   6.144   3.302  1.2461 -2.1034 -0.9527
 8091TIP3    H245689   2.541   6.072   3.352 -0.6001  1.8842  0.5221
 8092TIP3   OH245690   0.050   2.149  12.709 -0.1233 -0.3900  0.2105
 8092TIP3    H145691  -0.041   2.125  12.687 -0.3830 -0.5509  1.4292
 8092TIP3    H245692   0.067   2.104  12.791  0.5114  0.9515  0.8273
 8093TIP3   OH245693   6.769   2.151   0.115  0.5444  0.1652 -0.1325
 8093TIP3    H145694   6.743   2.175   0.026 -1.2591  0.1457  0.3572
 8093TIP3    H245695   6.856   2.112   0.105  2.2958  4.1183 -1.2937
 8094TIP3   OH245696   6.674   6.752  14.771  0.5127  0.2439 -0.4090
 8094TIP3    H145697   6.755   6.778  14.815 -1.2169  3.1288  1.2215
 8094TIP3    H245698   6.613   6.732  14.842 -0.2988 -1.6827 -1.6202
 8095TIP3   OH245699   2.399   3.645  13.369  0.4155  0.0965 -0.3285
 8095TIP3    H145700   2.431   3.606  13.451  0.5596  1.4617  0.2867
 8095TIP3    H245701   2.466   3.708  13.345 -0.7745  1.4640 -0.1737
 8096TIP3   OH245702   3.314   6.421   0.428 -0.0327  0.4667 -0.1173
 8096TIP3    H145703   3.370   6.454   0.358  0.6120  0.6896  0.4988
 8096TIP3    H245704   3.245   6.487   0.436  0.7367  1.2013  0.4778
 8097TIP3   OH245705   5.297   5.096  12.860  0.0774  0.0233  0.1476
 8097TIP3    H145706   5.386   5.060  12.865 -0.6891 -1.8553  0.8852
 8097TIP3    H245707   5.259   5.077  12.946 -0.9147  1.1401 -0.0358
 8098TIP3   OH245708   6.778   4.394   4.593  0.2512 -0.1850 -0.2958
 8098TIP3    H145709   6.777   4.439   4.677 -1.0827  1.4756 -1.1624
 8098TIP3    H245710   6.696   4.345   4.590  0.2314 -0.1356 -0.6867
 8099TIP3   OH245711   2.434   5.242  14.533 -0.2688  0.2049  0.4569
 8099TIP3    H145712   2.341   5.225  14.518  0.0934 -0.9586 -0.4962
 8099TIP3    H245713   2.476   5.158  14.520  0.9002  0.6841  1.1240
 8100TIP3   OH245714   4.677   2.897   2.161 -0.1754 -0.1719 -0.0960
 8100TIP3    H145715   4.618   2.828   2.131  0.6513 -0.1520 -1.8000
 8100TIP3    H245716   4.717   2.861   2.240 -1.6918 -0.5856  0.5226
 8101TIP3   OH245717   4.138   4.866  16.900  0.1908 -0.1112 -0.3189
 8101TIP3    H145718   4.058   4.863  16.951  0.6825  1.0950  0.5339
 8101TIP3    H245719   4.135   4.787  16.845 -1.4983 -0.1321 -0.2003
 8102TIP3   OH245720   5.168   5.461   4.044 -0.1300  0.2673  0.2510
 8102TIP3    H145721   5.127   5.412   3.973  0.1930 -0.1819  0.3705
 8102TIP3    H245722   5.136   5.418   4.124  0.7772 -0.2605  0.3405
 8103TIP3   OH245723   4.998   5.902  11.978  0.2891  0.1133 -0.3245
 8103TIP3    H145724   5.027   5.901  11.886 -0.8818 -2.4896 -0.7226
 8103TIP3    H245725   5.079   5.904  12.028  0.9466  1.6378 -1.4115
 8104TIP3   OH245726   0.483   4.080  16.377  0.3315 -0.1244 -0.2890
 8104TIP3    H145727   0.576   4.101  16.389  0.6773 -0.9302 -1.4127
 8104TIP3    H245728   0.472   3.993  16.415  0.2105 -0.3376 -0.7978
 8105TIP3   OH245729   6.428   4.570  11.812 -0.4036  0.1938 -0.4751
 8105TIP3    H145730   6.498   4.535  11.757 -0.9406  1.8572 -2.2940
 8105TIP3    H245731   6.450   4.541  11.901  1.4972 -0.9755 -1.2961
 8106TIP3   OH245732   1.623   5.915   1.271  0.1096  0.0043  0.2407
 8106TIP3    H145733   1.619   5.824   1.241 -2.6466  0.9380 -2.4448
 8106TIP3    H245734   1.556   5.920   1.340 -0.0945  0.1157  0.0348
 8107TIP3   OH245735   4.726   1.860   3.673  0.1360  0.5147  0.0390
 8107TIP3    H145736   4.687   1.853   3.586 -1.5418  0.2951  0.7938
 8107TIP3    H245737   4.769   1.776   3.687 -0.5986  0.1106 -0.1134
 8108TIP3   OH245738   4.746   4.526  14.358 -0.8985 -0.0178 -0.5544
 8108TIP3    H145739   4.754   4.433  14.377 -1.4503  0.1444  0.5119
 8108TIP3    H245740   4.653   4.545  14.371 -0.7465  0.7312 -0.5448
 8109TIP3   OH245741   4.781   0.017  14.814 -0.2886  0.9188 -0.4487
 8109TIP3    H145742   4.836  -0.058  14.835 -0.9281  0.6051  0.1675
 8109TIP3    H245743   4.839   0.093  14.823  0.8293  0.3763 -2.8901
 8110TIP3   OH245744   3.166   0.011  15.950 -0.0632  0.1894 -0.3076
 8110TIP3    H145745   3.247   0.062  15.960  1.6616 -2.2063 -1.4431
 8110TIP3    H245746   3.155  -0.032  16.035 -0.8377  1.4648  0.2474
 8111TIP3   OH245747   1.553   1.412  14.168 -0.0828 -0.1585  0.1039
 8111TIP3    H145748   1.596   1.452  14.244  2.6550 -1.1508 -0.8997
 8111TIP3    H245749   1.483   1.474  14.146  0.9326  1.5870  1.6333
 8112TIP3   OH245750   0.602   6.225  16.465  0.3026 -0.0361  0.5566
 8112TIP3    H145751   0.638   6.286  16.529  1.1585 -0.4565  0.4913
 8112TIP3    H245752   0.508   6.241  16.466  0.5388  1.3732  0.4262
 8113TIP3   OH245753   4.057   1.253  16.423 -0.0513 -0.4261  0.5202
 8113TIP3    H145754   4.128   1.204  16.464 -1.2388 -0.1872  2.9761
 8113TIP3    H245755   4.087   1.344  16.425 -0.4057 -0.3175  1.6069
 8114TIP3   OH245756   6.014   0.204   1.750 -0.2597 -0.1347 -0.3292
 8114TIP3    H145757   5.934   0.180   1.705 -1.1203  0.3382  0.9137
 8114TIP3    H245758   5.988   0.273   1.811  1.0086 -0.2397  0.3663
 8115TIP3   OH245759   1.614   4.306  14.219 -0.0118 -0.5133 -0.3333
 8115TIP3    H145760   1.703   4.304  14.253  0.6370 -0.9537 -2.0483
 8115TIP3    H245761   1.565   4.247  14.276  1.1248 -1.4603 -0.3282
 8116TIP3   OH245762   5.396   5.539  14.204 -0.0348  0.4065 -0.3574
 8116TIP3    H145763   5.414   5.448  14.181 -1.5115 -0.2704  1.0262
 8116TIP3    H245764   5.315   5.560  14.156 -0.8146  0.3187  0.8878
 8117TIP3   OH245765   0.290   6.232  13.111 -0.2630  0.0387  0.5822
 8117TIP3    H145766   0.209   6.193  13.145 -0.1734 -0.9079 -0.2517
 8117TIP3    H245767   0.354   6.161  13.115  0.6641  0.9089  1.6701
 8118TIP3   OH245768   1.270   4.667  12.144 -0.6630 -0.3875 -0.1477
 8118TIP3    H145769   1.321   4.597  12.102  1.5816  0.3875  1.2506
 8118TIP3    H245770   1.241   4.721  12.071  1.0276 -0.5141 -0.9478
 8119TIP3   OH245771   0.222   1.510   4.247 -0.0738  0.3124  0.3310
 8119TIP3    H145772   0.236   1.426   4.291 -0.3144 -0.5403 -1.1878
 8119TIP3    H245773   0.299   1.562   4.270  1.5872 -1.4109 -1.1847
 8120TIP3   OH245774   3.084   1.523   5.408 -0.7467  0.7716 -0.5603
 8120TIP3    H145775   3.097   1.618   5.414 -1.2340  0.8158 -0.1968
 8120TIP3    H245776   3.152   1.494   5.347  1.9949  0.7849  2.3763
 8121TIP3   OH245777   0.474   4.861  11.144 -0.0243 -0.5979  0.4913
 8121TIP3    H145778   0.517   4.807  11.210 -1.2073 -1.0600  0.8945
 8121TIP3    H245779   0.417   4.800  11.096 -0.1247 -0.0276 -0.1247
 8122TIP3   OH245780   5.287   1.291   2.872  0.0957 -0.1749 -0.2820
 8122TIP3    H145781   5.202   1.322   2.903 -0.6697 -0.9529 -1.5220
 8122TIP3    H245782   5.289   1.316   2.779  1.2361 -0.1323 -0.2514
 8123TIP3   OH245783   4.444   4.014  16.432  0.2094  0.4361 -0.0788
 8123TIP3    H145784   4.410   4.083  16.376 -0.3090 -0.6341 -1.1136
 8123TIP3    H245785   4.532   3.996  16.397  0.9369  1.5784  1.1207
 8124TIP3   OH245786   4.050   5.869   6.091  0.3827  0.4618 -0.2930
 8124TIP3    H145787   4.027   5.852   6.000  0.1609  0.6994 -0.2818
 8124TIP3    H245788   4.031   5.962   6.103  1.3059  0.6543 -0.2754
 8125TIP3   OH245789   5.043   5.323   0.354 -0.6189 -0.1684  0.1757
 8125TIP3    H145790   5.072   5.262   0.287  1.5510  2.9364 -1.8164
 8125TIP3    H245791   5.073   5.284   0.436 -0.8011 -2.6047 -0.8685
 8126TIP3   OH245792   5.887   2.221   3.132  0.1591 -0.1942  0.0639
 8126TIP3    H145793   5.969   2.234   3.180 -0.4447  0.7187  0.8547
 8126TIP3    H245794   5.870   2.127   3.140  1.2429 -0.4211 -0.2850
 8127TIP3   OH245795   4.579   0.179  16.539 -0.4566 -0.5253 -0.4769
 8127TIP3    H145796   4.543   0.189  16.451 -1.2671  0.1285 -0.0750
 8127TIP3    H245797   4.561   0.262  16.583  0.5884 -0.5818  0.0811
 8128TIP3   OH245798   0.195   6.032   4.603 -0.6317  0.2741 -0.1431
 8128TIP3    H145799   0.227   5.944   4.581 -0.8832 -0.3606  1.9683
 8128TIP3    H245800   0.264   6.070   4.657 -1.0462  0.9361 -0.0777
 8129TIP3   OH245801   3.866   1.416  14.683  0.6630 -0.3495  0.1841
 8129TIP3    H145802   3.896   1.428  14.593 -2.7554 -0.0573 -0.9673
 8129TIP3    H245803   3.893   1.327  14.706  3.5894  0.3583 -0.2561
 8130TIP3   OH245804   1.925   0.777  16.599  0.1647  0.6571  0.1196
 8130TIP3    H145805   1.944   0.765  16.692  1.4520  0.0420 -0.1980
 8130TIP3    H245806   1.830   0.766  16.591  0.2958 -1.4743  1.0602
 8131TIP3   OH245807   0.487   3.836   4.775  0.1150 -0.1049 -0.0046
 8131TIP3    H145808   0.483   3.931   4.775 -1.0882 -0.1372  1.9344
 8131TIP3    H245809   0.396   3.807   4.780  0.4885 -1.3426 -0.0118
 8132TIP3   OH245810   2.473   5.324   4.555  0.5583  0.2729 -0.1309
 8132TIP3    H145811   2.466   5.419   4.549  0.3057  0.2531 -0.1712
 8132TIP3    H245812   2.386   5.292   4.531  0.7322  0.0202 -0.4391
 8133TIP3   OH245813   4.998   3.808   0.119  0.0288 -0.3399 -0.0846
 8133TIP3    H145814   4.926   3.760   0.077  0.0279  0.3857 -0.9323
 8133TIP3    H245815   5.060   3.824   0.047  0.4558  0.1227  0.3876
 8134TIP3   OH245816   5.257   0.062  14.521  0.2270 -0.3103  0.6242
 8134TIP3    H145817   5.258   0.051  14.616 -0.2095 -0.4074  0.6145
 8134TIP3    H245818   5.178   0.113  14.504  0.4894  0.0039  0.3471
 8135TIP3   OH245819   3.623   3.777   4.505  0.4023  0.3230  0.1008
 8135TIP3    H145820   3.630   3.781   4.600  0.7581 -1.2422  0.1647
 8135TIP3    H245821   3.532   3.754   4.488  0.1684  1.2845  0.0291
 8136TIP3   OH245822   4.175   4.374  14.255  0.1408 -0.1372  0.0191
 8136TIP3    H145823   4.134   4.292  14.227  1.7155 -1.0914  0.4484
 8136TIP3    H245824   4.141   4.387  14.344  2.7165 -2.3235  1.4049
 8137TIP3   OH245825   2.502   1.870   0.914 -0.1545  0.7091  0.2368
 8137TIP3    H145826   2.419   1.831   0.888  0.5389 -0.4603 -0.2611
 8137TIP3    H245827   2.483   1.913   0.998 -1.3413  0.7848 -0.0562
 8138TIP3   OH245828   4.137   0.589   0.861 -0.1010  0.0337 -0.5782
 8138TIP3    H145829   4.170   0.500   0.877 -0.8791  0.1412  1.8859
 8138TIP3    H245830   4.211   0.646   0.882 -0.5211  0.0826  0.8292
 8139TIP3   OH245831   0.650   5.725   2.648 -0.1765 -0.6548 -0.5432
 8139TIP3    H145832   0.724   5.668   2.626  2.4373  2.3034  0.1704
 8139TIP3    H245833   0.656   5.797   2.584 -1.2729  0.5676  0.7093
 8140TIP3   OH245834   3.668   6.540  12.833 -0.0479 -0.1503  1.3254
 8140TIP3    H145835   3.608   6.560  12.906  0.1009 -3.8133  2.5684
 8140TIP3    H245836   3.694   6.449  12.848  0.5492 -0.7919 -2.9596
 8141TIP3   OH245837   3.756   3.702   2.177 -0.1308  0.1526  0.1574
 8141TIP3    H145838   3.827   3.644   2.204 -1.0168 -0.3748  1.4043
 8141TIP3    H245839   3.768   3.781   2.230  0.8819  1.0069 -1.3044
 8142TIP3   OH245840   6.141   0.558  13.122  0.0015 -0.3982 -0.0361
 8142TIP3    H145841   6.145   0.615  13.045  0.4472 -0.8260 -0.3382
 8142TIP3    H245842   6.140   0.617  13.197  0.7288  0.0022 -0.3368
 8143TIP3   OH245843   6.410   0.076   1.560 -0.0855 -0.3555 -0.1315
 8143TIP3    H145844   6.443  -0.011   1.585 -0.3211 -0.8029 -1.3423
 8143TIP3    H245845   6.489   0.123   1.532 -0.2509 -0.9334 -1.6118
 8144TIP3   OH245846   6.638   5.550  13.227 -0.0263 -0.1046 -0.7326
 8144TIP3    H145847   6.631   5.645  13.221 -0.1407 -0.1040 -0.5911
 8144TIP3    H245848   6.562   5.524  13.279 -0.4676 -0.3537 -1.4946
 8145TIP3   OH245849   5.409   3.979   3.828 -0.1097  0.2997 -0.5030
 8145TIP3    H145850   5.344   4.046   3.848 -1.0583 -0.3455 -1.3875
 8145TIP3    H245851   5.474   3.986   3.899 -0.9579  1.1799  0.1876
 8146TIP3   OH245852   5.680   3.520   0.048  0.3207  0.3510 -0.6001
 8146TIP3    H145853   5.626   3.476  -0.018  0.0354 -1.4014  0.7687
 8146TIP3    H245854   5.621   3.534   0.122  0.8114  1.7253 -0.4544
 8147TIP3   OH245855   5.030   3.734  13.274  0.3744  0.2793  0.1960
 8147TIP3    H145856   5.005   3.826  13.266 -1.2297 -0.2713 -1.1828
 8147TIP3    H245857   5.065   3.727  13.364 -4.2235  1.1278  2.1778
 8148TIP3   OH245858   4.328   1.140   2.620  0.6419  0.8402  0.5760
 8148TIP3    H145859   4.239   1.168   2.601  1.0063  3.0353  1.8767
 8148TIP3    H245860   4.322   1.094   2.703  0.2829 -1.6723 -0.8103
 8149TIP3   OH245861   1.509   5.908  11.514 -0.4314 -0.5883  0.4230
 8149TIP3    H145862   1.562   5.915  11.593 -0.7428  0.4703  0.5464
 8149TIP3    H245863   1.427   5.868  11.544 -0.4837 -0.3481  0.5946
 8150TIP3   OH245864   0.620   3.296  16.603 -0.6168 -0.4817 -0.0501
 8150TIP3    H145865   0.572   3.366  16.557  0.5541 -0.6044 -1.4768
 8150TIP3    H245866   0.676   3.343  16.665 -0.7892 -0.2119 -0.0933
 8151TIP3   OH245867   6.777   6.528   2.247  0.0137  0.0091  0.2272
 8151TIP3    H145868   6.825   6.449   2.271 -0.1843  0.4407  2.1686
 8151TIP3    H245869   6.820   6.559   2.168  1.3048 -1.0096  0.5016
 8152TIP3   OH245870   4.258   2.983  15.234  0.3476  0.8389 -0.7020
 8152TIP3    H145871   4.314   2.933  15.293  0.3764  0.6886 -0.8567
 8152TIP3    H245872   4.318   3.043  15.189  0.2686  1.2281 -0.2925
 8153TIP3   OH245873   0.973   6.747   1.564  0.3048 -0.1327 -0.2753
 8153TIP3    H145874   0.992   6.758   1.471 -0.6692  1.0639 -0.3478
 8153TIP3    H245875   0.960   6.653   1.575  0.6605 -0.3075 -1.3026
 8154TIP3   OH245876   0.745   0.371  11.960  0.4337  0.7206  0.5633
 8154TIP3    H145877   0.831   0.330  11.963 -0.5656 -1.4618  0.4824
 8154TIP3    H245878   0.747   0.427  11.883  0.7409 -1.7969 -1.3184
 8155TIP3   OH245879   4.029   0.276   5.618  0.5933  0.5178 -0.0154
 8155TIP3    H145880   3.990   0.189   5.617  1.3025  0.2090 -1.5712
 8155TIP3    H245881   4.106   0.269   5.562 -0.8918  2.8170 -2.5154
 8156TIP3   OH245882   2.884   4.761  15.368  0.0395  0.0343 -0.2422
 8156TIP3    H145883   2.893   4.689  15.431 -0.2240 -0.2857 -0.5725
 8156TIP3    H245884   2.974   4.793  15.355  0.2243 -0.5849 -0.5082
 8157TIP3   OH245885   3.675   5.283   0.290 -0.1355 -0.2210 -0.3204
 8157TIP3    H145886   3.636   5.292   0.203 -0.2776  0.3581 -0.2033
 8157TIP3    H245887   3.671   5.190   0.309 -0.6907 -0.2679 -0.6617
 8158TIP3   OH245888   2.066   3.001  15.470  0.3072  0.4498 -0.2687
 8158TIP3    H145889   2.082   3.086  15.429  0.3080  1.8195  2.4450
 8158TIP3    H245890   1.980   3.010  15.510  1.5594  0.2610  2.5903
 8159TIP3   OH245891   4.714   3.409   1.555  0.4577  0.2889  0.3032
 8159TIP3    H145892   4.663   3.489   1.550 -0.8604 -0.4584  1.3721
 8159TIP3    H245893   4.676   3.351   1.489  0.3201 -0.0338  0.6567
 8160TIP3   OH245894   0.940   0.390  15.845 -0.4013 -0.0717 -0.1195
 8160TIP3    H145895   0.897   0.395  15.759 -2.2356  0.9452  0.8324
 8160TIP3    H245896   0.884   0.333  15.897 -0.4564  1.0186  1.0451
 8161TIP3   OH245897   2.920   6.741   3.265  0.2114 -0.1651  0.2095
 8161TIP3    H145898   2.948   6.718   3.353  1.2167 -3.1366 -0.8289
 8161TIP3    H245899   2.837   6.693   3.253  0.5609 -0.5422 -0.7739
 8162TIP3   OH245900   3.155   2.033  14.181  0.1083  0.3951  0.2834
 8162TIP3    H145901   3.178   1.971  14.111 -0.6276 -1.4160  1.6234
 8162TIP3    H245902   3.237   2.078  14.200  0.5547  0.1687 -1.0312
 8163TIP3   OH245903   4.007   2.037  12.469 -0.6384  0.4957  0.0906
 8163TIP3    H145904   4.025   2.030  12.563 -0.7310  0.1111  0.0820
 8163TIP3    H245905   3.993   1.946  12.441  0.6644  0.4743 -0.5465
 8164TIP3   OH245906   1.083   1.469   1.444 -0.1593  0.5861 -0.4748
 8164TIP3    H145907   0.994   1.438   1.463  0.0675  1.7703  2.8364
 8164TIP3    H245908   1.069   1.550   1.394 -0.8564 -0.4644 -2.0379
 8165TIP3   OH245909   5.827   2.669  16.469 -0.0845  0.6232 -0.1541
 8165TIP3    H145910   5.754   2.627  16.424  0.1602  2.6275 -2.4944
 8165TIP3    H245911   5.892   2.685  16.401  2.5048 -0.9290  1.8439
 8166TIP3   OH245912   5.662   6.706   5.692  0.4787 -0.0678  0.2201
 8166TIP3    H145913   5.620   6.787   5.719  2.8330  2.3831 -3.1577
 8166TIP3    H245914   5.623   6.685   5.607  1.1361 -1.5461  0.2576
 8167TIP3   OH245915   6.472   1.128  14.069  0.3819  0.0734  0.6944
 8167TIP3    H145916   6.498   1.039  14.095 -0.9182  0.2375  2.6296
 8167TIP3    H245917   6.414   1.158  14.139 -0.9250  1.6438 -1.0003
 8168TIP3   OH245918   3.985   5.497  16.217 -0.1026 -0.0418  0.0916
 8168TIP3    H145919   4.061   5.509  16.273  0.7097  0.1790 -1.0301
 8168TIP3    H245920   4.020   5.507  16.128 -1.0292 -2.0736 -0.5200
 8169TIP3   OH245921   4.836   1.230   1.948  0.1041  0.1230  0.2197
 8169TIP3    H145922   4.887   1.234   1.867  1.0070  1.8719  0.8362
 8169TIP3    H245923   4.768   1.296   1.937 -0.1039 -0.0158  0.6607
 8170TIP3   OH245924   6.326   1.168  12.504 -0.0113  0.2509 -0.8113
 8170TIP3    H145925   6.369   1.247  12.471 -1.0770  1.8196  1.4314
 8170TIP3    H245926   6.398   1.111  12.530  0.7609  1.3069 -0.6016
 8171TIP3   OH245927   2.897   4.159  15.865 -0.0145 -0.5667 -0.4350
 8171TIP3    H145928   2.827   4.224  15.869  0.3065 -0.3242  2.4045
 8171TIP3    H245929   2.971   4.201  15.909  1.2367 -1.6271 -1.4941
 8172TIP3   OH245930   0.895   6.771  11.801 -0.0880  0.0991 -0.4529
 8172TIP3    H145931   0.835   6.697  11.813 -0.8064  0.8692  0.8347
 8172TIP3    H245932   0.855   6.823  11.731 -0.8039  0.4757  0.2291
 8173TIP3   OH245933   2.193   0.850  12.158 -0.1430 -0.8387  0.3372
 8173TIP3    H145934   2.237   0.856  12.243  1.0016 -1.5363 -0.1894
 8173TIP3    H245935   2.254   0.892  12.096 -1.0183 -0.2262 -0.1242
 8174TIP3   OH245936   6.727   5.136   3.911  0.4198 -0.0111 -0.5704
 8174TIP3    H145937   6.786   5.061   3.907 -1.2739 -1.4317  0.5234
 8174TIP3    H245938   6.641   5.099   3.930 -0.2538  2.3006  1.1986
 8175TIP3   OH245939   0.039   5.308   4.278  0.1096 -0.2139  0.4286
 8175TIP3    H145940  -0.017   5.234   4.255  1.6258 -1.4956  0.7709
 8175TIP3    H245941  -0.016   5.385   4.266 -1.2018 -1.3378 -0.8523
 8176TIP3   OH245942   4.419   2.011  16.594 -0.0716 -0.3089 -0.1297
 8176TIP3    H145943   4.344   1.952  16.584  0.2613 -0.7637  0.0776
 8176TIP3    H245944   4.379   2.098  16.601 -0.7649 -0.8031  2.7780
 8177TIP3   OH245945   1.786   2.798  15.838  0.3766 -0.7343  0.7914
 8177TIP3    H145946   1.803   2.747  15.759 -0.1456 -0.4218  0.4766
 8177TIP3    H245947   1.851   2.767  15.901  0.3178 -1.4972  0.4740
 8178TIP3   OH245948   4.061   4.974  12.259 -0.1210 -0.5926  0.0059
 8178TIP3    H145949   4.049   5.035  12.186  0.5409 -1.2385 -0.6339
 8178TIP3    H245950   4.124   5.018  12.316  2.2809 -1.7556 -1.6744
 8179TIP3   OH245951   6.332   6.389  16.369 -0.1067 -0.5996  0.0721
 8179TIP3    H145952   6.334   6.467  16.314  1.8725 -1.4660 -1.1625
 8179TIP3    H245953   6.256   6.401  16.426 -1.1796  1.1492 -1.6614
 8180TIP3   OH245954   4.853   5.856   0.558  0.2136  0.0688  0.0389
 8180TIP3    H145955   4.833   5.944   0.526 -0.4282 -0.1165 -0.0805
 8180TIP3    H245956   4.789   5.841   0.629 -2.4132 -1.8705 -2.6054
 8181TIP3   OH245957   2.192   4.068  15.279  0.8427 -0.0789 -0.0922
 8181TIP3    H145958   2.257   3.999  15.267 -1.2334 -2.2983  1.1013
 8181TIP3    H245959   2.211   4.106  15.365  0.9803 -0.2537 -0.0471
 8182TIP3   OH245960   6.003   4.794   2.242  0.1040  0.0564 -0.2276
 8182TIP3    H145961   5.994   4.863   2.176 -2.1018 -0.5398 -0.5750
 8182TIP3    H245962   5.923   4.799   2.294  1.5422  0.1144  2.0525
 8183TIP3   OH245963   3.047   5.230   2.012  0.2353 -0.3091 -0.3837
 8183TIP3    H145964   3.025   5.321   2.032 -0.9579 -0.5973 -0.3024
 8183TIP3    H245965   3.110   5.205   2.080 -0.1719  0.1665  0.1771
 8184TIP3   OH245966   5.421   1.753   5.499 -0.4176 -0.5655 -0.1983
 8184TIP3    H145967   5.391   1.767   5.410 -2.0048  2.6690  0.7502
 8184TIP3    H245968   5.347   1.713   5.544 -0.1869 -0.7348  0.0331
 8185TIP3   OH245969   1.117   3.541  16.909  0.2691 -0.3200  0.2337
 8185TIP3    H145970   1.028   3.549  16.942  0.8160 -0.7219  1.8642
 8185TIP3    H245971   1.171   3.584  16.975  1.3260 -0.4429 -0.5373
 8186TIP3   OH245972   6.522   5.394  16.076  0.3176  0.3951  0.1892
 8186TIP3    H145973   6.557   5.327  16.135 -1.0291 -0.8337 -0.3945
 8186TIP3    H245974   6.485   5.345  16.003 -0.1452  1.8087 -0.5312
 8187TIP3   OH245975   3.579   4.394   5.369 -0.0333  0.3933  0.6415
 8187TIP3    H145976   3.514   4.356   5.310  1.3286  0.4674 -0.9467
 8187TIP3    H245977   3.646   4.327   5.378  0.0335  0.5895  1.7008
 8188TIP3   OH245978   2.151   1.554   6.491 -0.9488  0.0311 -0.4447
 8188TIP3    H145979   2.226   1.528   6.544 -1.1649  0.4923  0.0879
 8188TIP3    H245980   2.095   1.476   6.490 -1.3012  0.2574  0.6376
 8189TIP3   OH245981   1.934   3.535  13.823 -0.3092  0.2887 -0.1764
 8189TIP3    H145982   1.989   3.518  13.899  1.0510 -0.4968 -1.3194
 8189TIP3    H245983   1.851   3.566  13.860  0.2430 -0.3235  1.6241
 8190TIP3   OH245984   3.915   3.012   1.067 -0.1127 -0.5532  1.0538
 8190TIP3    H145985   3.868   3.081   1.018  0.0441 -0.1255  1.4990
 8190TIP3    H245986   3.928   3.050   1.154 -1.1072 -1.6262  1.6851
 8191TIP3   OH245987   2.792   0.584  13.004 -0.4931 -0.3373  0.4071
 8191TIP3    H145988   2.804   0.555  13.095  0.5695 -0.0679  0.3595
 8191TIP3    H245989   2.830   0.513  12.952 -2.6617 -1.2976  0.1062
 8192TIP3   OH245990   2.171   4.106  13.757  0.1917 -0.0626  0.2808
 8192TIP3    H145991   2.116   4.052  13.814 -0.7971  0.1106 -0.4900
 8192TIP3    H245992   2.260   4.081  13.779 -0.2281 -1.2182  0.7043
 8193TIP3   OH245993   4.066   4.897  12.599  0.0752  0.2793 -0.3704
 8193TIP3    H145994   4.133   4.946  12.551 -1.1817  0.4942 -1.9160
 8193TIP3    H245995   4.106   4.812  12.616  1.2802  0.9008  0.0176
 8194TIP3   OH245996   0.892   6.556  11.288 -0.5823  0.5079  0.2236
 8194TIP3    H145997   0.808   6.548  11.331 -1.1388  1.0886 -0.7295
 8194TIP3    H245998   0.874   6.538  11.196  0.4686 -0.1169  0.1314
 8195TIP3   OH245999   2.795   2.858  10.877 -0.6299  0.5087 -0.2353
 8195TIP3    H146000   2.788   2.900  10.963 -0.0174  1.4840 -0.6494
 8195TIP3    H246001   2.722   2.895  10.827 -0.1840  0.9780 -0.5497
 8196TIP3   OH246002   4.970   0.605  10.743  0.7394 -0.5019  0.4519
 8196TIP3    H146003   4.901   0.565  10.689  0.5410  0.9625 -0.4148
 8196TIP3    H246004   5.047   0.551  10.727  0.8106  0.2006 -1.7122
 8197TIP3   OH246005   3.669   3.773  16.888  0.2236 -0.2332  0.3253
 8197TIP3    H146006   3.754   3.730  16.877 -0.3699 -1.4701  0.4833
 8197TIP3    H246007   3.651   3.768  16.982 -0.2413 -0.3884  0.2281
 8198TIP3   OH246008   3.840   2.211   6.146 -0.1256  0.1866  0.4161
 8198TIP3    H146009   3.918   2.203   6.201 -0.6324 -1.3430  0.9469
 8198TIP3    H246010   3.768   2.215   6.209 -0.5644  0.3095 -0.1000
 8199TIP3   OH246011   4.613   3.206   3.193  0.0625 -0.2065 -0.8706
 8199TIP3    H146012   4.534   3.228   3.241  1.8655  2.2395  1.1610
 8199TIP3    H246013   4.628   3.113   3.211 -1.1707 -0.1446  0.5089
 8200TIP3   OH246014   5.214   2.989  14.648 -0.4172 -0.5249 -0.5818
 8200TIP3    H146015   5.241   2.899  14.630  0.5375 -0.1338 -1.0988
 8200TIP3    H246016   5.251   3.040  14.577 -0.0558  0.4430  0.2940
 8201TIP3   OH246017   0.677   6.050   1.149 -0.0689 -0.4621 -0.3931
 8201TIP3    H146018   0.733   5.994   1.095  3.0924  2.7704 -0.6437
 8201TIP3    H246019   0.596   6.059   1.098  0.5061 -2.3964 -1.7033
 8202TIP3   OH246020   2.937   5.391   5.388  0.4919  0.3110 -0.6206
 8202TIP3    H146021   2.854   5.429   5.360 -0.1740 -1.8408 -1.7698
 8202TIP3    H246022   2.971   5.452   5.453 -2.4892  0.7357  0.6529
 8203TIP3   OH246023   5.141   1.820   3.278 -0.4282  0.4354 -0.0148
 8203TIP3    H146024   5.167   1.909   3.300 -0.2122  0.8102 -1.7554
 8203TIP3    H246025   5.223   1.778   3.251 -0.6410 -0.1121  0.1855
 8204TIP3   OH246026   5.785   6.161   6.046  0.0759  0.0459 -0.0514
 8204TIP3    H146027   5.806   6.076   6.007 -1.5896 -1.0353  1.3390
 8204TIP3    H246028   5.728   6.141   6.119  0.2844  2.3284  0.7984
 8205TIP3   OH246029   3.415   1.887   1.435  0.3482  0.6208 -0.2022
 8205TIP3    H146030   3.321   1.905   1.431  0.1453 -0.3047  0.2659
 8205TIP3    H246031   3.432   1.831   1.359 -0.1485 -2.0766  1.5791
 8206TIP3   OH246032   2.676   1.766   4.644  0.6179 -0.1963  0.2642
 8206TIP3    H146033   2.715   1.811   4.569  0.4367  1.2408  1.0250
 8206TIP3    H246034   2.582   1.781   4.635  0.7046  1.2725  1.5887
 8207TIP3   OH246035   3.190   1.993   3.635 -0.3392 -0.5878 -0.1893
 8207TIP3    H146036   3.124   2.063   3.633 -2.5012 -2.5959 -0.8340
 8207TIP3    H246037   3.212   1.985   3.728 -2.9466 -1.6313  0.3827
 8208TIP3   OH246038   0.119   4.471  16.978 -0.1782 -0.0183 -0.5379
 8208TIP3    H146039   0.139   4.444  17.068  0.7196 -0.0628 -0.7488
 8208TIP3    H246040   0.204   4.482  16.937 -0.5917 -0.1295 -1.4310
 8209TIP3   OH246041   0.623   2.221  17.056  0.0340 -0.6519 -0.0792
 8209TIP3    H146042   0.714   2.192  17.062  0.0455 -0.6528 -0.2637
 8209TIP3    H246043   0.572   2.142  17.072  0.0665 -0.4698  0.9276
 8210TIP3   OH246044   3.211   1.316  14.141 -0.0752 -0.0474 -0.1577
 8210TIP3    H146045   3.131   1.343  14.096  0.3318  1.6817  0.1343
 8210TIP3    H246046   3.214   1.221  14.129 -1.7451 -0.0318 -0.8552
 8211TIP3   OH246047   2.856   2.836   3.192  0.1199  0.5369  0.1510
 8211TIP3    H146048   2.798   2.894   3.242 -0.3399  0.2053  0.0069
 8211TIP3    H246049   2.868   2.882   3.108  1.8519  1.6687  0.9821
 8212TIP3   OH246050   5.951   1.835   5.254  0.7736 -0.2108  0.0610
 8212TIP3    H146051   5.988   1.872   5.174 -3.4572 -0.8490 -2.3838
 8212TIP3    H246052   5.939   1.910   5.313  0.5272  0.8953 -1.3684
 8213TIP3   OH246053   3.803   5.826  14.620 -0.2305  0.6119  0.3630
 8213TIP3    H146054   3.754   5.802  14.699 -0.1092  1.0723  0.5812
 8213TIP3    H246055   3.893   5.839  14.650  0.1746 -0.9155 -0.1586
 8214TIP3   OH246056   1.672   1.664   4.237  0.1665  0.5829  0.3846
 8214TIP3    H146057   1.756   1.644   4.277 -1.2119 -1.8509  2.1868
 8214TIP3    H246058   1.693   1.722   4.164  3.2430  1.1496  1.6574
 8215TIP3   OH246059   5.646   6.170   1.394 -0.7245 -0.2780  0.0450
 8215TIP3    H146060   5.560   6.133   1.376 -1.0768 -0.0240  1.1791
 8215TIP3    H246061   5.647   6.252   1.344  0.2258 -1.9429 -2.8233
 8216TIP3   OH246062   6.642   0.296  16.169  0.3411 -0.2097  0.7471
 8216TIP3    H146063   6.586   0.220  16.184  0.8955 -0.3865  2.0167
 8216TIP3    H246064   6.617   0.329  16.082 -0.1446 -1.6248  0.3472
 8217TIP3   OH246065   1.608   4.627   3.729  0.2247  0.1502  0.1207
 8217TIP3    H146066   1.536   4.667   3.681  0.9408  0.0212 -1.0848
 8217TIP3    H246067   1.583   4.635   3.821  0.2275  3.1093 -0.0863
 8218TIP3   OH246068   5.245   4.187  17.116 -0.4450  0.5393 -0.2244
 8218TIP3    H146069   5.292   4.259  17.159 -1.0548 -0.1385  1.6227
 8218TIP3    H246070   5.176   4.230  17.065 -0.5867  1.2877  0.5831
 8219TIP3   OH246071   0.575   5.496  11.890  0.2552  0.0483  0.7151
 8219TIP3    H146072   0.534   5.475  11.974 -0.0989 -2.3511 -0.0161
 8219TIP3    H246073   0.668   5.482  11.905  0.3281  0.8604  1.0483
 8220TIP3   OH246074   6.224   0.129   2.738  0.9197 -0.6617  0.1152
 8220TIP3    H146075   6.238   0.221   2.761  0.8930 -0.8318  0.7982
 8220TIP3    H246076   6.310   0.088   2.750  0.5097 -1.1067  1.5602
 8221TIP3   OH246077   6.728   0.960   2.992  0.4484 -0.4917 -0.0633
 8221TIP3    H146078   6.670   0.885   2.979 -1.7710  1.2068 -0.2667
 8221TIP3    H246079   6.690   1.007   3.066  2.4514 -0.1402  0.7693
 8222TIP3   OH246080   5.422   5.115  11.238  0.0979  0.4328  0.5673
 8222TIP3    H146081   5.484   5.129  11.310  0.9565 -0.9159  0.1098
 8222TIP3    H246082   5.370   5.039  11.265 -1.8944  1.9824  1.2766
 8223TIP3   OH246083   3.471   4.848   1.157 -0.5918  0.2780 -0.4083
 8223TIP3    H146084   3.411   4.899   1.102 -0.9268 -1.6623 -1.9081
 8223TIP3    H246085   3.419   4.772   1.184  0.8867 -0.9458 -0.9651
 8224TIP3   OH246086   0.737   1.544  13.795  0.0459  0.2754  0.4671
 8224TIP3    H146087   0.647   1.530  13.824  0.2848  0.5964  1.3642
 8224TIP3    H246088   0.778   1.458  13.800 -0.7219 -0.2803 -1.7897
 8225TIP3   OH246089   5.635   2.263   4.916 -0.0121  0.4973  0.5061
 8225TIP3    H146090   5.548   2.299   4.935 -0.3630 -0.0493 -0.0653
 8225TIP3    H246091   5.668   2.234   5.001  0.3469  2.3063  1.0237
 8226TIP3   OH246092   2.899   2.359  17.225 -0.1168 -0.2632 -0.0358
 8226TIP3    H146093   2.948   2.440  17.213 -0.5788 -0.2928 -2.2223
 8226TIP3    H246094   2.954   2.291  17.186 -0.9904 -0.5933 -0.7007
 8227TIP3   OH246095   5.897   4.996   5.631  0.4469  0.0546 -0.0903
 8227TIP3    H146096   5.916   5.011   5.723 -1.2328  0.6121  0.1843
 8227TIP3    H246097   5.935   5.072   5.586  0.2345  0.3859  0.2853
 8228TIP3   OH246098   0.238   5.424   5.372 -0.1818 -0.0140  0.2178
 8228TIP3    H146099   0.215   5.493   5.310 -0.9065 -1.1438 -0.8100
 8228TIP3    H246100   0.329   5.441   5.395  0.2022  0.2591 -1.4146
 8229TIP3   OH246101   5.378   5.053  12.355  0.1166  0.0202 -0.0374
 8229TIP3    H146102   5.465   5.094  12.354 -0.2362  0.7744 -1.2215
 8229TIP3    H246103   5.317   5.127  12.359 -0.4709 -0.5463  2.1418
 8230TIP3   OH246104   4.054   5.867  11.726  0.0906  0.6171 -0.6903
 8230TIP3    H146105   3.977   5.925  11.727  1.1727  2.0841  1.2579
 8230TIP3    H246106   4.096   5.884  11.642 -0.6223  1.2973 -0.9209
 8231TIP3   OH246107   2.896   6.289  14.790 -0.2451 -0.3386 -0.4417
 8231TIP3    H146108   2.988   6.261  14.793 -0.2425 -0.3749 -0.8195
 8231TIP3    H246109   2.900   6.384  14.783 -0.2560 -0.2052  1.1308
 8232TIP3   OH246110   0.855   0.709  14.143  0.3660 -0.1060  0.2057
 8232TIP3    H146111   0.926   0.774  14.142  0.6981 -0.4571  0.5724
 8232TIP3    H246112   0.778   0.759  14.170  0.1138  0.6277 -1.7827
 8233TIP3   OH246113   2.750   2.045  12.369 -0.4670 -0.1896 -0.4346
 8233TIP3    H146114   2.827   1.988  12.360 -0.2205 -0.6667  3.7422
 8233TIP3    H246115   2.683   2.004  12.315  0.2317 -3.5073  1.1443
 8234TIP3   OH246116   6.408   4.336   3.044  0.9847 -0.0935  0.3925
 8234TIP3    H146117   6.387   4.331   2.951 -0.1276 -0.5750  0.6686
 8234TIP3    H246118   6.346   4.399   3.080  1.3591  0.0285  0.8326
 8235TIP3   OH246119   3.332   2.203   2.324  0.5230  0.0645 -0.4072
 8235TIP3    H146120   3.398   2.247   2.378  0.8169  2.2488 -2.5226
 8235TIP3    H246121   3.383   2.151   2.262  0.2193 -0.0602 -0.5527
 8236TIP3   OH246122   1.326   1.548  11.711 -0.4932  0.5040 -0.3593
 8236TIP3    H146123   1.235   1.521  11.705 -0.0901 -1.9150  3.1363
 8236TIP3    H246124   1.333   1.589  11.798  1.3503  2.4139 -1.3505
 8237TIP3   OH246125   3.812   4.754   3.073  0.1836 -0.0299 -0.1252
 8237TIP3    H146126   3.836   4.792   3.157  1.9407 -0.2509 -0.5156
 8237TIP3    H246127   3.717   4.767   3.067  0.0174 -0.1173  1.9278
 8238TIP3   OH246128   2.714   0.996  13.909  0.3261  1.2801 -0.5062
 8238TIP3    H146129   2.622   0.981  13.932  0.5069 -2.2290 -1.8792
 8238TIP3    H246130   2.764   0.937  13.965  1.4202 -0.0595 -2.8331
 8239TIP3   OH246131   0.791   6.724  16.215 -0.2937  0.1317 -0.2560
 8239TIP3    H146132   0.869   6.705  16.164  1.0223  0.8129  1.4642
 8239TIP3    H246133   0.771   6.642  16.260  0.7886  0.5748  1.0699
 8240TIP3   OH246134   4.871   5.232  16.440  0.2925  0.0307 -0.2011
 8240TIP3    H146135   4.914   5.215  16.356 -0.9245 -1.5231 -0.5310
 8240TIP3    H246136   4.867   5.146  16.482  2.9345  1.1375  2.4644
 8241TIP3   OH246137   2.833   1.685   1.012  0.4009  0.5031  0.2906
 8241TIP3    H146138   2.819   1.759   0.953  0.3677  1.2710  1.2356
 8241TIP3    H246139   2.785   1.709   1.091  0.9494 -0.2254  0.8454
 8242TIP3   OH246140   2.252   3.245  14.583 -0.1062  0.3723  0.1382
 8242TIP3    H146141   2.328   3.260  14.527 -0.0274 -0.1813  0.0948
 8242TIP3    H246142   2.194   3.189  14.532 -0.5465  0.7955  0.1710
 8243TIP3   OH246143   0.944   6.623  16.812  0.5060 -0.0214  0.3503
 8243TIP3    H146144   0.981   6.694  16.761  0.0546  1.4095  1.9403
 8243TIP3    H246145   0.907   6.667  16.890 -0.8744 -1.8448  0.7514
 8244TIP3   OH246146   3.977   5.106   2.971 -0.3352 -0.2621 -0.3831
 8244TIP3    H146147   3.885   5.125   2.949  0.0530  1.0125 -0.9465
 8244TIP3    H246148   3.974   5.081   3.063 -1.1455  0.6115 -0.1583
 8245TIP3   OH246149   3.573   6.477   1.524 -0.4381 -0.9996 -0.3653
 8245TIP3    H146150   3.648   6.455   1.580 -0.7907 -0.7776  0.1948
 8245TIP3    H246151   3.578   6.413   1.453 -0.4973 -1.8445  0.3756
 8246TIP3   OH246152   1.425   6.718  11.793 -0.6947 -0.4455 -0.6939
 8246TIP3    H146153   1.361   6.682  11.732  0.9843 -1.2839 -1.9900
 8246TIP3    H246154   1.431   6.811  11.768 -1.8104 -0.2124 -0.1703
 8247TIP3   OH246155   2.054   3.826   2.117 -0.2150  0.2884 -0.0641
 8247TIP3    H146156   2.044   3.877   2.036 -0.5228  1.9778  1.0188
 8247TIP3    H246157   2.144   3.844   2.145  0.3585 -1.4193 -0.7641
 8248TIP3   OH246158   0.098   6.755   5.404  0.1258  0.0729 -0.4938
 8248TIP3    H146159   0.095   6.661   5.387  0.0208  0.0715 -0.4709
 8248TIP3    H246160   0.054   6.794   5.328 -2.9388 -0.0933  1.1412
 8249TIP3   OH246161   5.018   2.294  16.744  0.0503  0.5293 -0.6122
 8249TIP3    H146162   5.017   2.322  16.653 -0.3300 -0.6755 -0.9947
 8249TIP3    H246163   4.928   2.266  16.761  0.2349  0.2887 -0.0149
 8250TIP3   OH246164   1.802   2.471  11.146 -0.0048 -0.0170 -0.8527
 8250TIP3    H146165   1.765   2.464  11.058 -0.4098  1.5693 -0.8219
 8250TIP3    H246166   1.856   2.393  11.155 -2.2304 -1.6602 -1.4200
 8251TIP3   OH246167   5.339   5.520  16.551 -0.0517  0.3195 -0.0673
 8251TIP3    H146168   5.267   5.458  16.539  1.2416 -0.8719 -2.1908
 8251TIP3    H246169   5.418   5.467  16.538  1.1032  2.2577 -1.1657
 8252TIP3   OH246170   3.599   2.182   6.239  0.0364  0.2275 -0.5628
 8252TIP3    H146171   3.547   2.262   6.247  0.6361  0.6121 -0.4297
 8252TIP3    H246172   3.545   2.114   6.279  0.4812  0.9999  1.3887
 8253TIP3   OH246173   1.320   2.940  17.198 -0.1625  0.1486  0.1307
 8253TIP3    H146174   1.362   3.018  17.234  0.7692  0.9479 -2.5901
 8253TIP3    H246175   1.235   2.936  17.241 -0.8334  3.5144 -0.7967
 8254TIP3   OH246176   0.073   3.210  14.032  0.0144 -0.1358 -0.3213
 8254TIP3    H146177   0.028   3.234  13.951 -1.4936  1.1468  0.8526
 8254TIP3    H246178   0.055   3.117  14.043 -2.7422  0.4356  0.3253
 8255TIP3   OH246179   6.227   5.259  16.990  0.7368  0.2722  0.2590
 8255TIP3    H146180   6.277   5.265  17.071  0.6322 -1.7722  0.4867
 8255TIP3    H246181   6.171   5.337  16.990  0.1229 -0.1438  2.5791
 8256TIP3   OH246182   1.673   0.935  11.731 -0.4457 -1.1460  0.1467
 8256TIP3    H146183   1.654   1.011  11.786 -0.7356 -0.3099 -1.0849
 8256TIP3    H246184   1.588   0.890  11.722 -0.2384 -1.7346  1.0236
 8257TIP3   OH246185   5.756   1.862  14.215  0.4779 -0.2115  0.2873
 8257TIP3    H146186   5.741   1.821  14.130 -0.1597  1.7854 -0.5860
 8257TIP3    H246187   5.832   1.918  14.202  0.6607 -0.2452  1.1678
 8258TIP3   OH246188   5.729   2.088   4.366  0.5126  0.0801 -0.4736
 8258TIP3    H146189   5.700   2.062   4.279  0.9603 -0.9888 -0.3127
 8258TIP3    H246190   5.704   2.180   4.373 -0.7058 -0.1799 -1.2213
 8259TIP3   OH246191   1.057   0.414  17.054  0.0437 -0.6136 -0.1652
 8259TIP3    H146192   1.100   0.357  16.990 -0.5285  0.9057 -1.9469
 8259TIP3    H246193   1.079   0.503  17.025 -1.1226  0.1011  1.1234
 8260TIP3   OH246194   2.941   1.383  15.850  0.1958 -0.2218  0.3853
 8260TIP3    H146195   2.897   1.345  15.926  0.7183 -1.8775 -0.1208
 8260TIP3    H246196   3.017   1.429  15.887 -1.3766  1.8662  1.1669
 8261TIP3   OH246197   4.926   3.257  16.598 -0.6119  0.3183  0.3820
 8261TIP3    H146198   4.854   3.198  16.623  0.4509 -1.0206  0.3453
 8261TIP3    H246199   4.960   3.289  16.682  0.0151 -0.5890  0.4725
 8262TIP3   OH246200   2.254   4.236   1.792 -0.0674  0.4502  0.1015
 8262TIP3    H146201   2.177   4.289   1.809  0.9539  1.5030  1.5289
 8262TIP3    H246202   2.322   4.299   1.767  0.1952 -0.5108 -1.6877
 8263TIP3   OH246203   1.493   4.317   0.311 -0.7029 -0.3401 -0.0905
 8263TIP3    H146204   1.416   4.342   0.260 -0.1247 -1.2075 -1.4432
 8263TIP3    H246205   1.557   4.291   0.245 -0.1226 -2.0270  1.0978
 8264TIP3   OH246206   6.230   0.776   6.795 -0.0277 -0.8694 -0.2893
 8264TIP3    H146207   6.251   0.689   6.761 -1.2159 -0.3444 -2.5137
 8264TIP3    H246208   6.304   0.830   6.769 -0.4680 -0.6829 -1.1631
 8265TIP3   OH246209   0.858   3.276  15.664  0.2677 -0.0409  0.0754
 8265TIP3    H146210   0.907   3.204  15.625  0.6113  1.1528 -1.7618
 8265TIP3    H246211   0.915   3.310  15.733  1.0677 -0.1004 -0.5562
 8266TIP3   OH246212   4.366   3.813  15.313 -0.4164 -0.0287 -0.0558
 8266TIP3    H146213   4.276   3.845  15.321 -0.7010 -1.1401  1.3085
 8266TIP3    H246214   4.389   3.783  15.401  0.4357 -1.9814 -0.9148
 8267TIP3   OH246215   5.442   0.029  16.777 -0.7625  1.0922 -0.0024
 8267TIP3    H146216   5.391  -0.022  16.714 -1.7252  1.4826  0.4428
 8267TIP3    H246217   5.426   0.120  16.753 -1.6753  1.2596  1.2075
 8268TIP3   OH246218   4.638   5.716  12.573  0.1873 -0.2677 -0.7288
 8268TIP3    H146219   4.733   5.723  12.587  0.5168 -0.8288 -2.5585
 8268TIP3    H246220   4.629   5.648  12.506 -1.6285 -1.6338  0.8328
 8269TIP3   OH246221   2.358   3.996  14.226 -0.5555 -1.0163  0.1643
 8269TIP3    H146222   2.385   4.046  14.149 -0.6967 -2.9542 -1.1917
 8269TIP3    H246223   2.297   3.930  14.192 -1.9577 -0.8131  2.2078
 8270TIP3   OH246224   1.771   3.510   4.843  0.0614 -0.1739  0.6845
 8270TIP3    H146225   1.843   3.567   4.869  0.8207  0.2623 -2.1651
 8270TIP3    H246226   1.723   3.562   4.777 -1.4189 -1.4040  0.7646
 8271TIP3   OH246227   1.712   0.111   4.159  0.1981  0.5366  0.0029
 8271TIP3    H146228   1.760   0.193   4.147  2.0181 -0.7844 -2.1261
 8271TIP3    H246229   1.641   0.117   4.095  0.1144  0.6112  0.1025
 8272TIP3   OH246230   2.397   0.590  16.414  1.0086 -0.7823  0.2235
 8272TIP3    H146231   2.367   0.672  16.374 -2.2031 -2.2543 -0.5394
 8272TIP3    H246232   2.373   0.522  16.351  1.9860 -2.4987  1.6567
 8273TIP3   OH246233   0.567   3.717  15.965  0.4274 -0.6799 -0.3133
 8273TIP3    H146234   0.594   3.777  16.034  1.3307 -0.6462 -0.6808
 8273TIP3    H246235   0.520   3.772  15.902  2.0002 -0.1802 -1.0721
 8274TIP3   OH246236   3.379   4.493   0.342 -0.1122  0.2368 -0.0565
 8274TIP3    H146237   3.427   4.455   0.269 -0.8600 -3.4162  1.2581
 8274TIP3    H246238   3.433   4.568   0.369  0.6817  1.0145 -3.6388
 8275TIP3   OH246239   5.966   0.277   2.970 -0.3048 -0.4218  0.2139
 8275TIP3    H146240   5.900   0.265   2.901 -0.8956  1.1863  0.4760
 8275TIP3    H246241   6.028   0.340   2.933  0.5101 -1.1212  0.3755
 8276TIP3   OH246242   0.335   5.514   5.075 -0.0960 -0.5882  0.1756
 8276TIP3    H146243   0.293   5.471   5.000 -1.0020 -1.9420  1.4393
 8276TIP3    H246244   0.392   5.446   5.112  2.2293  0.8087 -0.7096
 8277TIP3   OH246245   0.110   4.899   3.961 -0.0501  0.3940 -0.2317
 8277TIP3    H146246   0.166   4.848   3.903  0.7363  0.3812  0.5381
 8277TIP3    H246247   0.049   4.835   3.999 -0.9694  0.4944 -1.4929
 8278TIP3   OH246248   4.399   1.985  15.434 -0.0441 -0.3477 -0.4724
 8278TIP3    H146249   4.304   1.983  15.422 -0.2799 -0.4533  1.2760
 8278TIP3    H246250   4.425   1.893  15.433  0.3045 -0.2609 -2.7058
 8279TIP3   OH246251   2.833   2.375   3.228  0.5808 -0.2503  0.6164
 8279TIP3    H146252   2.877   2.405   3.307 -0.3505  1.1098  0.6488
 8279TIP3    H246253   2.803   2.287   3.248  1.0048 -0.1909  1.5120
 8280TIP3   OH246254   3.495   3.025  12.898  0.3177 -0.0134 -0.0520
 8280TIP3    H146255   3.449   3.000  12.818 -0.3606 -1.6681  0.8235
 8280TIP3    H246256   3.451   3.104  12.929 -1.0240 -0.7788  0.0155
 8281TIP3   OH246257   2.547   4.078   5.335  0.1545  0.0454  0.0322
 8281TIP3    H146258   2.476   4.102   5.275  0.2315 -0.8718 -0.4515
 8281TIP3    H246259   2.537   4.136   5.410 -0.9974  0.0457 -0.1150
 8282TIP3   OH246260   1.780   1.258   3.233  0.6636  0.0720 -0.2232
 8282TIP3    H146261   1.769   1.230   3.324  1.4317 -1.6470 -0.6548
 8282TIP3    H246262   1.805   1.350   3.240 -0.6281  0.3352  1.2413
 8283TIP3   OH246263   1.351   2.423  12.162 -0.5752 -0.2233  0.7111
 8283TIP3    H146264   1.334   2.408  12.255 -0.6168 -1.0569  0.5746
 8283TIP3    H246265   1.361   2.335  12.125  1.0770  0.1394  0.2316
 8284TIP3   OH246266   4.870   4.769   3.995  0.1066  0.2010  0.2245
 8284TIP3    H146267   4.858   4.820   3.915 -1.2842  0.5290  0.6343
 8284TIP3    H246268   4.829   4.684   3.976  0.8824 -0.1638  0.1569
 8285TIP3   OH246269   2.733   4.594   0.091 -0.2375  0.0036 -0.2422
 8285TIP3    H146270   2.720   4.639   0.175  1.0143 -0.7844  0.3909
 8285TIP3    H246271   2.649   4.550   0.074 -0.9002  1.1560 -0.0122
 8286TIP3   OH246272   4.848   2.476   0.887  0.1995  0.6113  0.0821
 8286TIP3    H146273   4.774   2.524   0.924 -0.8007 -1.7677  1.2925
 8286TIP3    H246274   4.924   2.506   0.936 -0.4443  0.8224  0.9504
 8287TIP3   OH246275   1.835   6.696   0.802 -0.3222  0.3766 -0.3673
 8287TIP3    H146276   1.743   6.684   0.826 -0.5851 -0.4081 -1.7034
 8287TIP3    H246277   1.853   6.788   0.822 -1.2273  0.3758  0.4715
 8288TIP3   OH246278   4.565   5.458   6.197  0.8260 -0.0934 -0.0331
 8288TIP3    H146279   4.548   5.545   6.162  0.4497 -0.2777 -0.3098
 8288TIP3    H246280   4.552   5.467   6.292  0.2932  0.0352 -0.1167
 8289TIP3   OH246281   1.270   1.370   5.155  0.2839  0.0355  0.4322
 8289TIP3    H146282   1.274   1.372   5.059  0.3123  0.3165  0.4394
 8289TIP3    H246283   1.347   1.419   5.183 -0.9547  1.9442  0.5851
 8290TIP3   OH246284   3.084   2.684  12.191  0.1949 -0.3717  0.2891
 8290TIP3    H146285   3.107   2.748  12.258  1.1416  1.3322 -1.6195
 8290TIP3    H246286   3.004   2.717  12.151  0.4085 -0.6302 -0.3697
 8291TIP3   OH246287   0.740   6.563  15.889  0.3666 -0.1535  0.4425
 8291TIP3    H146288   0.709   6.575  15.978 -1.3776  0.0564 -0.1686
 8291TIP3    H246289   0.727   6.649  15.847  1.5038 -0.1469  0.0811
 8292TIP3   OH246290   3.599   3.273  16.221  0.1770  0.2612 -0.0371
 8292TIP3    H146291   3.661   3.203  16.241  0.9965  0.7325 -0.8533
 8292TIP3    H246292   3.591   3.322  16.303  0.0066 -0.4785  0.3894
 8293TIP3   OH246293   0.337   2.359   5.891  0.0586  0.3354  0.0501
 8293TIP3    H146294   0.321   2.332   5.801  1.4040 -0.8783  0.1718
 8293TIP3    H246295   0.253   2.344   5.936 -0.2897 -0.0867 -0.7380
 8294TIP3   OH246296   2.357   5.343   2.082 -0.5970 -0.5554 -0.3395
 8294TIP3    H146297   2.414   5.292   2.023  0.3513 -0.0661  0.1406
 8294TIP3    H246298   2.410   5.356   2.161 -1.2256  0.2622 -0.0462
 8295TIP3   OH246299   2.559   6.706  15.986 -0.2193  0.4441 -0.0908
 8295TIP3    H146300   2.571   6.663  15.901 -2.5730  0.6534 -0.5735
 8295TIP3    H246301   2.621   6.779  15.985  1.8721 -1.3007 -0.3784
 8296TIP3   OH246302   1.315   3.984  16.858 -0.5889  0.2603 -0.4138
 8296TIP3    H146303   1.334   3.976  16.952 -1.3570  3.3657  0.0704
 8296TIP3    H246304   1.276   4.071  16.849  0.4563  0.4371 -3.7931
 8297TIP3   OH246305   4.474   3.275  15.918  0.6097  0.1795  0.7787
 8297TIP3    H146306   4.556   3.271  15.868  0.9623  2.5801  1.0812
 8297TIP3    H246307   4.411   3.312  15.857  0.1552 -0.2287  1.0077
 8298TIP3   OH246308   6.256   5.708   1.715 -0.0160  0.2362 -0.8144
 8298TIP3    H146309   6.350   5.714   1.731  0.0676 -0.6850 -0.9255
 8298TIP3    H246310   6.249   5.672   1.626 -0.4767  0.5621 -0.9174
 8299TIP3   OH246311   5.072   6.166  12.386 -0.1335  0.2301 -0.1203
 8299TIP3    H146312   5.035   6.178  12.298 -0.0335  0.8225 -0.0775
 8299TIP3    H246313   5.048   6.245  12.433  0.6039  0.3075  0.1189
 8300TIP3   OH246314   2.486   2.934  15.115 -0.5374 -0.3394  0.2860
 8300TIP3    H146315   2.486   2.851  15.067  0.3775 -0.8033  1.0757
 8300TIP3    H246316   2.393   2.956  15.124 -0.8100 -1.5187  0.4803
 8301TIP3   OH246317   0.770   6.238   6.033  0.0209 -0.2116  0.2665
 8301TIP3    H146318   0.846   6.228   6.091  2.1822 -2.0383 -2.7326
 8301TIP3    H246319   0.697   6.199   6.082  1.7873 -1.7221  1.7796
 8302TIP3   OH246320   0.403   0.944  12.727 -0.3068 -0.3178 -0.0856
 8302TIP3    H146321   0.412   0.988  12.642  2.0287 -1.1038 -0.2898
 8302TIP3    H246322   0.493   0.930  12.756 -1.0671 -0.2556  2.4376
 8303TIP3   OH246323   0.903   5.442  11.862 -0.0811 -0.4412  0.1236
 8303TIP3    H146324   0.876   5.490  11.940 -0.2328 -2.2519  1.2079
 8303TIP3    H246325   0.994   5.420  11.878  0.6922  1.4551 -1.4034
 8304TIP3   OH246326   2.333   1.890  12.238 -0.1464  0.9294  0.5034
 8304TIP3    H146327   2.327   1.798  12.211 -1.1201  1.1660 -0.1221
 8304TIP3    H246328   2.260   1.933  12.193 -1.0215  1.5994  2.5353
 8305TIP3   OH246329   4.003   3.597   4.226  1.2273 -0.2221  0.1289
 8305TIP3    H146330   4.080   3.630   4.273  1.1706  1.3457 -0.8470
 8305TIP3    H246331   3.934   3.660   4.247  0.0145 -1.9829  1.5385
 8306TIP3   OH246332   3.497   3.641  13.858 -0.7547  0.7366  0.3978
 8306TIP3    H146333   3.497   3.718  13.916 -1.3715  1.2232 -0.2392
 8306TIP3    H246334   3.585   3.640  13.820 -0.4395  0.5834  1.1179
 8307TIP3   OH246335   2.121   0.858   5.026 -0.6817 -0.5875  0.2677
 8307TIP3    H146336   2.099   0.895   5.111  0.7956  1.6266 -0.2736
 8307TIP3    H246337   2.072   0.912   4.964  1.6176  0.6349 -0.5486
 8308TIP3   OH246338   1.749   5.611  12.205 -0.4374  0.3428  0.0152
 8308TIP3    H146339   1.702   5.689  12.175  1.6644  1.5421 -0.2533
 8308TIP3    H246340   1.780   5.570  12.124 -1.1934 -0.5508  0.1806
 8309TIP3   OH246341   1.136   1.346   5.384 -0.0768 -0.3012  0.0938
 8309TIP3    H146342   1.058   1.292   5.376  0.8430 -1.5733 -0.4727
 8309TIP3    H246343   1.180   1.337   5.299  1.1086 -0.2628  0.6946
 8310TIP3   OH246344   0.795   3.477  14.467  0.3122  0.0203 -0.2352
 8310TIP3    H146345   0.723   3.540  14.470  1.1321  0.9181  1.1801
 8310TIP3    H246346   0.758   3.396  14.502 -0.1677  0.2920 -0.1109
 8311TIP3   OH246347   4.453   6.120   0.261 -0.3497 -0.1433 -0.0179
 8311TIP3    H146348   4.398   6.088   0.333  1.0491 -1.9088  0.2912
 8311TIP3    H246349   4.498   6.042   0.228  2.9396  1.4234  0.5881
 8312TIP3   OH246350   6.774   0.131  15.769 -0.2785  0.6885  0.2243
 8312TIP3    H146351   6.828   0.161  15.842 -1.1405 -0.6363  1.4393
 8312TIP3    H246352   6.746   0.043  15.795 -1.8775  0.8194 -1.0052
 8313TIP3   OH246353   1.480   0.749   5.178 -0.8405 -0.1299  0.5890
 8313TIP3    H146354   1.575   0.760   5.176 -0.5787 -2.2664  0.2585
 8313TIP3    H246355   1.460   0.698   5.099 -2.1188 -0.6591  1.2367
 8314TIP3   OH246356   0.701   4.541  12.956 -0.1716 -0.2898  0.1542
 8314TIP3    H146357   0.691   4.458  13.003  0.9258 -0.9729 -0.7925
 8314TIP3    H246358   0.650   4.529  12.876 -0.1666  0.0113  0.1081
 8315TIP3   OH246359   5.173   5.476  14.368 -0.6519  0.1569  0.5177
 8315TIP3    H146360   5.123   5.556  14.381  0.2385  0.9706 -0.9000
 8315TIP3    H246361   5.243   5.481  14.433  0.6678  1.6084 -0.9694
 8316TIP3   OH246362   3.559   6.678  14.400  0.2954  0.6619  0.1981
 8316TIP3    H146363   3.591   6.747  14.458  0.9016  0.4602  0.1034
 8316TIP3    H246364   3.588   6.705  14.312  0.3398  0.4032  0.1332
 8317TIP3   OH246365   3.758   0.270   5.170  0.2851 -0.8755 -0.4407
 8317TIP3    H146366   3.815   0.299   5.241  1.4496  0.3102 -1.8323
 8317TIP3    H246367   3.679   0.324   5.179  2.1802  2.4084 -2.6408
 8318TIP3   OH246368   1.820   2.548   5.101  0.2919  0.6728 -0.1022
 8318TIP3    H146369   1.792   2.614   5.038 -1.3077  1.3098  1.2528
 8318TIP3    H246370   1.784   2.577   5.185  2.4689 -0.0950  1.1505
 8319TIP3   OH246371   2.035   0.265  10.839 -0.0757  0.7684  0.3643
 8319TIP3    H146372   2.050   0.350  10.797  0.3310  0.2562 -0.5562
 8319TIP3    H246373   1.969   0.223  10.783  1.6637 -0.5863 -0.7432
 8320TIP3   OH246374   2.110   6.143  17.234 -0.2435  0.5853  0.7521
 8320TIP3    H146375   2.179   6.083  17.204 -1.2022  0.3345 -1.0036
 8320TIP3    H246376   2.121   6.221  17.180 -1.6947  0.3242  0.0583
 8321TIP3   OH246377   2.254   2.093   3.217 -0.2542 -0.1087 -0.0941
 8321TIP3    H146378   2.319   2.044   3.266  1.1099  0.0776 -1.6899
 8321TIP3    H246379   2.276   2.185   3.234  0.4633 -0.0412 -1.3476
 8322TIP3   OH246380   5.196   1.598   2.979  0.2295  0.2855 -0.4400
 8322TIP3    H146381   5.180   1.508   3.007  1.5282 -0.3697 -1.7070
 8322TIP3    H246382   5.166   1.652   3.052 -1.7716 -1.1096 -0.1855
 8323TIP3   OH246383   1.370   2.919  14.078  0.1467 -0.6353  0.3390
 8323TIP3    H146384   1.445   2.861  14.068  0.4913 -0.0867 -0.3487
 8323TIP3    H246385   1.357   2.927  14.172  1.8308  0.4008  0.4870
 8324TIP3   OH246386   4.684   2.101   0.995 -0.0031 -0.0873  0.4748
 8324TIP3    H146387   4.630   2.023   0.986 -0.0600 -0.0162  0.2104
 8324TIP3    H246388   4.643   2.151   1.066  0.3819 -0.5828  1.0601
 8325TIP3   OH246389   2.705   5.495   0.263 -0.1249  0.6745 -0.2160
 8325TIP3    H146390   2.725   5.490   0.169  1.4405 -0.8042  0.1731
 8325TIP3    H246391   2.776   5.446   0.305 -1.1308  0.8358  1.7040
 8326TIP3   OH246392   0.770   0.023  14.828 -0.4418 -0.4719 -0.3033
 8326TIP3    H146393   0.727  -0.024  14.900 -0.2237 -0.4505 -0.1557
 8326TIP3    H246394   0.748  -0.027  14.750 -1.2057 -0.1320 -0.3049
 8327TIP3   OH246395   0.318   3.911   1.533 -0.1444 -0.0012  0.1898
 8327TIP3    H146396   0.224   3.923   1.522 -0.0006 -0.6348 -2.0027
 8327TIP3    H246397   0.327   3.857   1.612 -1.4661  2.0772  1.8144
 8328TIP3   OH246398   3.847   6.782   2.560 -0.1313  0.3143  0.2601
 8328TIP3    H146399   3.863   6.805   2.651 -0.3945  0.5711  0.2399
 8328TIP3    H246400   3.752   6.775   2.553 -0.0406 -1.2368  0.3821
 8329TIP3   OH246401   2.670   4.803  15.879  0.7476  0.0419 -0.1081
 8329TIP3    H146402   2.587   4.778  15.918 -0.0553  1.5580 -0.7807
 8329TIP3    H246403   2.715   4.852  15.948  0.5515  0.2897 -0.1572
 8330TIP3   OH246404   0.468   5.260  11.619  0.9096  0.0815 -0.6687
 8330TIP3    H146405   0.490   5.274  11.711 -1.7545  0.5348 -0.0531
 8330TIP3    H246406   0.534   5.199  11.587  1.6491 -0.3573  1.6435
 8331TIP3   OH246407   2.604   2.700  15.004 -0.2230 -0.2034  0.2662
 8331TIP3    H146408   2.620   2.646  14.926 -0.6947  0.3032 -0.1901
 8331TIP3    H246409   2.560   2.641  15.065 -2.8998  0.2627 -1.1283
 8332TIP3   OH246410   3.091   2.260   4.263  0.2187 -0.4353  0.2611
 8332TIP3    H146411   3.160   2.319   4.234  1.2665 -1.5107  0.5073
 8332TIP3    H246412   3.044   2.236   4.183  0.1692  0.2523  0.0862
 8333TIP3   OH246413   6.600   3.227   5.173  0.3139 -0.6502 -0.7332
 8333TIP3    H146414   6.555   3.151   5.136 -0.4045  0.1875 -1.6141
 8333TIP3    H246415   6.531   3.278   5.216  0.6255 -0.0258 -0.9518
 8334TIP3   OH246416   5.925   0.222  15.182 -0.2268 -0.0209  0.0110
 8334TIP3    H146417   6.013   0.211  15.146  0.1533  0.4134  0.8023
 8334TIP3    H246418   5.877   0.270  15.114 -0.2231 -1.3645 -0.9601
 8335TIP3   OH246419   5.107   1.552  16.422 -0.2748  0.2982 -0.6791
 8335TIP3    H146420   5.062   1.627  16.382 -2.1200 -1.0542 -1.2480
 8335TIP3    H246421   5.039   1.510  16.476  0.1295 -2.1395 -2.0142
 8336TIP3   OH246422   1.689   2.693  13.456 -0.6033 -0.6383 -0.2892
 8336TIP3    H146423   1.728   2.723  13.374  0.6072  1.3589  0.9653
 8336TIP3    H246424   1.740   2.616  13.480 -1.1718 -1.4296 -1.5412
 8337TIP3   OH246425   3.193   5.726   3.389  0.1373 -0.0628  0.1463
 8337TIP3    H146426   3.260   5.737   3.321 -0.3401  0.3825 -0.2569
 8337TIP3    H246427   3.200   5.634   3.414  1.3992  0.1557  0.6340
 8338TIP3   OH246428   0.790   1.443  14.540  0.0281  0.1873 -0.3350
 8338TIP3    H146429   0.881   1.424  14.562 -0.4005 -2.7312 -0.8744
 8338TIP3    H246430   0.753   1.480  14.621  1.4013  0.4451  0.1931
 8339TIP3   OH246431   1.826   2.595   2.547 -0.4122 -0.4092  0.2973
 8339TIP3    H146432   1.734   2.594   2.574 -0.2885 -1.1848  0.7179
 8339TIP3    H246433   1.833   2.669   2.487 -0.6157  1.5038  2.5739
 8340TIP3   OH246434   1.334   1.164   3.916  0.0048 -0.3444 -0.0278
 8340TIP3    H146435   1.376   1.121   3.991  0.7080 -0.8708 -0.7112
 8340TIP3    H246436   1.390   1.142   3.842 -2.5349 -2.6659 -1.3060
 8341TIP3   OH246437   6.232   0.542   6.640  0.0398 -0.1500  0.9578
 8341TIP3    H146438   6.262   0.452   6.631  0.1886 -0.1971  1.8508
 8341TIP3    H246439   6.245   0.581   6.554 -0.9615 -1.2589  0.2951
 8342TIP3   OH246440   2.545   5.398  13.556  0.1261 -0.0549  0.5055
 8342TIP3    H146441   2.626   5.404  13.605 -0.6286  0.2041  1.7331
 8342TIP3    H246442   2.515   5.489  13.546 -0.5743 -0.2285  1.0080
 8343TIP3   OH246443   5.061   0.496  17.124  0.1010 -0.3375  0.8046
 8343TIP3    H146444   4.969   0.503  17.098  0.0269 -1.7443  0.6880
 8343TIP3    H246445   5.108   0.544  17.055 -0.6077  1.2488  1.3892
 8344TIP3   OH246446   5.300   2.536  11.953  0.5325 -0.4179  0.6944
 8344TIP3    H146447   5.208   2.541  11.980 -0.3145 -0.2692 -2.0992
 8344TIP3    H246448   5.342   2.610  11.997 -0.6634 -0.4953  2.0075
 8345TIP3   OH246449   6.638   4.007   5.703  0.9456  0.0381 -0.5747
 8345TIP3    H146450   6.609   3.917   5.719 -2.5488  0.9380 -1.5662
 8345TIP3    H246451   6.681   4.033   5.785  2.5939 -2.7208 -0.5103
 8346TIP3   OH246452   4.479   2.701  16.465  0.3631 -0.3108  0.0920
 8346TIP3    H146453   4.388   2.731  16.466  0.2675 -0.5399 -1.2942
 8346TIP3    H246454   4.475   2.611  16.496  0.0226 -0.5800 -0.7403
 8347TIP3   OH246455   6.243   4.499  10.874 -0.2588 -0.2788 -0.1115
 8347TIP3    H146456   6.167   4.528  10.824  0.0423  1.5398  0.4568
 8347TIP3    H246457   6.318   4.520  10.817 -0.0209  0.2798  0.4084
 8348TIP3   OH246458   2.283   5.257   2.560 -0.2682  0.2508  0.4153
 8348TIP3    H146459   2.216   5.217   2.616 -0.4502  1.9974  1.4789
 8348TIP3    H246460   2.245   5.254   2.472 -1.9365  1.5697  1.0611
 8349TIP3   OH246461   3.118   4.708  14.773 -0.3433  0.3986 -0.5880
 8349TIP3    H146462   3.055   4.764  14.728 -0.7536  0.0872 -0.4079
 8349TIP3    H246463   3.191   4.700  14.712 -0.9181 -0.0683 -1.2319
 8350TIP3   OH246464   0.907   4.194   4.998  0.5386 -0.0164  0.7825
 8350TIP3    H146465   0.997   4.161   4.992  0.0322 -1.6321  1.8301
 8350TIP3    H246466   0.917   4.287   5.017  2.0168 -0.4241  2.1097
 8351TIP3   OH246467   1.108   1.607  16.215  0.1821  0.0710 -0.1836
 8351TIP3    H146468   1.021   1.570  16.195  0.1721  0.2268 -0.4378
 8351TIP3    H246469   1.093   1.663  16.291  0.4928 -1.6283  1.1541
 8352TIP3   OH246470   0.477   6.717   4.232 -0.3637 -0.2065 -0.2215
 8352TIP3    H146471   0.383   6.718   4.251 -0.3400  0.7668 -0.1177
 8352TIP3    H246472   0.519   6.709   4.318 -0.3451  0.1829 -0.1891
 8353TIP3   OH246473   4.624   4.227   3.940  0.6236  0.2239 -0.0770
 8353TIP3    H146474   4.582   4.306   3.908  1.6326  0.8353  0.0901
 8353TIP3    H246475   4.573   4.203   4.018  1.3531  1.6998  0.8879
 8354TIP3   OH246476   1.156   2.491   0.739  0.5086 -0.2100 -0.3090
 8354TIP3    H146477   1.166   2.521   0.649 -2.5943  0.8991 -0.3560
 8354TIP3    H246478   1.120   2.403   0.731  0.2087 -0.1026 -0.1788
 8355TIP3   OH246479   2.772   0.475  15.402  0.0266 -0.0499  0.1454
 8355TIP3    H146480   2.804   0.508  15.486 -0.8206  0.0945  0.4166
 8355TIP3    H246481   2.842   0.417  15.371  0.8376  0.7540  0.4167
 8356TIP3   OH246482   6.201   6.599  15.066  0.2490 -0.6493 -0.1280
 8356TIP3    H146483   6.231   6.518  15.107  1.3407 -0.1231  0.1197
 8356TIP3    H246484   6.243   6.669  15.116 -0.3289  0.0596 -0.6179
 8357TIP3   OH246485   0.241   5.834  13.585  0.0272  0.0181  0.1760
 8357TIP3    H146486   0.177   5.897  13.618 -0.1816 -0.5304  0.8350
 8357TIP3    H246487   0.323   5.860  13.627  0.4224  1.1772 -1.2416
 8358TIP3   OH246488   1.243   0.904   0.464  0.2591  0.2684  0.0531
 8358TIP3    H146489   1.195   0.935   0.387  0.4444  0.2569 -0.0694
 8358TIP3    H246490   1.312   0.969   0.477 -0.5323  0.9289  0.9705
 8359TIP3   OH246491   1.931   6.584   2.558 -0.2257  0.3433 -0.2117
 8359TIP3    H146492   1.968   6.649   2.618  1.0718 -0.8899  0.3640
 8359TIP3    H246493   1.985   6.590   2.479 -0.7963  0.7172 -0.5780
 8360TIP3   OH246494   0.666   4.649  13.248 -0.0710 -0.4515 -0.2678
 8360TIP3    H146495   0.751   4.668  13.210  0.2439  1.9167  1.4956
 8360TIP3    H246496   0.603   4.679  13.183  0.4564  0.4545 -0.3719
 8361TIP3   OH246497   4.419   0.185   3.991 -0.0612 -0.2331 -0.8889
 8361TIP3    H146498   4.442   0.247   3.921  4.0374 -1.1260 -0.4930
 8361TIP3    H246499   4.424   0.237   4.071 -1.5856  0.0461 -0.9629
 8362TIP3   OH246500   1.861   0.265   1.335 -0.3541  0.0889  0.0762
 8362TIP3    H146501   1.894   0.253   1.424  0.1168  0.3076 -0.0709
 8362TIP3    H246502   1.775   0.222   1.336  0.2681 -1.1605  0.2282
 8363TIP3   OH246503   1.472   5.641   6.598  0.2504  0.4837  0.5675
 8363TIP3    H146504   1.391   5.691   6.587  1.3876  2.3789  0.4690
 8363TIP3    H246505   1.479   5.588   6.519  0.5553  2.5106 -0.8200
 8364TIP3   OH246506   0.572   1.100   2.450  0.0353 -0.0326 -0.1903
 8364TIP3    H146507   0.664   1.117   2.466  0.3232 -0.8110 -1.0241
 8364TIP3    H246508   0.533   1.097   2.538  0.8377  0.0542  0.1712
 8365TIP3   OH246509   2.408   2.240  12.736 -0.2613  0.0792  0.0974
 8365TIP3    H146510   2.454   2.159  12.710  0.7598  0.6109  0.2190
 8365TIP3    H246511   2.361   2.266  12.657  0.1863 -0.1081 -0.2382
 8366TIP3   OH246512   3.473   5.885   3.558 -0.3587  0.0687  0.1009
 8366TIP3    H146513   3.431   5.952   3.612 -0.3113 -0.8384  1.2585
 8366TIP3    H246514   3.539   5.934   3.507 -1.0677  1.0760  0.1366
 8367TIP3   OH246515   4.395   5.797   3.178 -0.0731 -0.3784 -0.2238
 8367TIP3    H146516   4.317   5.744   3.196 -0.5810  0.3224 -0.3415
 8367TIP3    H246517   4.412   5.843   3.260  0.0262 -0.2876 -0.2949
 8368TIP3   OH246518   0.266   1.310   4.424  0.1921 -0.3620  0.4354
 8368TIP3    H146519   0.288   1.291   4.515  0.7016 -0.6866  0.2406
 8368TIP3    H246520   0.251   1.225   4.384 -0.2517 -0.2068  0.2695
 8369TIP3   OH246521   3.816   3.556   3.303  0.8899  0.4371  0.3483
 8369TIP3    H146522   3.783   3.645   3.287  1.9013  0.9496  1.0075
 8369TIP3    H246523   3.911   3.568   3.313  1.5352 -1.1690 -3.0506
 8370TIP3   OH246524   3.285   1.893   2.925  0.2213 -0.1734 -0.2850
 8370TIP3    H146525   3.215   1.928   2.869 -0.5979 -0.8452  0.3140
 8370TIP3    H246526   3.242   1.871   3.007  1.5407  1.4296  0.8714
 8371TIP3   OH246527   3.604   5.951  15.285 -0.6842 -0.0785  0.3506
 8371TIP3    H146528   3.695   5.979  15.289 -0.6545  0.0460 -1.0056
 8371TIP3    H246529   3.591   5.923  15.194 -2.2358  0.7431  0.2981
 8372TIP3   OH246530   4.160   1.337   1.792 -0.3473  0.4819 -0.3334
 8372TIP3    H146531   4.108   1.410   1.826  1.2781  1.9397 -0.9458
 8372TIP3    H246532   4.229   1.324   1.857 -0.8225 -0.7719 -0.0480
 8373TIP3   OH246533   4.639   4.801   0.356  0.2530 -0.0805  0.4044
 8373TIP3    H146534   4.617   4.865   0.424  0.7917  0.4848  0.0483
 8373TIP3    H246535   4.686   4.731   0.403 -3.1198 -1.8192  1.3648
 8374TIP3   OH246536   0.949   5.351   6.213 -0.1300  0.7446 -0.8294
 8374TIP3    H146537   1.027   5.388   6.254  0.1847  0.7273 -1.4058
 8374TIP3    H246538   0.897   5.427   6.189  0.1495  0.7902 -1.2973
 8375TIP3   OH246539   0.114   0.788  12.337 -0.0321  0.6289  0.1200
 8375TIP3    H146540   0.072   0.800  12.422 -0.6245 -1.2311  0.1049
 8375TIP3    H246541   0.185   0.727  12.354  0.5691  1.1402 -0.5182
 8376TIP3   OH246542   0.476   3.671  12.615 -0.2434 -0.1975 -0.4437
 8376TIP3    H146543   0.555   3.637  12.573 -0.5578 -0.5857 -0.7293
 8376TIP3    H246544   0.444   3.597  12.669 -0.9309 -0.3599 -1.0633
 8377TIP3   OH246545   1.362   1.102  12.588 -0.3450  0.2789 -0.0538
 8377TIP3    H146546   1.292   1.074  12.646  0.1828  0.4366  0.6586
 8377TIP3    H246547   1.320   1.108  12.502 -1.0822 -0.1273  0.2695
 8378TIP3   OH246548   4.146   0.732  13.828  0.3289  0.2239 -0.2093
 8378TIP3    H146549   4.054   0.739  13.801  0.3676 -0.5531 -0.5496
 8378TIP3    H246550   4.172   0.644  13.801  1.5896  0.9441 -1.3851
 8379TIP3   OH246551   2.629   5.141   3.854  0.2131 -0.3968  0.3131
 8379TIP3    H146552   2.716   5.164   3.823 -0.1929 -1.0693 -1.3712
 8379TIP3    H246553   2.633   5.047   3.871 -0.3683 -0.5776 -0.4797
 8380TIP3   OH246554   0.104   5.840   4.036 -0.4753  0.0523 -0.3433
 8380TIP3    H146555   0.189   5.798   4.045 -0.4169  0.3151  0.4174
 8380TIP3    H246556   0.064   5.799   3.960  0.7826  0.6977 -1.3619
 8381TIP3   OH246557   2.429   2.714  13.808 -0.5760  0.1499 -0.1787
 8381TIP3    H146558   2.455   2.750  13.893  0.9713 -1.4020  0.0241
 8381TIP3    H246559   2.413   2.791  13.753  1.9901  1.1736  0.4374
 8382TIP3   OH246560   6.568   6.551  16.792  1.0040  0.3913 -0.5866
 8382TIP3    H146561   6.605   6.516  16.873  0.9727 -0.4874 -0.9520
 8382TIP3    H246562   6.527   6.634  16.819  0.2682 -0.2916  0.4536
 8383TIP3   OH246563   5.155   6.654  15.075  0.0001  0.0054 -0.9314
 8383TIP3    H146564   5.126   6.745  15.080 -0.3275 -0.1270 -0.2189
 8383TIP3    H246565   5.104   6.616  15.003 -1.8442 -0.2970  0.4830
 8384TIP3   OH246566   6.454   5.258  10.886  0.3312  0.3805 -0.8701
 8384TIP3    H146567   6.452   5.350  10.912  1.3283  0.3161 -0.5248
 8384TIP3    H246568   6.400   5.254  10.808 -1.8923  0.7792  0.5872
 8385TIP3   OH246569   6.342   6.118  11.962  0.2171 -0.2301 -0.4395
 8385TIP3    H146570   6.289   6.142  11.885  0.8410  2.5501 -0.0781
 8385TIP3    H246571   6.278   6.095  12.029 -0.5501  1.8915 -0.3881
 8386TIP3   OH246572   3.367   4.508  14.848  0.0727  0.5519 -0.5893
 8386TIP3    H146573   3.415   4.425  14.844  1.1956  1.0905  0.9372
 8386TIP3    H246574   3.275   4.483  14.855  0.4088 -0.5703 -0.1180
 8387TIP3   OH246575   2.461   6.020  11.518  0.0385 -0.8571  0.4912
 8387TIP3    H146576   2.473   5.942  11.572  1.3345 -0.6321  0.5555
 8387TIP3    H246577   2.542   6.071  11.532  0.4405 -0.8500 -1.7586
 8388TIP3   OH246578   4.447   6.140  11.470 -0.3897 -0.4609 -0.4795
 8388TIP3    H146579   4.471   6.159  11.561 -0.3509 -1.2155 -0.3317
 8388TIP3    H246580   4.512   6.187  11.418 -1.5583  1.5755 -0.1564
 8389TIP3   OH246581   2.196   2.837  15.926  0.1085  0.3852  0.4744
 8389TIP3    H146582   2.156   2.834  15.839  0.1400 -2.1470  0.5101
 8389TIP3    H246583   2.125   2.812  15.985  0.7269 -0.3520  0.9141
 8390TIP3   OH246584   2.000   4.334   5.109  0.0752 -0.7511 -0.0323
 8390TIP3    H146585   1.954   4.342   5.026 -1.0500 -1.7538  0.4779
 8390TIP3    H246586   2.075   4.394   5.101 -1.1197  0.6506 -0.9994
 8391TIP3   OH246587   3.458   2.612   0.021  0.1916  0.5042  0.2279
 8391TIP3    H146588   3.428   2.695   0.059 -2.2938  0.4025 -1.4006
 8391TIP3    H246589   3.420   2.611  -0.067  1.6951 -1.5469 -0.4367
 8392TIP3   OH246590   2.841   2.082   1.117  0.2793 -0.0821 -0.2060
 8392TIP3    H146591   2.850   2.129   1.200 -1.0311  1.2407 -0.7935
 8392TIP3    H246592   2.769   2.021   1.131 -0.9111  1.1603 -0.8082
 8393TIP3   OH246593   1.991   6.334   1.644  0.0814 -0.3049  0.1559
 8393TIP3    H146594   2.074   6.361   1.685  0.1890  0.6676 -0.6724
 8393TIP3    H246595   1.984   6.241   1.664  1.8918 -0.6422 -0.6260
 8394TIP3   OH246596   6.433   3.415  12.390  0.0894  0.0063  0.3039
 8394TIP3    H146597   6.428   3.319  12.388 -0.1645  0.0043  1.1592
 8394TIP3    H246598   6.358   3.442  12.442  0.5063  0.6436  0.5825
 8395TIP3   OH246599   4.665   5.460  15.963 -0.6087  0.4530  0.1849
 8395TIP3    H146600   4.617   5.392  16.010 -0.3872 -0.0778 -0.3430
 8395TIP3    H246601   4.689   5.524  16.030 -0.4015 -0.2321  0.7730
 8396TIP3   OH246602   1.752   3.588   1.352  0.3477 -0.6174 -0.2906
 8396TIP3    H146603   1.840   3.624   1.364  0.3544 -0.4360 -0.8838
 8396TIP3    H246604   1.739   3.587   1.258 -1.1552  1.4461 -0.1445
 8397TIP3   OH246605   0.993   4.778  13.235 -0.5823  0.0927  0.0383
 8397TIP3    H146606   0.964   4.691  13.263  1.0436 -0.2325  0.7499
 8397TIP3    H246607   0.987   4.832  13.314 -0.4318  0.3367 -0.1157
 8398TIP3   OH246608   6.321   2.502  11.414 -0.0376  0.2239  0.6158
 8398TIP3    H146609   6.379   2.450  11.358  1.6860  2.2698  0.4029
 8398TIP3    H246610   6.240   2.510  11.364 -0.7438 -3.0935  1.1159
 8399TIP3   OH246611   5.762   4.445   2.445 -0.4454 -0.0643  0.0617
 8399TIP3    H146612   5.819   4.432   2.521  0.6472  0.2550 -0.6935
 8399TIP3    H246613   5.807   4.399   2.374 -1.5218 -0.4528 -0.3697
 8400TIP3   OH246614   1.716   2.343   2.479 -0.1062 -0.2648  0.0111
 8400TIP3    H146615   1.809   2.366   2.484 -0.2251  0.1632  0.3088
 8400TIP3    H246616   1.689   2.331   2.570 -0.2620 -0.7179 -0.0944
 8401TIP3   OH246617   1.911   3.270   5.947 -0.1316  0.0341 -0.1446
 8401TIP3    H146618   1.848   3.322   5.997 -0.4792  0.2933 -0.8516
 8401TIP3    H246619   1.896   3.180   5.977 -0.8549  0.0913 -0.3219
 8402TIP3   OH246620   4.644   5.918  13.346 -0.0223  0.4474  0.4425
 8402TIP3    H146621   4.618   5.899  13.256  0.1505  1.4159  0.1849
 8402TIP3    H246622   4.698   5.997  13.340 -0.6510  0.9640  1.4857
 8403TIP3   OH246623   4.415   6.709  15.046 -0.0559  0.5593  0.2649
 8403TIP3    H146624   4.461   6.765  14.984  0.9655 -0.1242  0.4046
 8403TIP3    H246625   4.480   6.688  15.113 -0.6739 -0.1095  0.6664
 8404TIP3   OH246626   4.543   0.368   4.722 -0.1997 -0.5816  0.7546
 8404TIP3    H146627   4.505   0.361   4.634 -0.9082  0.2517  0.9848
 8404TIP3    H246628   4.636   0.348   4.710 -0.0779  0.6199 -0.3651
 8405TIP3   OH246629   3.240   3.907   2.368  0.0489  0.4952  0.5236
 8405TIP3    H146630   3.186   3.833   2.342  0.0821  0.7369 -0.2585
 8405TIP3    H246631   3.301   3.918   2.295 -0.6809  1.9865  0.1193
 8406TIP3   OH246632   6.012   0.284   4.611 -0.7535  0.1138 -0.1488
 8406TIP3    H146633   6.038   0.376   4.613  0.3347 -0.2270  1.9361
 8406TIP3    H246634   5.922   0.286   4.578 -0.8333  1.9383  0.1026
 8407TIP3   OH246635   5.662   5.210   5.411  0.3221  0.3185  0.2782
 8407TIP3    H146636   5.725   5.227   5.481 -0.4598  0.0272  1.0595
 8407TIP3    H246637   5.705   5.243   5.332  0.6920  1.8522  1.0847
 8408TIP3   OH246638   1.599   3.816   1.792 -0.5987  0.1112  0.2602
 8408TIP3    H146639   1.540   3.819   1.868 -0.4886  0.5257  0.3259
 8408TIP3    H246640   1.551   3.861   1.722 -0.2761  0.6258  0.3703
 8409TIP3   OH246641   5.242   5.897   2.926  0.6056  0.3582 -0.0200
 8409TIP3    H146642   5.255   5.843   3.004  3.6124 -0.0662 -0.7251
 8409TIP3    H246643   5.194   5.973   2.956 -0.5498 -1.0384  1.7157
 8410TIP3   OH246644   3.320   4.019   5.383  0.0187  0.5292 -0.2931
 8410TIP3    H146645   3.268   3.988   5.310 -0.1267 -1.1834  0.5049
 8410TIP3    H246646   3.409   3.989   5.363 -0.1389 -0.5447  0.5182
 8411TIP3   OH246647   0.765   1.592   3.355 -0.1068  0.3492 -0.9408
 8411TIP3    H146648   0.768   1.687   3.349 -3.0206  0.6075  0.8438
 8411TIP3    H246649   0.691   1.574   3.413  2.1318 -2.9400  1.0434
 8412TIP3   OH246650   3.278   0.204   1.749 -0.4006 -0.5835 -0.4152
 8412TIP3    H146651   3.292   0.285   1.799  0.5233  0.8754 -2.9282
 8412TIP3    H246652   3.206   0.225   1.689 -1.9411 -2.5180  0.7047
 8413TIP3   OH246653   3.163   2.176   3.150  0.4234  0.1799  0.1712
 8413TIP3    H146654   3.107   2.099   3.146  2.1519 -1.0833 -0.2815
 8413TIP3    H246655   3.129   2.234   3.082 -0.0678 -0.7445 -0.3766
 8414TIP3   OH246656   1.959   1.043  12.344  0.1522 -0.4565  0.0456
 8414TIP3    H146657   1.958   0.950  12.318 -1.9269  0.2587 -2.7251
 8414TIP3    H246658   1.900   1.046  12.420  0.1791 -1.4020  0.1208
 8415TIP3   OH246659   2.470   6.675  13.109 -0.1381  0.5507 -0.0891
 8415TIP3    H146660   2.452   6.730  13.032  0.5794  1.0003  0.0627
 8415TIP3    H246661   2.457   6.586  13.077  1.4814  0.6606 -1.1065
 8416TIP3   OH246662   0.807   5.043   1.608 -0.2452 -0.7305 -0.1803
 8416TIP3    H146663   0.825   5.032   1.702 -0.1332  0.4225 -0.0596
 8416TIP3    H246664   0.885   5.086   1.574 -0.3136 -1.0973 -0.7969
 8417TIP3   OH246665   5.345   3.549   3.992  0.0923 -0.2791 -0.0781
 8417TIP3    H146666   5.363   3.455   4.002  1.0647 -0.3163 -2.0739
 8417TIP3    H246667   5.429   3.587   3.967 -0.8157  0.7694 -1.5921
 8418TIP3   OH246668   5.945   3.148  12.096  0.3167  0.0005  0.3513
 8418TIP3    H146669   5.962   3.235  12.061 -0.6250  0.2134  0.4203
 8418TIP3    H246670   5.888   3.106  12.032 -1.9932  0.6402  1.9276
 8419TIP3   OH246671   5.080   1.785   0.323 -0.0827  0.2534 -0.1201
 8419TIP3    H146672   5.127   1.845   0.381  0.9500  0.0363 -0.7153
 8419TIP3    H246673   5.061   1.709   0.378 -1.3005  1.0785  0.6060
 8420TIP3   OH246674   2.652   6.432  14.718  0.0099  0.4951  0.0366
 8420TIP3    H146675   2.633   6.438  14.625  0.2245 -2.0205 -0.1939
 8420TIP3    H246676   2.622   6.345  14.744 -2.6472  2.1683  2.9556
 8421TIP3   OH246677   3.226   4.593  15.426 -0.0084 -0.0474  0.5987
 8421TIP3    H146678   3.186   4.610  15.340 -0.5455 -1.0752  0.6374
 8421TIP3    H246679   3.311   4.636  15.421  0.3268 -0.8244 -0.7824
 8422TIP3   OH246680   5.808   5.529  14.941  0.5805 -0.2941 -0.0016
 8422TIP3    H146681   5.858   5.610  14.940  0.3806 -0.1709 -0.1290
 8422TIP3    H246682   5.731   5.549  14.995  0.0898 -0.1286 -0.7480
 8423TIP3   OH246683   5.487   4.000   6.174  0.5657 -0.1335 -0.3240
 8423TIP3    H146684   5.483   4.068   6.242 -2.6649 -0.4510 -0.1163
 8423TIP3    H246685   5.397   3.968   6.167  1.2368 -1.5232 -3.3472
 8424TIP3   OH246686   1.540   3.365   3.311 -0.1253  0.5351  0.4224
 8424TIP3    H146687   1.607   3.356   3.243 -0.9037  1.6971 -0.5201
 8424TIP3    H246688   1.463   3.399   3.265 -0.8168  0.8828  1.7951
 8425TIP3   OH246689   5.009   3.652   5.095  0.8711 -1.0795 -0.0211
 8425TIP3    H146690   5.060   3.640   5.015 -0.7123 -3.0632 -0.7687
 8425TIP3    H246691   5.074   3.648   5.165  2.1204 -0.4924 -1.1113
 8426TIP3   OH246692   5.356   5.937   4.438 -0.0003  0.0109  0.2669
 8426TIP3    H146693   5.271   5.895   4.423  0.0689  0.3940 -1.2724
 8426TIP3    H246694   5.421   5.873   4.409  0.1520  0.5707 -0.6504
 8427TIP3   OH246695   3.175   1.374   5.213 -0.7313 -0.0296 -0.0018
 8427TIP3    H146696   3.165   1.412   5.126  2.9157 -0.3719 -0.6497
 8427TIP3    H246697   3.208   1.285   5.197  0.1425 -0.0373  1.7231
 8428TIP3   OH246698   0.804   4.446  14.424 -0.3560  0.2805  0.5212
 8428TIP3    H146699   0.720   4.406  14.447  0.5111 -1.1549  1.2356
 8428TIP3    H246700   0.821   4.416  14.335 -1.3004  1.7988 -0.2043
 8429TIP3   OH246701   4.810   5.010  16.980  0.0235  0.8023  0.0919
 8429TIP3    H146702   4.741   5.011  17.046 -0.9114  1.3066 -0.8628
 8429TIP3    H246703   4.872   5.077  17.009  1.0893 -0.9585  1.9429
 8430TIP3   OH246704   5.461   3.539   2.756  0.4897 -0.0590  0.2106
 8430TIP3    H146705   5.521   3.524   2.830 -0.2187  0.0019  0.8089
 8430TIP3    H246706   5.442   3.633   2.760  3.0873  0.6320 -2.1083
 8431TIP3   OH246707   3.228   3.255   5.554 -0.3454 -0.1704 -0.5021
 8431TIP3    H146708   3.174   3.272   5.631  0.2433  1.2906 -0.3990
 8431TIP3    H246709   3.288   3.185   5.581  1.6643  2.1613  1.2859
 8432TIP3   OH246710   6.294   0.388   5.118  0.2223  0.1466  0.2462
 8432TIP3    H146711   6.328   0.477   5.117 -0.4633  0.4127  0.6882
 8432TIP3    H246712   6.268   0.372   5.027 -2.5276  1.5126  0.7596
 8433TIP3   OH246713   3.177   4.534  16.670 -0.1873 -0.0932  0.5191
 8433TIP3    H146714   3.240   4.468  16.641 -0.5629  0.2242 -1.0964
 8433TIP3    H246715   3.215   4.617  16.642  0.1115  0.3683  2.2280
 8434TIP3   OH246716   4.248   0.806  13.509 -0.4778 -0.2633 -0.4167
 8434TIP3    H146717   4.306   0.759  13.569 -0.5400 -0.6832 -0.6820
 8434TIP3    H246718   4.280   0.783  13.422 -0.3960  0.3324 -0.5477
 8435TIP3   OH246719   3.745   6.424   2.376 -0.1291 -0.2201 -0.2614
 8435TIP3    H146720   3.771   6.422   2.468  0.1919  1.4228 -0.2993
 8435TIP3    H246721   3.655   6.455   2.376 -0.0180  0.1151 -0.5125
 8436TIP3   OH246722   3.195   2.092   2.520  0.3501  0.1964  0.3341
 8436TIP3    H146723   3.201   2.161   2.586  1.3302  0.4176  0.0226
 8436TIP3    H246724   3.232   2.131   2.441 -0.8902 -0.0431 -0.3742
 8437TIP3   OH246725   3.854   0.421  10.943  0.1640  0.0817 -0.1679
 8437TIP3    H146726   3.864   0.345  11.000 -0.3266  0.4874  0.4727
 8437TIP3    H246727   3.886   0.392  10.858  1.5666 -0.3296  0.4695
 8438TIP3   OH246728   0.597   5.527  10.971  0.5949 -0.8027 -0.0203
 8438TIP3    H146729   0.533   5.479  10.919 -1.6468  0.8759  1.1021
 8438TIP3    H246730   0.566   5.518  11.061  2.1001 -0.1875  0.5711
 8439TIP3   OH246731   5.844   0.022  13.919 -0.4090  0.3952  0.1597
 8439TIP3    H146732   5.781  -0.048  13.938  1.0182 -0.6817  1.0368
 8439TIP3    H246733   5.806   0.100  13.959 -0.4904 -0.5493  2.0067
 8440TIP3   OH246734   1.260   3.707  13.150  0.2940 -0.2043  0.0606
 8440TIP3    H146735   1.256   3.717  13.055 -1.5179 -0.3957  0.0986
 8440TIP3    H246736   1.279   3.795  13.182 -1.4388  0.3559 -0.3722
 8441TIP3   OH246737   0.134   2.516   4.973  0.1406 -0.2051 -0.1430
 8441TIP3    H146738   0.065   2.553   4.917  0.7642 -0.0669 -0.8215
 8441TIP3    H246739   0.098   2.432   5.002 -0.5952  0.1702  0.0575
 8442TIP3   OH246740   1.803   2.289  13.659  0.2048 -0.1065  0.2110
 8442TIP3    H146741   1.749   2.342  13.717 -0.9912 -0.5091 -0.5271
 8442TIP3    H246742   1.861   2.240  13.718 -2.1453 -1.8047  1.2070
 8443TIP3   OH246743   5.991   2.739   5.477 -0.5495  0.4450  0.9220
 8443TIP3    H146744   5.986   2.670   5.545 -0.1442 -0.4710  0.0358
 8443TIP3    H246745   5.934   2.707   5.407  2.0955 -0.5605 -0.8618
 8444TIP3   OH246746   6.270   4.093   2.723  0.5595  0.0834 -0.0250
 8444TIP3    H146747   6.335   4.027   2.745 -0.0329  0.0151  1.6003
 8444TIP3    H246748   6.255   4.081   2.629  3.2401  0.4490 -0.5287
 8445TIP3   OH246749   1.327   1.751   1.439 -0.6135 -0.1552 -0.1282
 8445TIP3    H146750   1.233   1.742   1.424 -0.5781  0.2132 -0.5989
 8445TIP3    H246751   1.354   1.821   1.379 -0.2175  0.4343  0.7217
 8446TIP3   OH246752   0.839   6.362   0.816 -0.3286  0.1978  0.2448
 8446TIP3    H146753   0.838   6.449   0.776  1.2767  0.2169  0.2066
 8446TIP3    H246754   0.892   6.309   0.757 -0.9332 -0.7061  0.4987
 8447TIP3   OH246755   6.199   1.312  11.997  0.5868  0.3687 -0.5576
 8447TIP3    H146756   6.176   1.282  11.909  1.0245  0.4265 -0.6907
 8447TIP3    H246757   6.123   1.289  12.050  1.5731 -2.4393 -0.3142
 8448TIP3   OH246758   1.780   4.738   1.933 -0.8465 -0.3901  1.7094
 8448TIP3    H146759   1.730   4.667   1.892  0.0207 -0.1535  0.1920
 8448TIP3    H246760   1.871   4.709   1.926 -0.3352  1.6375 -0.4781
 8449TIP3   OH246761   3.954   4.725  16.390 -0.0927  0.0536  0.4118
 8449TIP3    H146762   3.896   4.769  16.452  0.1544  0.7119  0.1810
 8449TIP3    H246763   4.005   4.664  16.444 -0.9065 -0.4377  0.6325
 8450TIP3   OH246764   5.320   2.286   2.884  0.2776 -0.4581 -0.3108
 8450TIP3    H146765   5.326   2.315   2.975 -0.8175  0.7422 -0.6218
 8450TIP3    H246766   5.234   2.244   2.877  0.2337 -0.2806 -0.8727
 8451TIP3   OH246767   0.005   0.066  13.461  0.5464 -0.3588 -0.2256
 8451TIP3    H146768  -0.011   0.152  13.500  1.2903 -0.5748  0.5739
 8451TIP3    H246769   0.082   0.079  13.406 -1.1495  0.2182 -2.5616
 8452TIP3   OH246770   5.006   4.563  15.942 -0.8106 -0.0034 -0.4602
 8452TIP3    H146771   5.054   4.505  15.883  0.8878  0.3515  0.5327
 8452TIP3    H246772   4.946   4.611  15.885 -1.3061 -1.7831 -1.4740
 8453TIP3   OH246773   2.099   4.460   2.717 -0.3372 -0.4618  0.2448
 8453TIP3    H146774   2.051   4.494   2.792  0.2571 -1.9185  1.3224
 8453TIP3    H246775   2.158   4.394   2.754 -0.7573 -1.9511 -1.6239
 8454TIP3   OH246776   5.013   2.788   0.048  0.0236 -0.1111  0.2004
 8454TIP3    H146777   4.976   2.742  -0.028  0.7060  2.5754 -1.8613
 8454TIP3    H246778   5.107   2.770   0.044  0.1361  0.4982  0.0663
 8455TIP3   OH246779   6.682   5.180  13.142 -0.4953 -0.0830 -0.4386
 8455TIP3    H146780   6.645   5.123  13.075  1.5955  0.4582 -2.1183
 8455TIP3    H246781   6.775   5.157  13.144  0.0959  2.1545 -0.0728
 8456TIP3   OH246782   0.597   4.066   5.591  0.1790  0.3135 -0.5259
 8456TIP3    H146783   0.566   4.141   5.540 -0.8283 -0.4471 -1.0568
 8456TIP3    H246784   0.599   4.097   5.682 -3.7152 -0.0535 -0.2417
 8457TIP3   OH246785   5.450   2.153  14.454 -0.2147  0.4668  0.0895
 8457TIP3    H146786   5.371   2.119  14.411 -0.1315  0.7164 -0.2673
 8457TIP3    H246787   5.436   2.247  14.459 -0.1630  0.4542  0.4957
 8458TIP3   OH246788   6.591   1.399   5.932  0.2599  0.4458 -0.3859
 8458TIP3    H146789   6.637   1.482   5.947  0.3961 -0.0935  2.5791
 8458TIP3    H246790   6.499   1.422   5.938  0.2558  0.7096 -1.4772
 8459TIP3   OH246791   6.508   2.880  12.790  0.3959  0.7001  0.3058
 8459TIP3    H146792   6.507   2.950  12.854 -0.1682  1.2679 -0.3155
 8459TIP3    H246793   6.588   2.830  12.809 -0.0172  0.5767  1.7436
 8460TIP3   OH246794   6.643   6.055   2.177  0.8241 -0.1359 -0.2806
 8460TIP3    H146795   6.553   6.085   2.186  0.8473 -0.0111 -0.4769
 8460TIP3    H246796   6.694   6.135   2.164  0.5876 -0.4184 -3.2843
 8461TIP3   OH246797   3.909   2.840   5.371 -0.1993  0.0387 -0.2141
 8461TIP3    H146798   3.946   2.864   5.456  1.0058 -0.1836 -0.6774
 8461TIP3    H246799   3.814   2.838   5.387  0.1932 -5.0661  2.4294
 8462TIP3   OH246800   3.703   0.642   4.102 -0.8760  0.3535  0.6930
 8462TIP3    H146801   3.624   0.692   4.081  0.2783  1.6687 -0.7015
 8462TIP3    H246802   3.716   0.654   4.196 -0.4553  2.9813  0.3297
 8463TIP3   OH246803   1.446   4.865   4.917 -0.0585 -0.3328  0.2364
 8463TIP3    H146804   1.379   4.908   4.971 -1.3566 -1.5549 -0.3545
 8463TIP3    H246805   1.526   4.914   4.935 -1.5737  2.6388 -0.8157
 8464TIP3   OH246806   0.983   6.439   2.244  0.0637  0.3875  0.0048
 8464TIP3    H146807   1.059   6.491   2.217  0.4779 -0.2435 -0.0460
 8464TIP3    H246808   0.908   6.487   2.210  0.5071  0.3121 -1.1022
 8465TIP3   OH246809   3.393   2.050  12.686 -0.3292  0.5324 -0.0261
 8465TIP3    H146810   3.329   2.090  12.627  0.0896  0.3412 -0.6126
 8465TIP3    H246811   3.358   1.962  12.703 -1.8686  1.5211  2.2091
 8466TIP3   OH246812   3.567   0.025   0.763 -0.5055  0.4307  0.4405
 8466TIP3    H146813   3.528  -0.013   0.684 -1.0462  1.3113  0.2839
 8466TIP3    H246814   3.620   0.098   0.732 -0.3771  0.5138  0.8548
 8467TIP3   OH246815   3.866   4.241  16.796 -0.4075 -0.2509  0.8374
 8467TIP3    H146816   3.842   4.149  16.787  1.2300 -0.5737 -0.3384
 8467TIP3    H246817   3.790   4.281  16.839 -2.1292 -1.6726 -0.7983
 8468TIP3   OH246818   2.296   4.191   2.438  0.1579  0.3443 -0.7883
 8468TIP3    H146819   2.247   4.271   2.452  0.7381  0.6204 -0.3114
 8468TIP3    H246820   2.233   4.130   2.399 -0.7893  0.3959  0.6535
 8469TIP3   OH246821   6.202   1.680   4.088  0.2592  0.0803 -0.0909
 8469TIP3    H146822   6.222   1.593   4.121  2.3728  0.5750 -0.0279
 8469TIP3    H246823   6.114   1.698   4.122  0.6011 -1.2190  1.5618
 8470TIP3   OH246824   0.174   0.715   1.094  0.1954 -0.1721  0.7511
 8470TIP3    H146825   0.090   0.749   1.065  0.5665 -0.0238 -0.1702
 8470TIP3    H246826   0.237   0.782   1.069  1.0651 -1.8858 -1.9016
 8471TIP3   OH246827   4.525   5.683   5.937 -0.2687 -0.0578  0.2145
 8471TIP3    H146828   4.432   5.706   5.937 -0.7594 -1.9463 -0.2676
 8471TIP3    H246829   4.556   5.708   6.024 -1.1319  0.9358  0.2428
 8472TIP3   OH246830   4.768   5.519  16.721  0.4826 -0.5179  0.1726
 8472TIP3    H146831   4.728   5.433  16.707  2.0969 -0.9297 -2.1637
 8472TIP3    H246832   4.744   5.570  16.644  0.1886  0.8969  1.1736
 8473TIP3   OH246833   4.913   1.961   2.280 -0.5109 -0.1254 -0.2734
 8473TIP3    H146834   4.889   1.907   2.205 -0.3494 -0.0687 -0.3654
 8473TIP3    H246835   4.941   1.898   2.347 -0.9217 -0.1940 -0.1605
 8474TIP3   OH246836   6.693   6.227  15.406  0.4879  0.4087  0.0897
 8474TIP3    H146837   6.667   6.148  15.358 -0.1630  0.6105  0.1076
 8474TIP3    H246838   6.787   6.234  15.390 -0.1683  2.0891 -3.5936
 8475TIP3   OH246839   5.715   2.587  13.846  0.2683  0.3847  0.2526
 8475TIP3    H146840   5.754   2.616  13.928 -0.5199  1.8694  0.1265
 8475TIP3    H246841   5.624   2.568  13.869  0.6052 -1.3473  0.1847
 8476TIP3   OH246842   5.450   1.327   3.401 -0.1251 -0.2021  0.2629
 8476TIP3    H146843   5.463   1.357   3.491  1.7860  2.6010 -0.8859
 8476TIP3    H246844   5.377   1.380   3.368 -1.1569 -1.5819  0.3069
 8477TIP3   OH246845   3.101   2.530   4.147  0.2978  0.0511  0.3827
 8477TIP3    H146846   3.104   2.610   4.200 -0.7978  1.3850 -1.4962
 8477TIP3    H246847   3.012   2.496   4.159 -0.4538  1.1790 -1.6993
 8478TIP3   OH246848   2.035   6.095  11.998 -0.1335 -0.1585  0.5439
 8478TIP3    H146849   2.118   6.120  12.038 -0.3660 -0.7929  1.4343
 8478TIP3    H246850   1.969   6.132  12.056 -0.4732 -1.1307  0.7820
 8479TIP3   OH246851   1.787   6.712   1.272  0.0609 -0.3534 -0.1522
 8479TIP3    H146852   1.873   6.701   1.231 -0.2880 -0.2893 -0.9179
 8479TIP3    H246853   1.732   6.747   1.202 -1.0098 -1.9831 -0.1580
 8480TIP3   OH246854   4.407   6.093   0.749  0.5786 -0.2251  0.5669
 8480TIP3    H146855   4.479   6.155   0.736  0.8161 -0.6602 -0.2913
 8480TIP3    H246856   4.358   6.097   0.667  0.0763 -0.5138  0.8532
 8481TIP3   OH246857   5.938   0.066  10.371  0.2647 -0.2864 -0.0932
 8481TIP3    H146858   5.898   0.112  10.445 -0.7890 -0.7644 -0.3598
 8481TIP3    H246859   5.878  -0.005  10.352  0.6495 -0.3025 -1.2694
 8482TIP3   OH246860   3.042   2.406   3.749 -0.4037 -0.5382  0.0335
 8482TIP3    H146861   3.126   2.405   3.705 -0.7122 -1.2961 -0.5570
 8482TIP3    H246862   3.021   2.499   3.760 -0.7309 -0.3329 -2.1851
 8483TIP3   OH246863   4.141   1.128   5.461  0.0383 -0.0481  0.6290
 8483TIP3    H146864   4.057   1.172   5.454 -0.4950 -1.4483 -2.5674
 8483TIP3    H246865   4.205   1.190   5.426 -0.4180 -0.8689 -1.7839
 8484TIP3   OH246866   3.769   4.025   5.566  0.1516  0.5290 -0.0698
 8484TIP3    H146867   3.794   4.086   5.496 -0.5944  0.2321 -0.6015
 8484TIP3    H246868   3.839   4.033   5.631 -0.0529  2.1297 -0.0252
 8485TIP3   OH246869   1.581   6.247  11.167  0.2697  0.2476  0.6568
 8485TIP3    H146870   1.657   6.303  11.151 -0.4306  0.8225 -0.6625
 8485TIP3    H246871   1.538   6.287  11.243  0.3251  0.9222  0.3381
 8486TIP3   OH246872   1.652   5.112   2.706  0.4148 -0.8439  0.3156
 8486TIP3    H146873   1.708   5.154   2.641  1.6436 -3.5036 -0.4128
 8486TIP3    H246874   1.566   5.152   2.693  1.2763  0.5949 -1.1072
 8487TIP3   OH246875   0.072   0.821   2.431 -0.0295  0.1182 -0.2773
 8487TIP3    H146876   0.156   0.834   2.386  0.2896  0.3828  0.3924
 8487TIP3    H246877   0.073   0.884   2.503  0.8007 -2.2994  1.9460
 8488TIP3   OH246878   1.975   6.120  11.749 -0.0252  0.2085  0.4927
 8488TIP3    H146879   2.012   6.091  11.832  0.4832 -2.2135 -0.5339
 8488TIP3    H246880   1.908   6.185  11.773  0.3188 -0.2456  2.7509
 8489TIP3   OH246881   2.599   0.184   1.154 -0.7087  0.0320  0.1270
 8489TIP3    H146882   2.543   0.106   1.153 -0.3833 -0.2207  1.3294
 8489TIP3    H246883   2.607   0.207   1.246 -0.1691  1.0429 -0.1637
 8490TIP3   OH246884   6.051   5.638  14.099  0.6315 -0.1927  0.2710
 8490TIP3    H146885   5.971   5.586  14.103 -0.2286  1.0402 -0.5562
 8490TIP3    H246886   6.042   5.702  14.169  0.8342  0.0600  0.0666
 8491TIP3   OH246887   5.169   0.819   4.007  0.0054  0.8110 -0.1781
 8491TIP3    H146888   5.257   0.838   3.973 -0.0545 -0.3316 -0.9826
 8491TIP3    H246889   5.137   0.746   3.953 -0.1251 -1.0054  2.2705
 8492TIP3   OH246890   1.309   5.108   3.935 -0.3403  0.6469 -0.2698
 8492TIP3    H146891   1.259   5.190   3.940  0.1219  0.8094  2.1084
 8492TIP3    H246892   1.244   5.041   3.913 -0.6734  1.6548 -2.5450
 8493TIP3   OH246893   4.764   1.478   3.489 -0.2018  0.3396  0.1540
 8493TIP3    H146894   4.821   1.555   3.479  2.2565 -1.3798  0.4309
 8493TIP3    H246895   4.712   1.498   3.566  0.8709  1.4711  0.6186
 8494TIP3   OH246896   5.578   3.050   3.620 -0.3987 -0.2054 -0.0839
 8494TIP3    H146897   5.493   3.073   3.583  0.0455  1.0063 -0.3686
 8494TIP3    H246898   5.596   3.119   3.683  0.3206 -0.5213  0.0587
 8495TIP3   OH246899   3.070   5.213   1.407  0.5737 -0.1689  0.2151
 8495TIP3    H146900   3.034   5.161   1.335  0.9627 -0.4954  0.2549
 8495TIP3    H246901   3.022   5.182   1.484 -3.4624  3.6649 -0.5688
 8496TIP3   OH246902   0.953   4.480  16.755  0.3339  0.2901 -0.3070
 8496TIP3    H146903   0.916   4.406  16.708  0.8779 -0.7845  0.9528
 8496TIP3    H246904   1.045   4.483  16.728  0.4437  0.1724  0.0467
 8497TIP3   OH246905   2.118   3.260  15.444 -0.0333  0.0686  0.3924
 8497TIP3    H146906   2.100   3.313  15.521 -0.7948 -0.6511  0.7230
 8497TIP3    H246907   2.108   3.319  15.370 -2.0532  0.0970  0.6784
 8498TIP3   OH246908   0.798   5.798  16.100 -0.0299  0.1007 -0.5410
 8498TIP3    H146909   0.846   5.740  16.159  1.5228  0.9342 -0.9474
 8498TIP3    H246910   0.802   5.755  16.015  2.1531  1.3446 -1.0944
 8499TIP3   OH246911   3.645   4.869   2.693 -0.3607 -0.1623 -0.0767
 8499TIP3    H146912   3.670   4.781   2.722  1.6477  0.1921 -0.6238
 8499TIP3    H246913   3.580   4.855   2.624 -1.4613 -1.1426  1.1410
 8500TIP3   OH246914   5.209   6.014  16.304  0.1735 -0.5681  0.0382
 8500TIP3    H146915   5.212   5.922  16.279 -0.6778 -0.3438 -0.9399
 8500TIP3    H246916   5.150   6.017  16.379  1.9521 -1.1102  1.4835
 8501TIP3   OH246917   2.373   3.987  14.842  0.1488  0.0402  0.1914
 8501TIP3    H146918   2.319   4.007  14.765 -0.2468 -0.0846  0.4410
 8501TIP3    H246919   2.335   3.907  14.878 -1.3017  1.5241  2.0437
 8502TIP3   OH246920   4.844   5.197   6.298 -0.0193 -0.6920 -0.3921
 8502TIP3    H146921   4.803   5.239   6.374  2.2620  1.3929 -0.2492
 8502TIP3    H246922   4.836   5.261   6.227  0.8387 -1.2345 -0.9960
 8503TIP3   OH246923   2.786   1.387   6.849 -0.5534 -0.4430  0.4851
 8503TIP3    H146924   2.877   1.408   6.829 -1.1503  0.1707 -1.7574
 8503TIP3    H246925   2.773   1.299   6.814 -1.0039 -0.2454  0.1417
 8504TIP3   OH246926   3.417   2.590   2.129 -0.2256 -0.5810  0.1671
 8504TIP3    H146927   3.400   2.623   2.041 -0.2780 -0.9343  0.0440
 8504TIP3    H246928   3.512   2.587   2.136 -0.2216 -0.5704  0.1166
 8505TIP3   OH246929   1.652   6.169   4.378  0.0983 -0.2712  0.1026
 8505TIP3    H146930   1.733   6.134   4.416  0.1455  0.9569  1.1676
 8505TIP3    H246931   1.639   6.253   4.422 -0.6859  0.4765 -1.5076
 8506TIP3   OH246932   5.984   6.039  11.507  0.1548  0.6244 -0.1470
 8506TIP3    H146933   6.004   5.990  11.427  1.7717 -1.0665  1.2414
 8506TIP3    H246934   6.016   6.127  11.490 -1.4138  0.8498 -2.1280
 8507TIP3   OH246935   3.012   0.431   4.293 -0.6488 -0.4409 -0.0606
 8507TIP3    H146936   2.930   0.386   4.317 -0.1255 -1.2460  0.2438
 8507TIP3    H246937   3.051   0.375   4.226  1.4649 -2.0476  2.4173
 8508TIP3   OH246938   0.896   0.862  12.611  0.5266 -0.5594  0.1767
 8508TIP3    H146939   0.861   0.783  12.569 -0.8817  0.4193 -0.5148
 8508TIP3    H246940   0.851   0.934  12.568  0.3252  0.5533  2.1832
 8509TIP3   OH246941   3.172   3.843   4.718 -0.1362 -0.1911  0.3345
 8509TIP3    H146942   3.258   3.870   4.685 -0.1621 -1.2582 -0.6393
 8509TIP3    H246943   3.191   3.779   4.786 -0.1638 -1.2983 -0.6763
 8510TIP3   OH246944   0.288   6.652   3.749  0.3122 -0.3690  0.3557
 8510TIP3    H146945   0.262   6.616   3.664 -1.6526  2.3785 -0.2782
 8510TIP3    H246946   0.230   6.610   3.812 -0.0007 -0.4776 -0.0034
 8511TIP3   OH246947   6.482   3.164  17.120  0.9076  0.0963 -0.0280
 8511TIP3    H146948   6.448   3.183  17.208  1.4543  2.1372 -0.2450
 8511TIP3    H246949   6.535   3.085  17.133 -2.3078 -2.0411  0.6613
 8512TIP3   OH246950   6.351   2.431   1.248  0.2716 -0.5113  0.3451
 8512TIP3    H146951   6.424   2.492   1.246  1.1789 -1.5376  1.6124
 8512TIP3    H246952   6.275   2.483   1.222  1.4736  0.5093 -1.1681
 8513TIP3   OH246953   3.113   0.958   2.485  0.4250  0.3989 -1.0645
 8513TIP3    H146954   3.187   0.898   2.496  0.5284  0.5274 -1.0493
 8513TIP3    H246955   3.043   0.905   2.447 -0.3016 -0.3251  1.2241
 8514TIP3   OH246956   2.835   0.585   5.790 -0.2208  0.4051 -0.0824
 8514TIP3    H146957   2.855   0.509   5.844 -3.3097 -0.0359  0.5119
 8514TIP3    H246958   2.864   0.559   5.702 -0.8590 -1.2876  0.1874
 8515TIP3   OH246959   6.474   2.255  12.129  0.1106  0.1355  0.1121
 8515TIP3    H146960   6.537   2.325  12.110 -2.0373  1.8788 -0.7963
 8515TIP3    H246961   6.417   2.292  12.197 -0.2688 -1.2254  0.5576
 8516TIP3   OH246962   1.254   3.005  13.853 -0.3546 -0.0793  0.7827
 8516TIP3    H146963   1.333   3.017  13.800 -1.0386 -2.1892 -0.7857
 8516TIP3    H246964   1.286   2.981  13.940  0.7745  2.9682  1.2605
 8517TIP3   OH246965   5.339   5.141  16.774  0.0410  0.6283 -0.3913
 8517TIP3    H146966   5.253   5.100  16.774  0.9362 -1.2914 -0.5297
 8517TIP3    H246967   5.323   5.231  16.802 -2.0350  0.3643 -0.6936
 8518TIP3   OH246968   0.221   3.902  13.142  0.5161  0.0697 -0.5868
 8518TIP3    H146969   0.276   3.950  13.203 -0.0611  1.8913 -1.4880
 8518TIP3    H246970   0.233   3.945  13.058 -0.3438 -1.0854 -1.3329
 8519TIP3   OH246971   4.839   2.944   3.940  0.2589 -0.3654  0.0653
 8519TIP3    H146972   4.824   3.033   3.908 -3.4420 -0.9405 -0.0405
 8519TIP3    H246973   4.790   2.889   3.879  1.3396 -2.3599  0.9673
 8520TIP3   OH246974   1.012   1.454   4.549  0.0131  0.3207  0.2181
 8520TIP3    H146975   1.098   1.484   4.578 -1.0094  1.1976  2.4109
 8520TIP3    H246976   1.022   1.359   4.543  1.2807  0.4583 -0.0259
 8521TIP3   OH246977   5.850   5.464  11.567 -0.2493  0.0947  0.5492
 8521TIP3    H146978   5.887   5.551  11.584  1.3828 -0.5418  0.2903
 8521TIP3    H246979   5.891   5.407  11.632 -1.1685 -0.5306  0.5919
 8522TIP3   OH246980   2.367   0.564   2.799 -0.1674 -0.3294 -0.2809
 8522TIP3    H146981   2.305   0.523   2.740 -1.4800  0.8963  0.2211
 8522TIP3    H246982   2.321   0.572   2.882 -0.2106  2.7121 -0.5408
 8523TIP3   OH246983   3.296   5.513   5.811 -0.7286 -0.0417 -0.2841
 8523TIP3    H146984   3.201   5.518   5.812 -0.6787  1.1580  1.8618
 8523TIP3    H246985   3.325   5.604   5.812  0.4645 -0.3741 -2.2697
 8524TIP3   OH246986   4.229   1.149   1.979 -0.3934  0.4202 -0.3112
 8524TIP3    H146987   4.184   1.089   2.039 -1.8424 -1.2464 -2.9598
 8524TIP3    H246988   4.310   1.103   1.955  0.4034  1.2795  0.6789
 8525TIP3   OH246989   1.230   4.250  15.367  0.7872  0.5908 -0.0942
 8525TIP3    H146990   1.200   4.240  15.277  0.9264 -0.4908 -0.0217
 8525TIP3    H246991   1.168   4.313  15.406 -1.3826 -1.5541  0.0282
 8526TIP3   OH246992   5.919   3.565  13.094  0.2057  0.4737 -0.7222
 8526TIP3    H146993   5.866   3.594  13.168  0.4039 -0.0890 -0.3529
 8526TIP3    H246994   5.855   3.531  13.031  0.1489 -0.6922 -0.0552
 8527TIP3   OH246995   0.515   4.974  14.425  0.0977  0.2652  0.0610
 8527TIP3    H146996   0.490   4.943  14.338  1.0468  0.1632 -0.1860
 8527TIP3    H246997   0.466   4.919  14.485 -1.3158  0.9797 -0.4120
 8528TIP3   OH246998   4.257   6.379   3.858 -0.1971 -0.2622 -0.4417
 8528TIP3    H146999   4.281   6.379   3.765  0.9353 -0.7575 -0.1618
 8528TIP3    H247000   4.161   6.385   3.858 -0.2527 -0.9019 -1.6549
 8529TIP3   OH247001   1.295   1.228   1.089  0.5199  0.3751  0.0619
 8529TIP3    H147002   1.216   1.212   1.038  1.2115 -0.9632 -0.5940
 8529TIP3    H247003   1.365   1.187   1.039  2.1150  3.9409 -0.8299
 8530TIP3   OH247004   1.810   4.109  16.237  0.1374  0.5617  0.8722
 8530TIP3    H147005   1.879   4.168  16.207  1.5869 -1.6671 -0.2871
 8530TIP3    H247006   1.852   4.023  16.240 -2.3042 -0.6455  1.2407
 8531TIP3   OH247007   0.651   6.672  15.030 -0.2686 -0.2333 -0.0318
 8531TIP3    H147008   0.582   6.695  15.092 -0.9800 -1.4714 -0.3351
 8531TIP3    H247009   0.687   6.590  15.063  1.6579  0.8563  0.5948
 8532TIP3   OH247010   1.487   3.413   3.683  0.3894  0.0659  0.3841
 8532TIP3    H147011   1.554   3.451   3.626  1.7970 -1.2580  1.0891
 8532TIP3    H247012   1.423   3.482   3.696  1.5625  1.3234 -0.4364
 8533TIP3   OH247013   0.177   6.125   2.703 -0.2077  0.6581 -0.2566
 8533TIP3    H147014   0.238   6.195   2.726  0.0731  0.3314 -0.0084
 8533TIP3    H247015   0.091   6.167   2.703 -0.0947  0.8861  0.4070
 8534TIP3   OH247016   3.641   1.567  10.678 -0.1346 -0.0633 -0.4884
 8534TIP3    H147017   3.702   1.637  10.705 -0.1160 -0.7584  1.3949
 8534TIP3    H247018   3.555   1.607  10.685 -0.0596  0.0890 -0.4273
 8535TIP3   OH247019   2.505   0.207  16.842 -0.2455 -0.2747 -0.4722
 8535TIP3    H147020   2.555   0.288  16.828  1.0975 -1.2672 -1.5514
 8535TIP3    H247021   2.534   0.175  16.928  0.5233 -0.5300 -0.8266
 8536TIP3   OH247022   6.148   5.995   6.700 -0.2770  0.1917  0.5701
 8536TIP3    H147023   6.110   5.925   6.648  2.2008 -0.0484 -0.9929
 8536TIP3    H247024   6.158   6.068   6.639  2.9226 -0.1766  0.5394
 8537TIP3   OH247025   1.870   3.139  13.257  0.1255  0.5905 -0.0236
 8537TIP3    H147026   1.930   3.161  13.186  0.3899  0.8126  0.2715
 8537TIP3    H247027   1.790   3.189  13.237  0.1624  0.5698 -0.2209
 8538TIP3   OH247028   0.823   4.068   1.841 -0.3136  0.3300  0.0246
 8538TIP3    H147029   0.733   4.098   1.828 -1.5777 -3.1837  0.1264
 8538TIP3    H247030   0.855   4.051   1.753 -0.2413  0.2215  0.0717
 8539TIP3   OH247031   5.028   4.301   3.994  0.5374 -0.3127 -0.1852
 8539TIP3    H147032   5.005   4.378   3.941  0.6185 -0.1028  0.0840
 8539TIP3    H247033   4.944   4.268   4.025  0.4996 -0.3508 -0.3281
 8540TIP3   OH247034   0.690   0.840  15.964  0.4963  0.0785 -0.1395
 8540TIP3    H147035   0.715   0.910  16.024  1.4796  0.8201 -1.3863
 8540TIP3    H247036   0.771   0.791  15.949  0.1307 -0.4485 -0.4107
 8541TIP3   OH247037   2.487   4.986  16.087 -0.1805 -0.1182 -0.3911
 8541TIP3    H147038   2.569   4.968  16.133 -1.0040 -0.3641  1.0341
 8541TIP3    H247039   2.513   5.037  16.011  1.2372  0.3627  0.3880
 8542TIP3   OH247040   1.502   0.233   0.692 -0.3996 -0.2386  0.4198
 8542TIP3    H147041   1.551   0.273   0.765  1.3056  0.4522 -1.0658
 8542TIP3    H247042   1.440   0.301   0.665  1.3280  0.8189 -0.9856
 8543TIP3   OH247043   6.232   4.857   3.805  0.0115 -0.2220  0.1869
 8543TIP3    H147044   6.290   4.789   3.840 -2.0392 -1.5671  1.0454
 8543TIP3    H247045   6.159   4.809   3.766 -1.0244  1.4694  0.0106
 8544TIP3   OH247046   3.092   1.504   4.502  0.1463  0.4910  0.2185
 8544TIP3    H147047   3.069   1.547   4.420 -0.8275  1.4360  0.9727
 8544TIP3    H247048   3.012   1.508   4.554  0.3238 -1.4021  0.6695
 8545TIP3   OH247049   6.559   0.703   4.319  1.1288  0.0404  0.1842
 8545TIP3    H147050   6.530   0.624   4.365 -2.1227  0.3126 -1.2449
 8545TIP3    H247051   6.570   0.674   4.228  1.9877  0.7469  0.0659
 8546TIP3   OH247052   1.874   0.259   0.213  0.7494  0.2308  0.5062
 8546TIP3    H147053   1.858   0.168   0.236 -0.8817  0.1625 -0.8017
 8546TIP3    H247054   1.906   0.300   0.294  0.2406 -1.1895  1.4325
 8547TIP3   OH247055   6.727   3.962   5.965  0.2053  0.5784 -0.3829
 8547TIP3    H147056   6.773   3.894   5.915  0.7197  0.5000  0.1987
 8547TIP3    H247057   6.664   3.914   6.018 -0.1146  0.6347 -0.7122
 8548TIP3   OH247058   3.999   4.181  14.217  0.0758  0.2045  0.1236
 8548TIP3    H147059   3.929   4.131  14.259 -1.3145  1.7834 -0.2100
 8548TIP3    H247060   3.954   4.257  14.179  1.9953  1.3054 -0.0319
 8549TIP3   OH247061   4.506   1.849   1.060 -0.1909 -0.5065 -0.0884
 8549TIP3    H147062   4.481   1.758   1.072 -0.7031 -0.3818 -0.2080
 8549TIP3    H247063   4.512   1.885   1.149  0.8210 -0.8696 -0.0028
 8550TIP3   OH247064   6.753   6.362  14.352  0.5962  0.3745  0.0394
 8550TIP3    H147065   6.724   6.300  14.419 -0.5745  1.2938  0.4035
 8550TIP3    H247066   6.681   6.365  14.290  1.4275 -0.0077 -0.9562
 8551TIP3   OH247067   2.435   1.656   3.132 -0.2106  0.2087 -0.0005
 8551TIP3    H147068   2.403   1.710   3.059  0.2969  0.1336 -0.2785
 8551TIP3    H247069   2.476   1.581   3.090  1.1955  0.7768  0.3304
 8552TIP3   OH247070   2.091   2.958  14.923  0.1156 -0.3770  0.4124
 8552TIP3    H147071   2.026   3.006  14.872 -0.2453 -0.5416  0.7181
 8552TIP3    H247072   2.042   2.887  14.964  0.9002 -1.8576 -1.1321
 8553TIP3   OH247073   2.929   1.765   5.633 -0.1914  0.2679 -0.3817
 8553TIP3    H147074   2.968   1.775   5.546  0.4360 -0.8024 -0.2291
 8553TIP3    H247075   2.835   1.755   5.615 -0.3879  2.5513 -0.7627
 8554TIP3   OH247076   3.572   6.490  12.511 -0.4663 -0.1754  0.5564
 8554TIP3    H147077   3.527   6.452  12.587 -0.7851  0.7580  0.8345
 8554TIP3    H247078   3.513   6.558  12.479 -0.6139 -0.9625 -0.9005
 8555TIP3   OH247079   3.358   6.712  12.409 -0.0978  0.1321  0.1132
 8555TIP3    H147080   3.382   6.767  12.483  0.2016  0.5616 -0.3018
 8555TIP3    H247081   3.272   6.677  12.433  0.5451 -0.7212  1.2062
 8556TIP3   OH247082   1.458   4.167   4.773  0.1314 -0.3898  0.1977
 8556TIP3    H147083   1.467   4.075   4.746  0.3997 -0.0859 -0.7711
 8556TIP3    H247084   1.391   4.165   4.842  0.2833 -1.3381  0.3272
 8557TIP3   OH247085   3.793   4.352  11.705 -0.0903  0.3038  0.1464
 8557TIP3    H147086   3.812   4.280  11.646  0.4903  0.8108 -0.2965
 8557TIP3    H247087   3.862   4.347  11.772 -0.4527  0.0322  0.4993
 8558TIP3   OH247088   4.449   6.498  15.614 -0.5123 -0.5879 -0.0159
 8558TIP3    H147089   4.530   6.513  15.663 -0.7205  1.7572 -0.3641
 8558TIP3    H247090   4.479   6.478  15.525 -0.3454  1.4770 -0.4318
 8559TIP3   OH247091   6.388   2.990   0.959  0.0239  0.1912 -0.2157
 8559TIP3    H147092   6.342   3.050   1.017 -2.9640 -1.5166 -0.6731
 8559TIP3    H247093   6.389   3.034   0.874 -0.7989  0.2656 -0.1917
 8560TIP3   OH247094   1.033   0.222   5.867  0.0077 -0.1144  0.4156
 8560TIP3    H147095   1.048   0.257   5.955  1.2088 -0.3194  0.3106
 8560TIP3    H247096   1.104   0.158   5.855  0.7260  0.9782 -1.2546
 8561TIP3   OH247097   4.519   1.767   0.208  0.0906  0.1596 -0.1816
 8561TIP3    H147098   4.564   1.713   0.143 -0.5694  1.3195 -1.6336
 8561TIP3    H247099   4.577   1.841   0.223 -0.5313  0.7653 -0.7357
 8562TIP3   OH247100   2.972   2.872  13.589  0.0837  0.3305 -0.1060
 8562TIP3    H147101   2.927   2.804  13.641  1.9593 -0.8247  0.0663
 8562TIP3    H247102   2.959   2.952  13.639 -1.2841 -0.0907  0.2378
 8563TIP3   OH247103   1.124   0.067   3.094  0.2974  0.0294 -0.2285
 8563TIP3    H147104   1.151   0.136   3.155  1.5452 -0.8404  0.2074
 8563TIP3    H247105   1.140   0.105   3.007  0.7836  0.3704  0.0057
 8564TIP3   OH247106   2.603   5.585   5.544 -0.2007  0.4492 -0.0514
 8564TIP3    H147107   2.687   5.600   5.499  0.6336 -0.5729  1.1521
 8564TIP3    H247108   2.566   5.673   5.553  0.1151  0.7864 -1.7647
 8565TIP3   OH247109   0.829   6.692   5.629  0.2229  0.0071 -0.1702
 8565TIP3    H147110   0.890   6.735   5.569  0.0884  0.9035  0.3242
 8565TIP3    H247111   0.880   6.620   5.667  0.9625  0.7224  0.2068
 8566TIP3   OH247112   1.734   0.332  11.309  0.7305 -0.2895 -0.1113
 8566TIP3    H147113   1.657   0.377  11.273  0.3410 -1.0000 -0.1755
 8566TIP3    H247114   1.807   0.392  11.293 -0.0672  1.1416  1.4857
 8567TIP3   OH247115   3.698   2.873   1.839  0.0797 -0.0532 -0.1498
 8567TIP3    H147116   3.626   2.827   1.882  0.4573 -2.3278 -1.9184
 8567TIP3    H247117   3.774   2.818   1.854  1.1310  1.4725  0.2054
 8568TIP3   OH247118   3.490   4.901  12.504  0.5499  0.2326 -0.2205
 8568TIP3    H147119   3.527   4.873  12.588  0.2945  1.8285  0.4358
 8568TIP3    H247120   3.555   4.961  12.467 -0.5552  1.6874  0.1384
 8569TIP3   OH247121   3.018   0.537  13.919  0.3752  0.7980 -0.5818
 8569TIP3    H147122   3.014   0.504  14.008  0.0765 -2.8522 -1.8624
 8569TIP3    H247123   2.927   0.554  13.895  0.1614 -1.0157 -1.1325
 8570TIP3   OH247124   3.690   5.873   0.888 -0.0413  0.1973 -0.6279
 8570TIP3    H147125   3.739   5.916   0.818  0.5331 -0.0659 -0.3977
 8570TIP3    H247126   3.611   5.926   0.900 -0.1047  0.2772 -1.4262
 8571TIP3   OH247127   4.163   6.718   3.351  0.0172  0.4095 -0.2438
 8571TIP3    H147128   4.134   6.657   3.283 -1.3646  1.3756 -0.5514
 8571TIP3    H247129   4.253   6.741   3.326 -0.3211  0.3992 -1.5075
 8572TIP3   OH247130   3.628   1.709  16.837 -0.7178  0.0645  0.3911
 8572TIP3    H147131   3.564   1.725  16.767  2.3458  1.0360 -2.2799
 8572TIP3    H247132   3.690   1.782  16.830  0.3110 -0.4565  3.4083
 8573TIP3   OH247133   4.140   6.734  15.894 -0.1310 -0.1154  0.5939
 8573TIP3    H147134   4.140   6.741  15.799  0.8164  0.7683  0.6458
 8573TIP3    H247135   4.218   6.682  15.914  0.2600  0.5947  0.9383
 8574TIP3   OH247136   6.614   4.821  16.778  0.5785  0.5686 -0.3501
 8574TIP3    H147137   6.594   4.755  16.711 -0.0366  0.7967 -0.3891
 8574TIP3    H247138   6.704   4.801  16.805  1.1915  1.1189 -1.9717
 8575TIP3   OH247139   1.767   2.025  15.172  0.2318  0.1768 -0.2868
 8575TIP3    H147140   1.749   2.038  15.079  0.5936 -0.4762 -0.4524
 8575TIP3    H247141   1.853   2.065  15.186  0.9425 -1.2027 -0.6034
 8576TIP3   OH247142   6.456   6.546  12.517 -0.1198 -0.0549  0.1061
 8576TIP3    H147143   6.546   6.542  12.485 -0.4719 -1.0293 -0.7987
 8576TIP3    H247144   6.411   6.477  12.469 -1.3300  0.3605  0.6310
 8577TIP3   OH247145   1.570   4.045   4.454  0.6607  0.0101 -0.2843
 8577TIP3    H147146   1.566   3.995   4.536  0.1824 -0.4726 -0.5945
 8577TIP3    H247147   1.478   4.057   4.429  0.8139 -3.4169 -2.8850
 8578TIP3   OH247148   0.238   0.616   6.322  0.3410  0.3440  0.6751
 8578TIP3    H147149   0.244   0.639   6.415  1.3923 -1.5121  1.0972
 8578TIP3    H247150   0.175   0.544   6.319  1.1449 -0.3471  0.1136
 8579TIP3   OH247151   0.467   4.205   0.330  0.2414 -0.7172  0.2120
 8579TIP3    H147152   0.385   4.206   0.379  0.6610  1.7487  0.9183
 8579TIP3    H247153   0.531   4.168   0.391 -0.0540 -1.4015  0.1141
 8580TIP3   OH247154   2.392   4.260  16.466 -0.2350 -0.6292  0.1441
 8580TIP3    H147155   2.304   4.294  16.480 -1.0441 -3.2572  1.6285
 8580TIP3    H247156   2.441   4.289  16.544  0.2353  0.7591 -0.6423
 8581TIP3   OH247157   3.447   5.591   4.835  0.4771 -0.1509 -0.1748
 8581TIP3    H147158   3.461   5.648   4.760 -0.7245  0.0377 -0.2711
 8581TIP3    H247159   3.531   5.590   4.881  0.3759  2.1374  0.1312
 8582TIP3   OH247160   5.423   2.573  15.574 -0.0310 -0.3154  0.3575
 8582TIP3    H147161   5.505   2.591  15.528  0.4292  0.1624  1.3774
 8582TIP3    H247162   5.432   2.483  15.606 -1.2053 -1.4502 -2.2870
 8583TIP3   OH247163   5.638   5.837  11.840 -0.3774 -0.0929 -0.1603
 8583TIP3    H147164   5.687   5.785  11.903 -0.4585  0.4039  0.3178
 8583TIP3    H247165   5.584   5.894  11.894 -0.7255  0.0701 -0.6859
 8584TIP3   OH247166   1.222   3.465  15.678 -0.4099 -0.0472 -0.1707
 8584TIP3    H147167   1.298   3.428  15.723  1.4012  1.7879 -1.6072
 8584TIP3    H247168   1.257   3.541  15.631 -2.9933  0.3568 -1.5311
 8585TIP3   OH247169   3.230   2.593  11.549 -0.5704 -0.0575  0.4873
 8585TIP3    H147170   3.298   2.659  11.563 -0.8688  0.3124  0.1920
 8585TIP3    H247171   3.178   2.627  11.477 -1.6524  0.1193  1.3355
 8586TIP3   OH247172   5.570   4.059   2.917  0.5229  0.2339  0.0678
 8586TIP3    H147173   5.640   4.097   2.865 -0.5974  0.9205 -0.9675
 8586TIP3    H247174   5.604   4.060   3.007  1.6957  0.8715 -0.3701
 8587TIP3   OH247175   5.516   4.576  16.397 -0.6845 -0.2464 -0.6929
 8587TIP3    H147176   5.539   4.501  16.452  0.7525 -0.0217 -0.9438
 8587TIP3    H247177   5.490   4.538  16.314 -1.0850 -0.5135 -0.4465
 8588TIP3   OH247178   2.305   1.992   1.451  0.2272 -0.0534 -0.2027
 8588TIP3    H147179   2.317   2.063   1.513  2.7500 -0.4009 -0.2683
 8588TIP3    H247180   2.333   1.914   1.499 -0.2338 -0.6709 -0.9372
 8589TIP3   OH247181   2.190   1.945   4.925  0.4696 -0.7276  0.2419
 8589TIP3    H147182   2.152   1.872   4.974 -0.1684 -0.6902 -0.1932
 8589TIP3    H247183   2.130   2.018   4.941  1.0534 -0.3192  0.5977
 8590TIP3   OH247184   1.992   1.393   2.874 -0.5157  0.0255  0.3308
 8590TIP3    H147185   1.897   1.395   2.883 -0.3668  1.0248  1.8397
 8590TIP3    H247186   2.009   1.426   2.786 -1.6161 -1.5193 -0.4881
 8591TIP3   OH247187   0.180   2.555   3.773  0.2662 -0.1859  0.5439
 8591TIP3    H147188   0.124   2.604   3.833 -0.6344 -1.0299  0.3969
 8591TIP3    H247189   0.251   2.616   3.752 -0.8097  1.0459  0.4106
 8592TIP3   OH247190   0.640   0.585   4.706 -0.1884  0.3907 -0.5326
 8592TIP3    H147191   0.677   0.596   4.793  0.5128 -2.0179 -0.4929
 8592TIP3    H247192   0.701   0.631   4.648 -0.0556  1.0482  0.1201
 8593TIP3   OH247193   2.631   6.066   2.397  0.0314 -0.0901  0.1866
 8593TIP3    H147194   2.554   6.067   2.340 -1.0420  0.5884  1.6382
 8593TIP3    H247195   2.693   6.125   2.353  1.6230 -4.2144 -3.4864
 8594TIP3   OH247196   1.444   4.249  13.979  0.1728 -0.0630  0.1908
 8594TIP3    H147197   1.510   4.207  13.925  0.0666 -1.7407  1.3257
 8594TIP3    H247198   1.488   4.268  14.062  0.4016  2.6996 -0.4957
 8595TIP3   OH247199   1.226   0.386   0.111 -0.6491 -0.6182  0.2823
 8595TIP3    H147200   1.264   0.332   0.180  0.8951  0.2399  0.1259
 8595TIP3    H247201   1.254   0.344   0.030 -0.5705 -0.3377  0.1650
 8596TIP3   OH247202   0.192   6.362  11.944 -0.6785  0.1452  0.5142
 8596TIP3    H147203   0.143   6.385  12.024 -1.7220  0.4735 -0.2040
 8596TIP3    H247204   0.124   6.334  11.882  0.0056  1.0070 -0.6429
 8597TIP3   OH247205   3.945   2.390   4.039 -0.3118  0.0150 -0.2327
 8597TIP3    H147206   4.034   2.407   4.071  0.0866 -0.9459 -0.8181
 8597TIP3    H247207   3.945   2.425   3.950 -1.3861  2.5740  0.7171
 8598TIP3   OH247208   4.490   5.153  14.300 -0.1284 -0.0788 -0.0569
 8598TIP3    H147209   4.479   5.064  14.333 -0.6330 -0.5706 -1.5505
 8598TIP3    H247210   4.426   5.162  14.230 -0.3637  1.6073  0.3346
 8599TIP3   OH247211   3.848   4.263   4.361  0.2970 -0.2204 -0.6152
 8599TIP3    H147212   3.890   4.177   4.366  0.6443 -0.0130  0.1232
 8599TIP3    H247213   3.891   4.314   4.430 -2.2109 -0.4484  1.1913
 8600TIP3   OH247214   3.963   5.353   3.944  1.0780 -0.3453  0.1273
 8600TIP3    H147215   4.034   5.291   3.963 -0.2069 -2.0032 -0.3181
 8600TIP3    H247216   3.943   5.337   3.851 -0.0779 -0.1027  0.3335
 8601TIP3   OH247217   5.210   1.958   0.512 -0.2989 -0.0501  0.2213
 8601TIP3    H147218   5.255   2.039   0.486 -0.2859 -0.0237  0.3229
 8601TIP3    H247219   5.147   1.987   0.578 -1.0187  0.0308 -0.4921
 8602TIP3   OH247220   4.830   6.074  13.983  0.0387 -0.3013 -0.0920
 8602TIP3    H147221   4.759   6.011  13.988  0.6180 -0.9082  0.6878
 8602TIP3    H247222   4.904   6.024  13.949  0.8061 -0.3312  1.5619
 8603TIP3   OH247223   4.064   3.401   4.493 -0.5919  0.2205  0.3809
 8603TIP3    H147224   4.045   3.341   4.565  0.6832 -2.3876 -1.3801
 8603TIP3    H247225   4.032   3.356   4.415  1.0095  1.4931 -1.0633
 8604TIP3   OH247226   2.860   2.519  12.767  1.0254  0.4879 -0.7542
 8604TIP3    H147227   2.925   2.569  12.717  1.9682 -1.4452 -1.5267
 8604TIP3    H247228   2.797   2.489  12.702  1.1640 -0.3674 -0.5084
 8605TIP3   OH247229   5.034   2.751   0.675 -0.0884 -0.3713  0.2323
 8605TIP3    H147230   5.010   2.833   0.631 -1.1635  0.9660  3.1674
 8605TIP3    H247231   4.952   2.702   0.683 -0.0182 -0.3512  1.1964
 8606TIP3   OH247232   4.107   0.884   2.363 -0.1845 -0.0914 -0.2889
 8606TIP3    H147233   4.048   0.827   2.413  0.4898 -1.4179 -0.9988
 8606TIP3    H247234   4.069   0.972   2.375 -1.3862 -0.6985  0.5881
 8607TIP3   OH247235   6.165   5.220  12.854 -0.4037  0.1445 -0.2839
 8607TIP3    H147236   6.176   5.312  12.831  0.6612  0.2418  0.5796
 8607TIP3    H247237   6.077   5.214  12.889  1.2625  1.8915  4.5210
 8608TIP3   OH247238   5.130   2.615   3.658 -0.0096 -0.1402  0.0688
 8608TIP3    H147239   5.096   2.704   3.662  0.2465 -0.0228 -0.3915
 8608TIP3    H247240   5.219   2.624   3.624  0.0209 -0.5686  0.0255
 8609TIP3   OH247241   5.534   2.267   3.733 -0.4723  0.4968  0.2908
 8609TIP3    H147242   5.553   2.174   3.723  0.0897  0.4238  1.9400
 8609TIP3    H247243   5.544   2.303   3.644  0.5365 -0.7857 -0.1369
 8610TIP3   OH247244   1.296   1.513   4.584 -0.4693  0.5227 -0.2865
 8610TIP3    H147245   1.342   1.543   4.506  0.4866 -0.3937 -0.0812
 8610TIP3    H247246   1.329   1.570   4.654  0.6920 -0.4039 -0.0608
 8611TIP3   OH247247   4.580   5.344  15.315  0.2543 -0.6211  0.2478
 8611TIP3    H147248   4.571   5.251  15.335  0.4295 -0.7971 -0.4636
 8611TIP3    H247249   4.510   5.386  15.364 -0.7056 -1.2840 -0.5275
 8612TIP3   OH247250   2.872   4.773   3.056  0.0772  0.0480  0.2190
 8612TIP3    H147251   2.830   4.763   3.142 -2.2332  0.1356 -0.8687
 8612TIP3    H247252   2.898   4.865   3.052 -1.2992  0.4340  0.1625
 8613TIP3   OH247253   0.599   6.157   0.793 -0.1760  0.6587 -0.1756
 8613TIP3    H147254   0.588   6.227   0.728 -2.0620 -0.0687 -0.6612
 8613TIP3    H247255   0.693   6.141   0.794  0.1744  2.4936 -0.8153
 8614TIP3   OH247256   4.827   4.938  12.800 -0.1863  0.0603 -0.1615
 8614TIP3    H147257   4.867   4.853  12.781 -0.1200 -0.7572  3.3728
 8614TIP3    H247258   4.901   4.996  12.820 -0.4752 -0.4557  2.5891
 8615TIP3   OH247259   5.769   2.104  15.122 -0.6516 -0.4508 -0.8371
 8615TIP3    H147260   5.827   2.144  15.187  1.0283 -0.4052 -2.3350
 8615TIP3    H247261   5.742   2.022  15.161  0.2893 -0.3873 -0.0292
 8616TIP3   OH247262   2.958   1.074  12.528  0.5503  0.0386  0.2811
 8616TIP3    H147263   2.893   1.048  12.463 -1.0509  0.3170  1.7358
 8616TIP3    H247264   2.968   1.168  12.516  2.3341 -0.3462 -1.3974
 8617TIP3   OH247265   0.360   1.483   4.686 -0.6040 -0.1281  0.0678
 8617TIP3    H147266   0.416   1.419   4.643 -1.2990 -0.4035 -0.4431
 8617TIP3    H247267   0.275   1.475   4.641 -1.1367  0.0635  1.0215
 8618TIP3   OH247268   1.486   3.595  11.019  0.4384  0.3961  0.3759
 8618TIP3    H147269   1.529   3.566  11.100  0.0632  0.8225  0.7268
 8618TIP3    H247270   1.404   3.635  11.048 -0.8462 -1.6048 -0.3739
 8619TIP3   OH247271   4.406   5.852   0.851 -0.9821 -0.0239 -0.5651
 8619TIP3    H147272   4.410   5.937   0.808  0.7007  0.0655 -0.2449
 8619TIP3    H247273   4.313   5.839   0.869 -1.1196  2.4534  0.7801
 8620TIP3   OH247274   4.258   3.032  15.784 -0.2503 -0.3044 -0.4778
 8620TIP3    H147275   4.329   2.988  15.737  0.1722  0.6342 -0.7317
 8620TIP3    H247276   4.246   3.114  15.736  0.5571  0.9307  1.3762
 8621TIP3   OH247277   2.069   4.914  15.594 -0.5918 -0.5369  0.7923
 8621TIP3    H147278   2.100   4.920  15.685 -1.7949  0.4585  1.1386
 8621TIP3    H247279   1.983   4.872  15.601 -0.4465 -0.9682  0.0495
 8622TIP3   OH247280   0.966   2.471   1.365  0.2247 -0.5515  0.3112
 8622TIP3    H147281   1.028   2.430   1.425  0.6673 -3.7375 -2.2469
 8622TIP3    H247282   1.017   2.491   1.287 -1.2730 -0.2892 -0.6206
 8623TIP3   OH247283   4.463   1.142  15.393 -0.2134 -0.4927 -0.2909
 8623TIP3    H147284   4.383   1.088  15.388  0.6053 -1.6337 -1.4111
 8623TIP3    H247285   4.455   1.202  15.319  0.0597 -0.7566 -0.5372
 8624TIP3   OH247286   5.042   4.035   0.285  0.1580  0.4684  0.8036
 8624TIP3    H147287   4.957   4.075   0.303 -0.1421  0.5404 -0.7621
 8624TIP3    H247288   5.022   3.959   0.231  1.2103  1.3935 -0.9365
 8625TIP3   OH247289   2.267   0.898   3.889 -0.2383 -0.2108 -0.3575
 8625TIP3    H147290   2.187   0.936   3.926  0.7310  0.1673  1.4084
 8625TIP3    H247291   2.328   0.971   3.883  0.9961 -1.0907  1.2402
 8626TIP3   OH247292   5.904   2.651   0.978 -0.2349 -0.2815 -0.3550
 8626TIP3    H147293   5.931   2.712   0.909  2.1758 -2.1182 -1.1215
 8626TIP3    H247294   5.849   2.587   0.933 -1.9269  0.7101  0.2513
 8627TIP3   OH247295   1.859   3.089  11.415  0.5761 -0.3782  0.1486
 8627TIP3    H147296   1.920   3.152  11.375  1.6521 -1.2721  0.3365
 8627TIP3    H247297   1.782   3.141  11.438  1.1548  0.7263 -0.3667
 8628TIP3   OH247298   1.531   5.129   5.172  0.4101  0.2143  0.3547
 8628TIP3    H147299   1.480   5.156   5.097 -0.7251 -0.0383  1.0252
 8628TIP3    H247300   1.611   5.091   5.135  0.5623  1.5067 -0.6651
 8629TIP3   OH247301   5.645   6.715  16.526  0.0404 -0.1493  0.1061
 8629TIP3    H147302   5.651   6.804  16.561 -0.2095  0.4283 -1.2847
 8629TIP3    H247303   5.559   6.684  16.553 -0.4055  0.5250 -0.5305
 8630TIP3   OH247304   4.628   1.647   5.378  0.5611 -0.8494  0.1883
 8630TIP3    H147305   4.571   1.571   5.381 -0.6027 -0.0821 -1.4060
 8630TIP3    H247306   4.654   1.662   5.469 -2.6905 -0.5621  1.1383
 8631TIP3   OH247307   2.223   5.031  15.093 -0.0400  0.3715 -0.1111
 8631TIP3    H147308   2.213   4.960  15.156 -1.0199  0.3029 -0.3385
 8631TIP3    H247309   2.140   5.078  15.096 -0.5736 -0.3593 -2.2362
 8632TIP3   OH247310   0.572   0.602  12.973  0.3323  0.1643  0.0936
 8632TIP3    H147311   0.506   0.565  12.915  0.9714 -1.2776  0.2447
 8632TIP3    H247312   0.527   0.672  13.021 -1.0441 -0.7215  0.1225
 8633TIP3   OH247313   2.945   0.913  12.846  0.1305 -0.4045  0.1610
 8633TIP3    H147314   2.994   0.931  12.765 -1.5075  0.4092 -0.6819
 8633TIP3    H247315   2.994   0.843  12.888  0.9036 -0.9958 -1.6467
 8634TIP3   OH247316   3.403   3.967   2.096 -1.0548 -0.1204 -0.2143
 8634TIP3    H147317   3.426   3.901   2.030 -0.7762  1.6475 -1.9225
 8634TIP3    H247318   3.480   4.024   2.100 -1.9454  1.0706  0.0336
 8635TIP3   OH247319   2.284   6.620   4.537  0.2136 -0.2778  0.4585
 8635TIP3    H147320   2.255   6.707   4.511 -1.9415 -1.3670 -0.8608
 8635TIP3    H247321   2.374   6.614   4.502 -0.4755  0.5376 -1.5568
 8636TIP3   OH247322   5.396   0.536  16.135 -0.5276 -0.6866  0.1417
 8636TIP3    H147323   5.462   0.605  16.131  1.1677 -2.3515 -3.3898
 8636TIP3    H247324   5.420   0.483  16.210 -0.1325  0.8802  1.1432
 8637TIP3   OH247325   5.710   5.904   3.284  0.0399 -0.2064  0.1858
 8637TIP3    H147326   5.796   5.868   3.308  0.3592  1.1061  1.1218
 8637TIP3    H247327   5.647   5.843   3.322  0.5744  0.1068  1.6468
 8638TIP3   OH247328   5.899   2.015   1.700  0.2026 -0.2916  0.1394
 8638TIP3    H147329   5.847   1.947   1.657  0.4654 -1.5950  1.8356
 8638TIP3    H247330   5.963   1.967   1.752  2.7118  1.2753 -1.3905
 8639TIP3   OH247331   6.005   1.808   2.529  0.1348 -0.1091  0.3127
 8639TIP3    H147332   5.939   1.874   2.551  0.4597 -0.0337  1.0691
 8639TIP3    H247333   6.084   1.836   2.575  0.7720 -0.0785 -0.7636
 8640TIP3   OH247334   0.062   1.839   2.609 -0.4030  0.0027 -0.1002
 8640TIP3    H147335   0.055   1.754   2.654  0.6845 -0.4962 -0.8446
 8640TIP3    H247336  -0.009   1.891   2.646 -1.9122 -1.6530 -0.5793
 8641TIP3   OH247337   3.049   5.972   4.471  0.0732 -0.3031  0.3638
 8641TIP3    H147338   3.111   5.923   4.417  1.2182  2.9080 -1.3712
 8641TIP3    H247339   3.101   6.008   4.542  0.1916  1.9962 -0.8287
 8642TIP3   OH247340   3.475   3.417  11.552 -0.5116  0.0351  0.1717
 8642TIP3    H147341   3.405   3.460  11.502 -0.3897  0.5417  0.4300
 8642TIP3    H247342   3.428   3.367  11.619 -0.6265  0.4383  0.3940
 8643TIP3   OH247343   5.274   6.343   5.829  0.5863  0.4038 -0.1180
 8643TIP3    H147344   5.282   6.433   5.799 -0.9941  0.2254 -1.1092
 8643TIP3    H247345   5.331   6.293   5.770  0.7623  0.6300 -0.1403
 8644TIP3   OH247346   0.281   1.523  15.949 -0.0352 -0.3776 -0.5640
 8644TIP3    H147347   0.331   1.603  15.962 -1.6383  0.5588 -0.0442
 8644TIP3    H247348   0.306   1.493  15.861 -0.8707  1.7540 -1.5636
 8645TIP3   OH247349   5.128   1.673  13.684 -0.2633 -0.2490  0.1602
 8645TIP3    H147350   5.211   1.666  13.636 -1.2502 -1.1254 -1.4589
 8645TIP3    H247351   5.090   1.585  13.680 -2.0619  0.5337 -0.5932
 8646TIP3   OH247352   2.069   1.472   2.363  0.1558  0.2595  0.0272
 8646TIP3    H147353   1.988   1.435   2.398 -0.0359 -1.6178 -2.3372
 8646TIP3    H247354   2.040   1.541   2.303  0.4348  1.8058  1.6057
 8647TIP3   OH247355   1.936   4.684  14.114 -0.3934  0.5608 -0.0334
 8647TIP3    H147356   1.913   4.674  14.021  1.3287 -0.7010 -0.3465
 8647TIP3    H247357   1.996   4.759  14.115  1.5986 -1.0005 -0.3145
 8648TIP3   OH247358   2.678   1.852   1.166 -0.4071 -0.3978 -0.1255
 8648TIP3    H147359   2.645   1.771   1.205  0.6189 -0.4772  0.6104
 8648TIP3    H247360   2.608   1.916   1.180 -1.3117 -1.1983 -0.9021
 8649TIP3   OH247361   4.882   1.511   4.908 -0.4837  0.2228  0.1937
 8649TIP3    H147362   4.955   1.547   4.959 -1.0776  0.2718  1.0297
 8649TIP3    H247363   4.805   1.527   4.963 -1.0929 -0.0039 -0.5943
 8650TIP3   OH247364   5.133   0.210  15.421  0.4421  0.6557 -0.3422
 8650TIP3    H147365   5.228   0.202  15.433  0.5651 -0.2874 -1.8626
 8650TIP3    H247366   5.097   0.192  15.508  1.6128  0.0460  0.0326
 8651TIP3   OH247367   3.290   5.691  15.096  0.2605 -0.1362  0.0421
 8651TIP3    H147368   3.261   5.781  15.108 -1.3343 -0.4569 -1.2088
 8651TIP3    H247369   3.209   5.641  15.083  1.3100 -1.2219 -2.6603
 8652TIP3   OH247370   4.618   4.642  13.851  0.7102  0.1041  0.4821
 8652TIP3    H147371   4.612   4.579  13.779  1.3954  0.9259 -0.3172
 8652TIP3    H247372   4.527   4.670  13.866  0.3804 -1.2269  0.9963
 8653TIP3   OH247373   6.055   3.215   3.166  0.2740 -0.0784 -0.0825
 8653TIP3    H147374   6.024   3.159   3.238  0.6742  0.2695  0.3600
 8653TIP3    H247375   6.130   3.168   3.130 -0.5258 -0.7421 -0.9199
 8654TIP3   OH247376   0.155   1.297   5.215 -0.0778  0.0313  0.3453
 8654TIP3    H147377   0.097   1.369   5.192  0.6820  0.3211 -0.6635
 8654TIP3    H247378   0.101   1.240   5.271 -1.4104  0.1601 -0.7779
 8655TIP3   OH247379   4.073   5.488   5.819  0.0122  0.2138  0.2973
 8655TIP3    H147380   4.099   5.498   5.911 -1.3535  0.6528  0.6518
 8655TIP3    H247381   4.113   5.406   5.791 -1.1382 -0.9090  1.8666
 8656TIP3   OH247382   3.736   2.826  11.653 -0.9202  0.2631  0.8115
 8656TIP3    H147383   3.700   2.741  11.626 -0.4857  0.2192  0.3727
 8656TIP3    H247384   3.659   2.876  11.682 -1.1147 -0.4675  1.5909
 8657TIP3   OH247385   4.002   2.521   3.211 -0.2228 -0.1976 -0.5636
 8657TIP3    H147386   3.998   2.426   3.228 -1.4195  0.1315  1.2079
 8657TIP3    H247387   4.090   2.546   3.236  1.4470 -1.4549 -4.7477
 8658TIP3   OH247388   6.081   3.707   2.091  0.0960 -0.3034  0.1823
 8658TIP3    H147389   6.100   3.746   2.005  1.7442 -1.4807 -0.0213
 8658TIP3    H247390   6.167   3.695   2.131 -0.5406 -1.5577  1.1978
 8659TIP3   OH247391   3.494   0.605   1.996 -0.5211  0.0283  0.7355
 8659TIP3    H147392   3.536   0.654   1.926 -1.2153  0.1723  0.4205
 8659TIP3    H247393   3.526   0.515   1.984 -0.4211  0.1063  0.4111
 8660TIP3   OH247394   5.326   6.132   0.977  0.3191 -0.1359 -0.0271
 8660TIP3    H147395   5.280   6.123   0.893  0.8168  0.1060 -0.3247
 8660TIP3    H247396   5.263   6.177   1.033  1.2149  2.7951 -1.2863
 8661TIP3   OH247397   4.258   4.658  11.222  0.3487 -0.0440 -0.6668
 8661TIP3    H147398   4.337   4.712  11.217 -0.1902  0.7330 -1.0793
 8661TIP3    H247399   4.206   4.686  11.146 -0.3307 -0.5206 -0.3789
 8662TIP3   OH247400   2.177   5.694  16.899 -0.2959  0.0203 -0.3310
 8662TIP3    H147401   2.248   5.687  16.963 -0.7037 -1.3050  0.0133
 8662TIP3    H247402   2.155   5.787  16.897  0.7051  0.2800  0.3838
 8663TIP3   OH247403   6.506   0.109   4.554 -0.8423 -0.4715 -0.1652
 8663TIP3    H147404   6.567   0.054   4.604 -1.0814 -1.4110 -0.8926
 8663TIP3    H247405   6.458   0.158   4.620 -0.5790 -1.0921  0.4910
 8664TIP3   OH247406   5.094   2.551   0.985  0.1329  0.0935 -0.1498
 8664TIP3    H147407   5.082   2.553   1.080 -0.4966  1.1237 -0.2347
 8664TIP3    H247408   5.175   2.601   0.970  1.1693 -1.5379 -0.0334
 8665TIP3   OH247409   5.896   3.640   3.450  0.6116  0.2944 -0.3536
 8665TIP3    H147410   5.834   3.571   3.473 -0.3560  1.2282 -0.0887
 8665TIP3    H247411   5.922   3.678   3.535 -0.1439  1.3412 -0.5861
 8666TIP3   OH247412   0.656   4.065   0.532  0.0995 -0.4030  0.3243
 8666TIP3    H147413   0.751   4.080   0.536 -0.2469  1.8090  1.4003
 8666TIP3    H247414   0.621   4.121   0.601 -1.9897 -1.3622  0.0701
 8667TIP3   OH247415   3.097   0.714  17.162 -0.0553 -0.5582  0.7110
 8667TIP3    H147416   3.182   0.696  17.123  0.6854 -2.0985  2.9466
 8667TIP3    H247417   3.100   0.807  17.185 -0.1767  0.1458 -2.0001
 8668TIP3   OH247418   6.478   0.200   3.229 -0.1216 -0.0168 -0.1489
 8668TIP3    H147419   6.495   0.134   3.162  0.4438 -2.1074  1.9634
 8668TIP3    H247420   6.483   0.283   3.183 -1.3836 -1.4543 -3.0230
 8669TIP3   OH247421   0.515   1.577  15.375 -0.0683  0.3547  0.2672
 8669TIP3    H147422   0.489   1.636  15.446  1.9402  0.1015  1.2456
 8669TIP3    H247423   0.492   1.624  15.295  1.9843  2.7341  1.0034
 8670TIP3   OH247424   3.802   1.871  12.754  0.0565  0.3280  0.3689
 8670TIP3    H147425   3.749   1.943  12.786  0.4584  1.2364 -0.9796
 8670TIP3    H247426   3.889   1.908  12.741  0.3073 -0.4217 -0.1969
 8671TIP3   OH247427   3.068   6.143  12.814 -0.3244 -0.0079  0.6339
 8671TIP3    H147428   3.060   6.048  12.818  0.1419  0.0217  2.7926
 8671TIP3    H247429   3.140   6.164  12.874  0.2720  1.6280 -0.6086
 8672TIP3   OH247430   0.564   6.089  11.212 -0.5024  0.1286  0.3151
 8672TIP3    H147431   0.529   6.097  11.123 -0.5667  0.1352  0.3410
 8672TIP3    H247432   0.645   6.039  11.201  0.5275  1.8210  0.0031
 8673TIP3   OH247433   5.965   0.120   3.419  0.8963  0.4113  0.3151
 8673TIP3    H147434   5.917   0.122   3.336  0.1815 -0.4307  0.6923
 8673TIP3    H247435   6.002   0.032   3.423 -1.1474 -0.4200  2.0206
 8674TIP3   OH247436   3.363   4.816   3.441  0.6661 -0.7533  0.0540
 8674TIP3    H147437   3.276   4.804   3.479  0.9701  0.3651  1.1435
 8674TIP3    H247438   3.350   4.875   3.367  0.6220  0.1488  0.7754
 8675TIP3   OH247439   2.072   4.987   1.998 -0.0332 -0.1256 -0.1580
 8675TIP3    H147440   2.120   5.008   1.918  0.1924 -0.4624 -0.1132
 8675TIP3    H247441   1.989   5.034   1.990  0.7890  1.4206  0.3170
 8676TIP3   OH247442   4.662   3.699   1.591  1.0254 -0.5106  0.0863
 8676TIP3    H147443   4.672   3.714   1.684  0.8387  1.0693 -0.1253
 8676TIP3    H247444   4.723   3.760   1.550 -0.0946  0.0124 -0.8466
 8677TIP3   OH247445   0.928   2.525   5.822  0.3418  0.3782  0.2996
 8677TIP3    H147446   0.892   2.521   5.734 -0.0450  0.2575  0.4640
 8677TIP3    H247447   0.890   2.450   5.868  1.6545 -0.3902  0.1554
 8678TIP3   OH247448   0.318   2.110  16.265  0.4854  0.2526 -0.3159
 8678TIP3    H147449   0.320   2.016  16.286 -0.0435  0.3749  0.2742
 8678TIP3    H247450   0.301   2.153  16.348  0.6914  0.8764 -0.5920
 8679TIP3   OH247451   0.951   4.574   4.097  0.6787 -0.2843  0.2539
 8679TIP3    H147452   0.957   4.480   4.113  1.6664  0.1146  2.4428
 8679TIP3    H247453   1.031   4.610   4.135  0.3796  1.4341 -0.6856
 8680TIP3   OH247454   2.657   5.186   2.569  0.2314 -0.0606  0.0233
 8680TIP3    H147455   2.562   5.187   2.586  0.2872 -0.2300  0.3712
 8680TIP3    H247456   2.692   5.128   2.637  0.7101  0.8316  0.5414
 8681TIP3   OH247457   4.881   2.421  13.919 -0.5973  0.5320  0.2278
 8681TIP3    H147458   4.879   2.409  14.014  0.2009  2.1979  0.4725
 8681TIP3    H247459   4.874   2.332  13.884 -2.7630  0.0390  1.8006
 8682TIP3   OH247460   0.006   2.091  14.053  0.3103 -0.1764  0.2441
 8682TIP3    H147461  -0.064   2.063  14.113  2.0044 -0.4197  2.1350
 8682TIP3    H247462  -0.008   2.039  13.974 -1.8148 -0.0111  0.4662
 8683TIP3   OH247463   1.414   3.491  12.865  0.0518  0.0888  0.2707
 8683TIP3    H147464   1.342   3.429  12.863  1.5201 -1.6722  0.4702
 8683TIP3    H247465   1.373   3.576  12.877 -2.0755 -0.7139 -1.0812
 8684TIP3   OH247466   4.728   0.090  12.004 -0.4857  0.1876 -0.3224
 8684TIP3    H147467   4.706   0.114  12.094 -0.6547 -1.0176 -0.0258
 8684TIP3    H247468   4.822   0.075  12.006 -0.5421 -0.1726 -0.2576
 8685TIP3   OH247469   2.176   3.888   5.720  0.4803 -0.3015 -0.0489
 8685TIP3    H147470   2.100   3.946   5.716  0.1547 -0.6528  0.9221
 8685TIP3    H247471   2.180   3.859   5.812  0.8656 -1.5142 -0.4383
 8686TIP3   OH247472   1.004   3.740   4.405 -0.1289 -0.5911  0.6832
 8686TIP3    H147473   0.965   3.695   4.481 -2.8111  0.4672 -0.0136
 8686TIP3    H247474   1.092   3.702   4.398 -0.4121 -1.8834  3.3236
 8687TIP3   OH247475   2.776   1.870   0.830 -0.2848  0.2314 -0.1811
 8687TIP3    H147476   2.682   1.876   0.846 -0.2041 -1.1250  0.7930
 8687TIP3    H247477   2.805   1.962   0.822 -1.7643  0.6359 -1.0483
 8688TIP3   OH247478   2.519   5.416  15.129  0.2292  0.2655  0.6547
 8688TIP3    H147479   2.432   5.377  15.115  1.2931 -1.9256 -0.0068
 8688TIP3    H247480   2.535   5.403  15.223 -0.0212  0.3904  0.7164
 8689TIP3   OH247481   5.311   3.159   0.166 -0.4024 -0.1563  0.1192
 8689TIP3    H147482   5.392   3.207   0.153 -1.0630  1.2785  1.1475
 8689TIP3    H247483   5.302   3.151   0.261 -1.3959 -0.4133  0.0164
 8690TIP3   OH247484   4.223   3.828  16.470  0.5230  0.5868  0.0764
 8690TIP3    H147485   4.292   3.893  16.462  2.0665 -1.0960 -0.7849
 8690TIP3    H247486   4.213   3.792  16.381  1.1418 -1.7452  0.9149
 8691TIP3   OH247487   6.289   2.067  14.464 -0.0412  0.1016  0.9881
 8691TIP3    H147488   6.359   2.123  14.499 -0.1743 -0.2955  1.8900
 8691TIP3    H247489   6.216   2.080  14.524 -0.2726 -0.5832  0.8577
 8692TIP3   OH247490   6.148   3.911  13.288 -0.6211  0.6578 -0.1632
 8692TIP3    H147491   6.154   3.877  13.377 -0.5681  2.0440  0.3874
 8692TIP3    H247492   6.066   3.961  13.287 -0.9657  0.0785 -1.0942
 8693TIP3   OH247493   4.452   4.730  15.847  0.6340 -0.2185  0.1868
 8693TIP3    H147494   4.517   4.794  15.878  0.5169 -0.2850  0.5805
 8693TIP3    H247495   4.370   4.778  15.848  0.7716  0.0405 -0.8913
 8694TIP3   OH247496   5.761   6.142   2.580  0.0994  0.4865 -0.5693
 8694TIP3    H147497   5.706   6.197   2.635  0.5267 -0.0544  0.4215
 8694TIP3    H247498   5.711   6.061   2.571 -0.8969  1.3212 -2.7049
 8695TIP3   OH247499   5.118   4.124  16.642 -0.8314  0.3775 -0.1863
 8695TIP3    H147500   5.085   4.068  16.712  1.1119 -1.9632 -1.1032
 8695TIP3    H247501   5.075   4.092  16.562 -0.7562  1.0925 -0.5213
 8696TIP3   OH247502   2.644   1.615  11.184 -0.4088 -0.3911  0.0795
 8696TIP3    H147503   2.633   1.625  11.279 -0.2368 -1.9836  0.2848
 8696TIP3    H247504   2.737   1.597  11.172 -0.2106  0.9872 -0.5129
 8697TIP3   OH247505   3.635   2.857  12.547  0.0852  0.2227 -0.8224
 8697TIP3    H147506   3.584   2.821  12.620 -1.6567  3.0668 -0.5966
 8697TIP3    H247507   3.726   2.839  12.572 -0.5491 -0.5015  1.1491
 8698TIP3   OH247508   0.620   0.160  12.141 -0.4861 -0.4252 -0.3777
 8698TIP3    H147509   0.669   0.114  12.209 -1.6865 -1.0010  0.1130
 8698TIP3    H247510   0.680   0.229  12.111 -0.1147  0.1421  1.5819
 8699TIP3   OH247511   0.970   0.969  16.982  0.1380 -0.1598  0.2970
 8699TIP3    H147512   0.881   0.990  16.954  0.1672  1.2917  1.2269
 8699TIP3    H247513   1.013   0.936  16.903 -0.9337  0.0665 -0.3918
 8700TIP3   OH247514   4.918   5.577   0.611  0.5761 -0.0218  0.0101
 8700TIP3    H147515   4.991   5.551   0.667  0.0579  1.4073  1.3962
 8700TIP3    H247516   4.916   5.672   0.617 -2.5971 -0.1271  1.5825
 8701TIP3   OH247517   2.364   6.111  13.201  0.2785  0.5978 -0.2829
 8701TIP3    H147518   2.306   6.158  13.261 -0.2243 -0.2139 -0.1291
 8701TIP3    H247519   2.452   6.140  13.225  0.0633  0.4508  0.6946
 8702TIP3   OH247520   5.797   1.735  13.141 -0.1246 -0.6472  0.0978
 8702TIP3    H147521   5.770   1.824  13.164  4.2456  0.0486  3.0998
 8702TIP3    H247522   5.821   1.741  13.049  1.3656  1.6613  0.5953
 8703TIP3   OH247523   0.681   2.767   6.031  0.4645 -0.1340  0.3294
 8703TIP3    H147524   0.612   2.814   6.079  0.5744  0.7953 -0.4050
 8703TIP3    H247525   0.652   2.676   6.033 -1.2181  0.3480 -0.6514
 8704TIP3   OH247526   6.528   6.353  13.524  0.0660 -0.4081 -0.1696
 8704TIP3    H147527   6.498   6.405  13.598  1.7352 -0.6564  0.7158
 8704TIP3    H247528   6.449   6.329  13.478 -0.9406  0.4738  1.0610
 8705TIP3   OH247529   3.926   1.608  14.884 -0.8213  0.0336  0.3456
 8705TIP3    H147530   3.882   1.535  14.842  3.0388 -1.8429 -0.7226
 8705TIP3    H247531   3.954   1.575  14.969  1.6768 -0.0781 -0.4791
 8706TIP3   OH247532   2.405   6.211  16.076 -0.4020  0.3399  0.0865
 8706TIP3    H147533   2.402   6.306  16.086  1.9593  0.4858 -0.1859
 8706TIP3    H247534   2.498   6.189  16.085 -1.0738 -2.1113  1.5684
 8707TIP3   OH247535   5.883   4.252   0.649  0.0014 -0.2574  0.2875
 8707TIP3    H147536   5.862   4.255   0.742  0.9408 -4.7882  0.7764
 8707TIP3    H247537   5.818   4.193   0.611 -0.0475  1.1116 -1.8449
 8708TIP3   OH247538   1.558   1.574   1.320  0.2535 -0.8808 -0.3304
 8708TIP3    H147539   1.506   1.571   1.240  1.2454  0.2034 -1.0375
 8708TIP3    H247540   1.638   1.621   1.295 -0.0671  0.7863  1.6277
 8709TIP3   OH247541   6.511   5.050  11.086  0.5132  0.7966  0.5009
 8709TIP3    H147542   6.491   5.091  11.170 -1.7163 -0.4332  0.6037
 8709TIP3    H247543   6.479   5.113  11.021 -0.9296  0.2181  0.6328
 8710TIP3   OH247544   4.213   4.087  14.330  0.3206  0.1997 -0.1086
 8710TIP3    H147545   4.210   4.037  14.412 -0.1701 -1.1162 -0.9112
 8710TIP3    H247546   4.122   4.102  14.307  0.4668  1.9216  0.3730
 8711TIP3   OH247547   0.545   4.183  11.590  0.3880  0.3647  0.2638
 8711TIP3    H147548   0.605   4.115  11.561  0.2506  0.0475  0.7173
 8711TIP3    H247549   0.520   4.229  11.510  1.1891  0.4631  0.0699
 8712TIP3   OH247550   3.630   1.029   0.346  0.0620  0.0492 -0.0692
 8712TIP3    H147551   3.636   0.964   0.276 -1.7821  1.7535 -1.8766
 8712TIP3    H247552   3.703   1.009   0.404 -1.0826 -4.3238  0.0321
 8713TIP3   OH247553   6.291   2.680   3.958  0.2796 -0.4569 -1.1946
 8713TIP3    H147554   6.270   2.709   3.869  0.4841  0.9470 -0.8035
 8713TIP3    H247555   6.313   2.761   4.005 -2.0074 -0.8851  0.7410
 8714TIP3   OH247556   0.830   3.628  12.245  0.8601 -0.0829 -0.0473
 8714TIP3    H147557   0.898   3.566  12.271 -0.1574 -1.2937 -0.1980
 8714TIP3    H247558   0.776   3.579  12.182 -0.1723  0.8357  0.1039
 8715TIP3   OH247559   0.018   1.594   4.433  0.1037  0.2053  0.2327
 8715TIP3    H147560   0.034   1.686   4.414  0.1038  0.3246  0.8259
 8715TIP3    H247561   0.078   1.547   4.374 -0.1189  0.5703 -0.2897
 8716TIP3   OH247562   2.284   1.835   1.123 -0.0930 -0.5155 -0.2214
 8716TIP3    H147563   2.358   1.846   1.182  0.2950  0.3791 -0.8638
 8716TIP3    H247564   2.222   1.904   1.148  0.1463 -0.0237 -0.9536
 8717TIP3   OH247565   0.803   5.542  11.572  0.2599  0.4506 -0.5884
 8717TIP3    H147566   0.829   5.450  11.569  1.2860  0.7399 -0.6789
 8717TIP3    H247567   0.868   5.584  11.628 -1.0417  0.8546  0.6397
 8718TIP3   OH247568   4.849   6.359   3.522  1.0174 -0.0880 -0.3412
 8718TIP3    H147569   4.878   6.269   3.516  0.8724 -0.1592 -0.0154
 8718TIP3    H247570   4.794   6.361   3.600  1.5898  0.4377  0.0516
 8719TIP3   OH247571   5.773   6.437   3.542  0.5455  0.5884  0.0435
 8719TIP3    H147572   5.754   6.513   3.597 -0.4457 -0.3547  1.0381
 8719TIP3    H247573   5.779   6.364   3.604  1.4875 -0.1510 -0.8912
 8720TIP3   OH247574   6.130   2.285   4.442 -0.1252  0.3548 -0.0598
 8720TIP3    H147575   6.137   2.295   4.347  0.0017 -1.0033 -0.1994
 8720TIP3    H247576   6.161   2.196   4.459  1.5537  1.2014  1.4449
 8721TIP3   OH247577   5.014   2.863   3.702 -0.0831 -0.1816 -0.0603
 8721TIP3    H147578   5.056   2.935   3.750 -2.3297  0.2630  1.3073
 8721TIP3    H247579   4.977   2.905   3.624  1.7091 -0.5299 -1.1357
 8722TIP3   OH247580   2.999   2.158  13.854 -0.0436  0.4275  0.4007
 8722TIP3    H147581   3.088   2.192  13.845 -0.0678  0.3368 -0.2310
 8722TIP3    H247582   3.008   2.065  13.833 -0.0486  0.1221  1.7009
 8723TIP3   OH247583   0.710   3.693   1.628 -0.3634 -0.7790 -0.4473
 8723TIP3    H147584   0.670   3.693   1.541  0.0757 -1.5440 -0.6515
 8723TIP3    H247585   0.768   3.617   1.628 -1.5084 -1.6907  1.0403
 8724TIP3   OH247586   2.813   0.576   3.475  0.5745 -0.2767 -0.1570
 8724TIP3    H147587   2.730   0.541   3.441  0.4201 -1.5434  1.4360
 8724TIP3    H247588   2.877   0.508   3.455  0.5700 -0.8153  1.6268
 8725TIP3   OH247589   2.827   3.616   2.216 -0.0362 -0.1370 -0.2108
 8725TIP3    H147590   2.778   3.543   2.253  1.6091 -1.7587 -1.1767
 8725TIP3    H247591   2.763   3.663   2.163 -1.7254  0.6193  2.4116
 8726TIP3   OH247592   3.991   5.322  13.280 -0.2373  0.1274  0.3318
 8726TIP3    H147593   3.932   5.259  13.322 -0.3244  0.9027  1.4073
 8726TIP3    H247594   3.983   5.304  13.187  0.1220 -1.7948  0.6428
 8727TIP3   OH247595   0.979   6.188  17.178 -0.0133  0.7890 -0.6225
 8727TIP3    H147596   1.038   6.121  17.214 -0.3738  0.9925  0.3373
 8727TIP3    H247597   0.891   6.153  17.193 -0.1476  0.2510 -2.5089
 8728TIP3   OH247598   1.715   0.576   4.841 -0.7070  0.3457 -0.0249
 8728TIP3    H147599   1.669   0.493   4.827 -1.7922  0.5960  1.7912
 8728TIP3    H247600   1.774   0.584   4.767  0.6315 -2.8797  0.6039
 8729TIP3   OH247601   3.692   0.210  12.063 -0.0303  0.0438 -0.7249
 8729TIP3    H147602   3.751   0.263  12.117 -0.1114 -1.0890  0.4854
 8729TIP3    H247603   3.608   0.212  12.110 -0.1107 -0.9297 -0.8206
 8730TIP3   OH247604   2.151   3.746   1.795 -1.0895  0.3047 -0.5370
 8730TIP3    H147605   2.095   3.714   1.725  0.2814 -1.7047 -0.7648
 8730TIP3    H247606   2.106   3.824   1.829 -1.6627  1.4310 -3.7447
 8731TIP3   OH247607   6.650   5.114   4.229 -0.4249 -0.0645 -0.5770
 8731TIP3    H147608   6.623   5.055   4.159 -0.4151  0.1088 -0.7272
 8731TIP3    H247609   6.676   5.056   4.301  0.9653 -0.2668 -1.2329
 8732TIP3   OH247610   5.112   2.134  16.949 -0.1696  0.5583  0.0846
 8732TIP3    H147611   5.031   2.111  16.995  0.1467 -0.4266  0.1573
 8732TIP3    H247612   5.082   2.185  16.873 -0.7770  1.1309  0.6910
 8733TIP3   OH247613   5.939   6.089   3.976 -0.1247 -0.2292 -0.1572
 8733TIP3    H147614   5.952   6.039   3.895 -0.5433 -2.0428  0.8558
 8733TIP3    H247615   5.970   6.177   3.955 -0.4534 -0.6042 -2.3544
 8734TIP3   OH247616   1.958   3.087  14.681  0.1908  0.0469  0.3384
 8734TIP3    H147617   1.867   3.059  14.671 -0.1745  0.9304  1.1110
 8734TIP3    H247618   1.989   3.101  14.591 -0.1448 -1.1320  0.0285
 8735TIP3   OH247619   5.948   0.105   4.399  0.5213  0.1906  0.0490
 8735TIP3    H147620   5.993   0.025   4.425 -1.9882 -0.8652  1.3510
 8735TIP3    H247621   5.969   0.168   4.468 -0.0051 -0.2968  0.6563
 8736TIP3   OH247622   2.279   5.915  11.787 -0.4300 -0.1131 -0.0480
 8736TIP3    H147623   2.364   5.877  11.762 -0.0239  1.3374 -0.9378
 8736TIP3    H247624   2.277   5.907  11.883  0.6028 -0.3740 -0.0401
 8737TIP3   OH247625   0.503   4.460  13.362 -0.2351  0.1291 -0.7754
 8737TIP3    H147626   0.563   4.508  13.306 -1.9435  1.3096 -1.6387
 8737TIP3    H247627   0.468   4.525  13.423 -0.2075 -0.6596  0.1043
 8738TIP3   OH247628   6.594   1.038  12.396  0.3316 -1.0161  0.4840
 8738TIP3    H147629   6.640   1.116  12.364 -1.5149  0.2508  0.8134
 8738TIP3    H247630   6.582   0.984  12.319 -0.6954  0.2635 -0.2848
 8739TIP3   OH247631   2.127   3.601   0.189  0.3255 -0.0914 -0.2043
 8739TIP3    H147632   2.185   3.545   0.137 -0.4196 -1.5830  0.5114
 8739TIP3    H247633   2.173   3.610   0.273  0.3882  0.2536 -0.2785
 8740TIP3   OH247634   4.873   5.429  14.940  0.3964 -0.1454  0.2324
 8740TIP3    H147635   4.964   5.435  14.912  0.2388  0.8011 -0.0961
 8740TIP3    H247636   4.833   5.511  14.910 -0.7605 -0.9078 -0.3546
 8741TIP3   OH247637   4.934   2.051   0.598 -0.1713  0.2197 -0.4855
 8741TIP3    H147638   4.917   2.118   0.532 -2.0404  0.4602  0.2244
 8741TIP3    H247639   4.954   2.099   0.677 -0.0974 -0.0571 -0.3352
 8742TIP3   OH247640   2.989   1.304   4.045 -0.1136 -0.9689  0.3327
 8742TIP3    H147641   3.043   1.284   3.968  2.0198  3.3487  0.5308
 8742TIP3    H247642   2.899   1.291   4.016  0.7140 -0.5013 -2.5796
 8743TIP3   OH247643   0.899   1.915   2.350  0.8956 -0.2280  0.1451
 8743TIP3    H147644   0.888   1.884   2.260 -0.2248 -2.1426  0.8956
 8743TIP3    H247645   0.818   1.962   2.369  1.0672  0.0451  0.2046
 8744TIP3   OH247646   6.513   3.490  16.682  0.0366  0.4940  0.1760
 8744TIP3    H147647   6.440   3.477  16.743  0.6037 -2.1609  0.3545
 8744TIP3    H247648   6.551   3.574  16.707  0.1399 -0.4322  3.4099
 8745TIP3   OH247649   1.463   0.698   4.903 -0.5132 -0.1594 -0.2725
 8745TIP3    H147650   1.539   0.698   4.846 -0.7690 -0.3927 -0.6186
 8745TIP3    H247651   1.441   0.790   4.914  1.2645  0.0457  1.7849
 8746TIP3   OH247652   3.919   1.233   5.017 -0.3675  0.2825 -0.1900
 8746TIP3    H147653   3.900   1.326   5.006 -1.4568 -0.0849 -1.5376
 8746TIP3    H247654   4.015   1.227   5.012 -0.2481  1.4022  0.5968
 8747TIP3   OH247655   3.663   2.929   3.488 -0.0299 -0.1136 -0.2911
 8747TIP3    H147656   3.647   2.992   3.418  0.6348  0.1912 -0.1751
 8747TIP3    H247657   3.738   2.878   3.457 -0.5060 -0.7863 -0.3447
 8748TIP3   OH247658   1.173   0.737  11.592  0.3479 -0.0013  0.4650
 8748TIP3    H147659   1.080   0.736  11.613  0.2347 -0.2223 -0.0388
 8748TIP3    H247660   1.211   0.668  11.647  0.2420  0.1970  0.7872
 8749TIP3   OH247661   6.649   4.832   5.163  0.3255 -0.0013  0.4030
 8749TIP3    H147662   6.685   4.898   5.223  1.2294  0.2599 -0.4030
 8749TIP3    H247663   6.717   4.765   5.158 -0.0154 -0.3282  0.1680
 8750TIP3   OH247664   1.830   5.988  10.939 -0.1960 -0.0214 -0.1012
 8750TIP3    H147665   1.864   5.975  11.028 -1.0312 -1.0987  0.0787
 8750TIP3    H247666   1.799   6.079  10.939  0.6194  0.2614  0.4300
 8751TIP3   OH247667   3.746   0.468  12.850  0.2386 -0.2922  0.4316
 8751TIP3    H147668   3.719   0.417  12.773  2.8463 -0.7853 -0.2010
 8751TIP3    H247669   3.784   0.403  12.909 -0.5976  0.2764  1.6064
 8752TIP3   OH247670   6.018   4.070   5.816  0.4261 -0.9552 -0.0892
 8752TIP3    H147671   5.969   4.027   5.745  0.5713 -1.4700  0.1169
 8752TIP3    H247672   5.955   4.079   5.886 -0.3273  1.5837 -1.0656
 8753TIP3   OH247673   6.601   1.494   3.255 -0.4646 -1.4537  0.0940
 8753TIP3    H147674   6.620   1.498   3.161  0.4902  0.5637  0.3449
 8753TIP3    H247675   6.599   1.401   3.275  2.8713 -1.8953 -1.2591
 8754TIP3   OH247676   6.646   5.748  17.028  0.2189  0.5336  0.9058
 8754TIP3    H147677   6.654   5.677  17.091 -0.4496  0.5010  0.9547
 8754TIP3    H247678   6.699   5.721  16.953 -0.4054 -0.2167  0.7397
 8755TIP3   OH247679   1.107   0.111   4.954  0.2277 -0.0803  0.0395
 8755TIP3    H147680   1.193   0.147   4.972  0.6006 -0.9242 -0.0465
 8755TIP3    H247681   1.055   0.131   5.033  0.5208  0.3631  0.1171
 8756TIP3   OH247682   2.802   1.754   1.916 -0.8030 -0.3846  0.0346
 8756TIP3    H147683   2.725   1.726   1.868 -0.3575 -0.1277 -0.8467
 8756TIP3    H247684   2.830   1.677   1.966 -0.4403 -1.0873 -1.2245
 8757TIP3   OH247685   0.309   0.677  15.844  0.6098  0.4330  0.6387
 8757TIP3    H147686   0.290   0.768  15.866  0.2910  0.5697 -0.1684
 8757TIP3    H247687   0.234   0.648  15.792  0.3592 -0.5227  1.5233
 8758TIP3   OH247688   1.954   5.644  15.088  0.0865  0.0616  0.5982
 8758TIP3    H147689   1.987   5.662  15.000  1.1860  0.2155  1.0335
 8758TIP3    H247690   1.860   5.662  15.083  0.0688 -0.3725 -0.6590
 8759TIP3   OH247691   2.410   0.936   3.011 -0.1633 -0.4416  0.0029
 8759TIP3    H147692   2.480   0.939   2.945  1.3585 -0.1537  1.6010
 8759TIP3    H247693   2.357   1.014   2.993  0.8696  0.2227 -0.2132
 8760TIP3   OH247694   2.947   5.253  14.550  0.1055 -0.1363 -0.3984
 8760TIP3    H147695   2.866   5.301  14.568  0.8995  1.1659 -0.2660
 8760TIP3    H247696   2.941   5.230  14.458 -1.0636 -1.2939 -0.0529
 8761TIP3   OH247697   1.090   1.236  14.344  0.6933  0.0635 -0.9129
 8761TIP3    H147698   1.019   1.219  14.282  0.9176 -2.1225 -0.6069
 8761TIP3    H247699   1.160   1.177  14.317  1.6598  0.7694  0.0012
 8762TIP3   OH247700   1.970   2.531  16.598  0.0996  0.2773 -0.4850
 8762TIP3    H147701   2.054   2.528  16.644  0.1599  1.7253 -0.4716
 8762TIP3    H247702   1.963   2.446  16.554  0.5061 -0.7475  1.3751
 8763TIP3   OH247703   2.401   2.607   0.570 -0.3922  0.5577 -0.3731
 8763TIP3    H147704   2.308   2.624   0.552 -0.3075  0.6886 -0.6982
 8763TIP3    H247705   2.403   2.577   0.661 -0.5853  1.9812  0.1100
 8764TIP3   OH247706   5.386   6.740  15.749  0.2425 -0.0078  0.8020
 8764TIP3    H147707   5.327   6.791  15.804  0.0123  0.2083  0.3569
 8764TIP3    H247708   5.456   6.801  15.726  0.4939 -0.1834  1.0985
 8765TIP3   OH247709   4.512   2.882  17.102  0.0200 -0.0825  0.5812
 8765TIP3    H147710   4.490   2.839  17.184 -2.1631 -0.1138  0.0287
 8765TIP3    H247711   4.557   2.815  17.051  1.7560  0.0660  1.8942
 8766TIP3   OH247712   3.714   6.085  12.609  0.4778  0.3875 -0.0623
 8766TIP3    H147713   3.778   6.064  12.541  0.8607  2.1119 -0.2648
 8766TIP3    H247714   3.663   6.157  12.572  0.3197  0.9605  1.2418
 8767TIP3   OH247715   6.343   2.987  13.097 -0.1009 -0.2769 -0.1293
 8767TIP3    H147716   6.279   3.033  13.152  3.2109  2.2925  1.7257
 8767TIP3    H247717   6.354   2.902  13.141 -2.0649 -0.7124 -0.3993
 8768TIP3   OH247718   1.895   3.704  11.144  0.0743 -0.4005 -0.2782
 8768TIP3    H147719   1.828   3.767  11.120  0.4358 -0.6721 -2.1185
 8768TIP3    H247720   1.962   3.756  11.189 -0.0145  0.3891 -1.0424
 8769TIP3   OH247721   2.916   4.411   2.371 -0.9493 -0.0389  0.3229
 8769TIP3    H147722   2.977   4.337   2.372 -0.9420 -0.0305  2.3737
 8769TIP3    H247723   2.966   4.484   2.407 -1.4891  0.5611 -0.1211
 8770TIP3   OH247724   3.993   2.353   4.917 -0.0489 -0.1193  0.1455
 8770TIP3    H147725   3.930   2.291   4.880 -1.7369  1.7166 -0.1389
 8770TIP3    H247726   3.945   2.398   4.986  0.7922  1.6628 -0.3994
 8771TIP3   OH247727   4.492   5.148  13.142  0.2576  0.2111  0.1084
 8771TIP3    H147728   4.424   5.197  13.095  0.8956  1.5300  0.5232
 8771TIP3    H247729   4.545   5.109  13.073  0.2158  0.7791 -0.2484
 8772TIP3   OH247730   4.605   3.065  11.144  0.6006 -0.1186 -0.0972
 8772TIP3    H147731   4.555   2.992  11.180 -0.9388 -1.2359 -4.1685
 8772TIP3    H247732   4.555   3.143  11.169  0.8266 -0.6128  2.0235
 8773TIP3   OH247733   0.363   4.097  14.007 -0.3928  0.1479  0.0090
 8773TIP3    H147734   0.382   4.119  14.098  1.0356  0.4267 -0.3404
 8773TIP3    H247735   0.402   4.169  13.957 -1.2839  0.0678 -0.8173
 8774TIP3   OH247736   1.871   2.281   3.095 -0.4118 -0.0288  0.4766
 8774TIP3    H147737   1.888   2.372   3.071 -2.3741  0.2165 -0.0868
 8774TIP3    H247738   1.943   2.231   3.056 -0.4805  1.0269 -1.0122
 8775TIP3   OH247739   5.416   3.825   2.709 -0.1182 -0.1128  0.2110
 8775TIP3    H147740   5.428   3.920   2.700  0.6142 -0.1626  0.6093
 8775TIP3    H247741   5.324   3.811   2.689 -0.2301  0.6839  0.1260
 8776TIP3   OH247742   2.174   1.931  15.032  0.1844 -0.1282 -0.6395
 8776TIP3    H147743   2.113   1.910  14.961  1.0489 -0.6922 -1.2139
 8776TIP3    H247744   2.205   2.019  15.011 -3.0436  1.6470  1.4985
 8777TIP3   OH247745   0.970   2.189  14.519 -0.0236  0.0397  0.1984
 8777TIP3    H147746   0.882   2.151  14.512  0.0064 -0.1921  1.0797
 8777TIP3    H247747   0.992   2.183  14.612  1.5050 -1.1709 -0.2361
 8778TIP3   OH247748   6.619   1.586   1.354 -0.1653  0.0727 -0.6892
 8778TIP3    H147749   6.533   1.622   1.333  0.2722  0.6615 -1.4955
 8778TIP3    H247750   6.633   1.611   1.445  0.3427  2.4156 -1.3804
 8779TIP3   OH247751   2.282   1.129  16.132 -0.6989 -0.2769  0.6440
 8779TIP3    H147752   2.215   1.061  16.123 -0.9662  0.0853 -0.1507
 8779TIP3    H247753   2.275   1.158  16.223  0.7644 -2.7060  1.5618
 8780TIP3   OH247754   3.109   1.724   3.483  0.1493 -0.0766  0.2532
 8780TIP3    H147755   3.028   1.697   3.526  0.7151 -3.7702 -0.8643
 8780TIP3    H247756   3.163   1.759   3.553 -1.5245  0.2989  1.3859
 8781TIP3   OH247757   6.552   4.873  13.646 -0.6294  0.6205  0.7969
 8781TIP3    H147758   6.576   4.954  13.690  0.7354  1.3353 -1.1814
 8781TIP3    H247759   6.555   4.895  13.553 -0.6477 -1.5950  0.2506
 8782TIP3   OH247760   1.031   1.278   0.417 -0.0793  0.3603 -0.1797
 8782TIP3    H147761   1.037   1.184   0.436 -1.1357  0.3090 -0.0124
 8782TIP3    H247762   0.991   1.283   0.330  0.9297  0.6468 -0.6293
 8783TIP3   OH247763   4.247   2.245  16.733  0.1671 -0.0994 -0.1217
 8783TIP3    H147764   4.171   2.220  16.786 -0.3833  1.6259 -0.0891
 8783TIP3    H247765   4.210   2.290  16.658  1.0625 -0.9192 -1.0695
 8784TIP3   OH247766   5.676   1.971   0.475  0.3456  0.7832 -0.4699
 8784TIP3    H147767   5.700   2.048   0.424  0.6871  1.2409  0.3782
 8784TIP3    H247768   5.747   1.908   0.458  1.2803  1.5183  0.6982
 8785TIP3   OH247769   5.252   6.305  15.307 -0.0355  0.5698 -0.3589
 8785TIP3    H147770   5.265   6.391  15.347 -0.3478  0.1476  0.6928
 8785TIP3    H247771   5.333   6.287  15.260  0.3858  1.0484  0.1758
 8786TIP3   OH247772   2.662   4.276  17.182 -0.0241  0.0647 -0.0351
 8786TIP3    H147773   2.756   4.261  17.183 -0.2352 -1.4389 -0.9815
 8786TIP3    H247774   2.646   4.324  17.100 -0.3964 -2.0296 -1.2144
 8787TIP3   OH247775   1.121   3.900  14.685  0.4561 -0.1678  0.1656
 8787TIP3    H147776   1.208   3.936  14.700  0.0152  1.0890 -0.2145
 8787TIP3    H247777   1.124   3.813  14.723  1.5432  0.2834  1.1338
 8788TIP3   OH247778   0.630   4.793   2.259  0.1591 -0.4722  0.4072
 8788TIP3    H147779   0.536   4.778   2.263  0.3273 -1.4875  0.6241
 8788TIP3    H247780   0.664   4.752   2.339  0.6448  0.9519  0.9566
 8789TIP3   OH247781   3.473   5.195  12.992 -0.5362  0.0821  0.4449
 8789TIP3    H147782   3.536   5.249  13.040 -1.4502 -0.2369  2.0486
 8789TIP3    H247783   3.396   5.251  12.981 -0.4066  0.0862 -0.4841
 8790TIP3   OH247784   3.158   2.495  15.286 -0.2569 -0.3193  0.5176
 8790TIP3    H147785   3.167   2.403  15.309  0.1270 -0.6923 -1.1020
 8790TIP3    H247786   3.091   2.496  15.217  1.6981  0.2847 -1.4299
 8791TIP3   OH247787   3.260   6.780   1.584 -0.2408  0.7024 -0.0144
 8791TIP3    H147788   3.304   6.830   1.653 -0.1240  0.5707  0.0067
 8791TIP3    H247789   3.240   6.696   1.625  0.0392  0.5380 -0.2153
 8792TIP3   OH247790   2.375   6.475   1.254  0.0498  0.0346 -0.1254
 8792TIP3    H147791   2.442   6.455   1.188 -0.4752  0.5747 -0.8273
 8792TIP3    H247792   2.409   6.435   1.335  1.7134  1.1570 -0.2369
 8793TIP3   OH247793   4.950   4.773  15.631  0.3535 -0.1312 -0.1691
 8793TIP3    H147794   4.947   4.867  15.647 -0.2753 -0.2087  0.1517
 8793TIP3    H247795   4.919   4.764  15.541  0.3394 -0.0367 -0.1739
 8794TIP3   OH247796   5.572   5.472  15.868 -0.1321  0.3517  0.1953
 8794TIP3    H147797   5.506   5.481  15.799 -0.0787  0.6632  0.1836
 8794TIP3    H247798   5.568   5.555  15.916  0.6242  0.5851 -0.1392
 8795TIP3   OH247799   2.558   1.716   5.227  0.0586  0.0053  0.1547
 8795TIP3    H147800   2.491   1.766   5.273  0.0731  1.8740 -1.7367
 8795TIP3    H247801   2.633   1.716   5.286  0.4116  3.2096 -0.1997
 8796TIP3   OH247802   4.755   3.203   2.955 -0.4102 -0.5632 -0.1090
 8796TIP3    H147803   4.696   3.235   2.887 -0.3472  0.8936  0.4991
 8796TIP3    H247804   4.703   3.205   3.035  0.5626  1.1231  0.5003
 8797TIP3   OH247805   0.217   1.447   2.249 -0.1220  0.2142  0.1246
 8797TIP3    H147806   0.125   1.426   2.234 -0.3686  1.2891  0.0883
 8797TIP3    H247807   0.218   1.487   2.336  0.1525  1.1350 -0.2902
 8798TIP3   OH247808   2.041   0.896   4.546  0.0596  0.6896 -0.6648
 8798TIP3    H147809   2.043   0.970   4.485 -0.8885  1.5769  0.3529
 8798TIP3    H247810   2.036   0.937   4.632  1.4765 -0.5481  0.0208
 8799TIP3   OH247811   4.004   4.481   3.626  0.1592  0.5194 -0.5682
 8799TIP3    H147812   3.926   4.436   3.658  1.0333  0.4884  1.6372
 8799TIP3    H247813   3.969   4.552   3.571 -1.3006 -1.1759 -1.8906
 8800TIP3   OH247814   6.477   3.984   1.876 -0.1160 -0.5916 -0.9104
 8800TIP3    H147815   6.563   4.018   1.856  0.2918 -0.6450  0.6883
 8800TIP3    H247816   6.457   3.924   1.804  0.4654  0.6789 -2.1278
 8801TIP3   OH247817   3.989   5.095  14.800  0.3974 -0.1180  0.3373
 8801TIP3    H147818   3.953   5.010  14.826 -0.4290  0.3020  0.6011
 8801TIP3    H247819   3.919   5.137  14.750  1.6661 -0.5586 -1.8485
 8802TIP3   OH247820   5.717   2.033  13.218  0.1831  0.0356 -0.4219
 8802TIP3    H147821   5.684   2.021  13.129  0.9957  0.2640 -0.7565
 8802TIP3    H247822   5.652   1.989  13.273 -1.2091  1.3288 -0.9782
 8803TIP3   OH247823   5.846   1.382   2.779 -0.0152 -0.4295  0.0624
 8803TIP3    H147824   5.836   1.447   2.710 -1.6269 -0.9777 -0.2390
 8803TIP3    H247825   5.883   1.430   2.853  0.0801  0.5240 -0.5970
 8804TIP3   OH247826   2.582   3.780   2.511  0.4791  0.2631  0.0453
 8804TIP3    H147827   2.607   3.833   2.435 -0.7080 -0.4293 -0.8364
 8804TIP3    H247828   2.556   3.695   2.474  0.2787 -0.2217  1.2674
 8805TIP3   OH247829   2.177   3.454  10.896 -0.3254 -0.0178 -0.2169
 8805TIP3    H147830   2.256   3.401  10.902 -0.5946 -0.3291  0.7113
 8805TIP3    H247831   2.139   3.431  10.811  0.8663  0.5571 -0.9063
 8806TIP3   OH247832   4.186   1.251   3.259  0.5031 -0.0757  0.7480
 8806TIP3    H147833   4.095   1.273   3.238  0.7769 -1.2560 -1.8772
 8806TIP3    H247834   4.182   1.162   3.293  1.0182 -1.5137 -2.7775
 8807TIP3   OH247835   4.671   5.529   2.499 -0.3869  0.1812 -0.3736
 8807TIP3    H147836   4.587   5.547   2.457 -1.2905  0.1083  1.3260
 8807TIP3    H247837   4.699   5.615   2.533  0.1027  0.1641 -0.7412
 8808TIP3   OH247838   3.667   3.802   0.445  0.2464 -0.3368  0.4845
 8808TIP3    H147839   3.610   3.759   0.509  0.4092 -0.7698  0.3410
 8808TIP3    H247840   3.650   3.756   0.363 -0.4467  0.6550  0.0716
 8809TIP3   OH247841   5.745   1.852  11.042  0.8410  0.3839  0.5101
 8809TIP3    H147842   5.663   1.873  11.087 -0.3214 -0.5865 -1.1391
 8809TIP3    H247843   5.798   1.931  11.052  0.2636  0.5164  2.7988
 8810TIP3   OH247844   6.234   4.994  17.223 -0.1243 -0.1889 -0.2623
 8810TIP3    H147845   6.215   4.902  17.210 -0.1609  0.0469 -2.1142
 8810TIP3    H247846   6.149   5.038  17.216 -0.0382  0.0327  0.0725
 8811TIP3   OH247847   1.487   4.771  16.448  0.2484 -0.2606 -0.3000
 8811TIP3    H147848   1.557   4.709  16.426  1.0077  0.4096  0.1894
 8811TIP3    H247849   1.510   4.851  16.401 -0.1298 -0.0090 -0.0579
 8812TIP3   OH247850   3.538   1.448   1.407  0.0646  0.3214  0.1275
 8812TIP3    H147851   3.603   1.390   1.447 -2.0857 -0.0759  3.2707
 8812TIP3    H247852   3.581   1.533   1.403  2.0008 -0.6779 -1.1879
 8813TIP3   OH247853   6.744   4.429  11.176  0.3004 -0.1790  0.3325
 8813TIP3    H147854   6.752   4.334  11.172  0.2378 -0.1951  0.5765
 8813TIP3    H247855   6.649   4.444  11.175  0.3259 -0.0806 -0.6275
 8814TIP3   OH247856   5.551   0.008  10.992 -0.6803 -0.1721  0.0742
 8814TIP3    H147857   5.527  -0.041  11.070 -0.8196  0.2522  0.2996
 8814TIP3    H247858   5.642   0.034  11.007 -1.1333  1.1052  0.7282
 8815TIP3   OH247859   6.342   1.744  13.123 -0.0490 -0.3578  0.1437
 8815TIP3    H147860   6.268   1.697  13.085  0.1723  0.7110 -1.7024
 8815TIP3    H247861   6.375   1.687  13.192 -1.8642 -1.3658  0.2061
 8816TIP3   OH247862   0.200   6.303   3.958 -0.4254 -0.2979 -1.0038
 8816TIP3    H147863   0.152   6.241   4.013 -1.1607  0.2628 -1.0207
 8816TIP3    H247864   0.292   6.288   3.981 -0.6335 -1.0577 -0.6543
 8817TIP3   OH247865   6.425   5.415   1.296 -0.2752 -0.0321  0.2967
 8817TIP3    H147866   6.465   5.328   1.305 -0.2670  0.0359  0.9212
 8817TIP3    H247867   6.499   5.473   1.278 -0.6363 -0.6806 -3.7959
 8818TIP3   OH247868   4.218   1.551  12.606 -0.4747 -0.5513  0.1301
 8818TIP3    H147869   4.303   1.587  12.577 -0.5202 -0.4841  0.0787
 8818TIP3    H247870   4.226   1.546  12.701  0.7638 -3.5478 -0.0979
 8819TIP3   OH247871   0.495   4.496  12.747 -0.1857 -0.0086 -0.6485
 8819TIP3    H147872   0.447   4.475  12.828 -0.0053  1.2355 -0.2125
 8819TIP3    H247873   0.522   4.411  12.713  1.0379 -0.4909  1.4126
 8820TIP3   OH247874   0.021   6.294  17.167 -0.2398 -0.3564 -0.4016
 8820TIP3    H147875   0.074   6.344  17.229 -0.2832  1.0515 -1.4904
 8820TIP3    H247876  -0.017   6.360  17.109 -2.4694 -1.4232 -0.1906
 8821TIP3   OH247877   6.484   6.291   1.645 -0.4199 -0.6563 -0.1596
 8821TIP3    H147878   6.450   6.216   1.597  1.7193 -1.5111 -0.3956
 8821TIP3    H247879   6.502   6.257   1.733  0.6730 -0.4979 -0.3045
 8822TIP3   OH247880   5.282   1.833   6.891 -0.6033  0.7775 -0.3068
 8822TIP3    H147881   5.292   1.750   6.844  0.1882  0.2749  0.7183
 8822TIP3    H247882   5.277   1.900   6.823  0.8403  0.1007 -1.0867
 8823TIP3   OH247883   6.734   4.935   0.878  0.9754  0.0398  0.2288
 8823TIP3    H147884   6.744   4.855   0.929  0.1144 -0.6205 -0.6071
 8823TIP3    H247885   6.682   4.993   0.934 -2.5934 -1.7988 -1.0268
 8824TIP3   OH247886   1.929   4.385  12.914 -0.0375  0.3035  0.3498
 8824TIP3    H147887   1.864   4.315  12.913  3.5201 -3.1800  0.1726
 8824TIP3    H247888   1.917   4.431  12.831 -1.3702 -1.1874 -0.3021
 8825TIP3   OH247889   5.455   4.331   3.084  0.3284  0.9938  0.1648
 8825TIP3    H147890   5.467   4.255   3.142 -0.1759  0.1789 -0.7679
 8825TIP3    H247891   5.360   4.340   3.076  0.3916  0.9697 -0.6869
 8826TIP3   OH247892   5.544   3.507   5.165  0.4771  0.1588 -0.2357
 8826TIP3    H147893   5.603   3.466   5.101 -1.1488 -1.0783 -0.9659
 8826TIP3    H247894   5.535   3.597   5.136  0.0028 -0.3155 -1.5772
 8827TIP3   OH247895   6.251   2.565   0.865  0.3022  0.2832 -0.6378
 8827TIP3    H147896   6.269   2.479   0.903 -0.0801  0.0672 -0.9470
 8827TIP3    H247897   6.336   2.596   0.835  0.5905  0.4022  0.2835
 8828TIP3   OH247898   4.298   5.705   0.132 -0.0880 -0.2922  0.1243
 8828TIP3    H147899   4.215   5.662   0.153  0.0659 -1.8593 -2.2496
 8828TIP3    H247900   4.358   5.632   0.113  1.3308  0.8722  0.0591
 8829TIP3   OH247901   1.831   4.920   4.306  0.1814  0.2726 -0.2002
 8829TIP3    H147902   1.881   4.856   4.357 -1.1552 -0.1112  0.6517
 8829TIP3    H247903   1.742   4.915   4.341 -0.2608  1.5910 -1.0837
 8830TIP3   OH247904   2.577   1.470  13.339  0.3295 -0.4612 -0.2185
 8830TIP3    H147905   2.525   1.442  13.415  0.7068  0.3130  0.3338
 8830TIP3    H247906   2.608   1.389  13.300 -1.4487 -0.9484 -0.6610
 8831TIP3   OH247907   0.311   2.767  14.073  0.5055 -0.0281 -0.3415
 8831TIP3    H147908   0.319   2.826  13.998 -0.3245  0.2349 -0.2294
 8831TIP3    H247909   0.314   2.824  14.149  1.6256 -0.3223 -0.1557
 8832TIP3   OH247910   3.465   5.128   4.744 -0.3631  0.1437  0.7510
 8832TIP3    H147911   3.449   5.063   4.676  1.5612 -0.0225  0.4376
 8832TIP3    H247912   3.438   5.211   4.705  0.2870 -0.0167 -0.0597
 8833TIP3   OH247913   2.140   1.540   3.814  0.0657  0.7140 -0.1183
 8833TIP3    H147914   2.070   1.556   3.752 -0.0492  1.3698  0.1712
 8833TIP3    H247915   2.177   1.627   3.831  1.3968  0.2937 -0.7936
 8834TIP3   OH247916   0.280   3.606  16.166 -0.1730 -0.1243  0.2938
 8834TIP3    H147917   0.276   3.566  16.079 -0.6921  0.7719 -0.1035
 8834TIP3    H247918   0.275   3.532  16.227 -0.5269 -0.7044 -0.4334
 8835TIP3   OH247919   0.432   3.866  15.789  0.3551  0.0687  0.1045
 8835TIP3    H147920   0.345   3.847  15.755  0.4888 -1.5860  0.6190
 8835TIP3    H247921   0.430   3.959  15.810 -1.3850 -0.0231  0.4218
 8836TIP3   OH247922   0.275   4.616   0.832 -0.2020  0.2354 -0.3165
 8836TIP3    H147923   0.299   4.559   0.905 -2.5167  0.5113  0.7091
 8836TIP3    H247924   0.349   4.676   0.824  0.6549 -0.6011  0.9799
 8837TIP3   OH247925   3.042   1.653  13.506  0.8654 -0.4310 -0.1463
 8837TIP3    H147926   3.078   1.588  13.446 -1.4038 -1.1051 -0.7888
 8837TIP3    H247927   3.012   1.603  13.582  0.0586 -0.0181 -0.1901
 8838TIP3   OH247928   4.920   6.576  14.930 -0.1122 -0.1890  0.0395
 8838TIP3    H147929   4.929   6.504  14.868  0.8087 -3.3224  3.6422
 8838TIP3    H247930   4.842   6.555  14.981  1.1012  0.4532  2.2287
 8839TIP3   OH247931   5.516   6.679   4.854 -0.1281  0.6082  0.3192
 8839TIP3    H147932   5.506   6.671   4.759 -1.3252  0.2532  0.4658
 8839TIP3    H247933   5.549   6.768   4.868  0.5750  0.4763 -0.4576
 8840TIP3   OH247934   4.284   0.514   5.297 -0.7233  0.4116 -0.1616
 8840TIP3    H147935   4.195   0.537   5.269 -1.1775  1.0943  1.7534
 8840TIP3    H247936   4.288   0.419   5.288 -1.5045  0.4266 -0.6995
 8841TIP3   OH247937   6.029   5.325   5.734  0.1065  0.3431  0.0513
 8841TIP3    H147938   6.043   5.391   5.802  3.2691  0.1287 -0.2954
 8841TIP3    H247939   6.117   5.299   5.708 -1.0326 -0.0373 -3.7113
 8842TIP3   OH247940   1.017   1.722   3.647  0.4762 -0.6190 -0.1401
 8842TIP3    H147941   1.053   1.707   3.560 -2.4085  0.8445 -1.6738
 8842TIP3    H247942   0.954   1.651   3.660  0.3973 -0.4467  0.4355
 8843TIP3   OH247943   0.036   2.865  16.945 -0.1171  0.3666  0.7417
 8843TIP3    H147944  -0.013   2.891  16.867  0.1980 -1.9836 -0.3037
 8843TIP3    H247945   0.121   2.908  16.935  0.5718 -1.3394 -1.1821
 8844TIP3   OH247946   3.434   0.101  17.018  0.4823  0.3486 -0.2521
 8844TIP3    H147947   3.361   0.070  16.965  0.6402 -1.1353  0.3778
 8844TIP3    H247948   3.508   0.046  16.992  0.9735  0.7354  0.2938
 8845TIP3   OH247949   1.780   6.387  11.401  0.0817 -0.2086 -0.0558
 8845TIP3    H147950   1.864   6.364  11.442  0.0228  0.7780  0.6247
 8845TIP3    H247951   1.804   6.420  11.315  0.4272  0.4791  0.3037
 8846TIP3   OH247952   6.019   1.731   4.510  0.2076 -0.1535 -0.2028
 8846TIP3    H147953   6.113   1.746   4.517  0.5025 -2.5749  2.1779
 8846TIP3    H247954   6.007   1.692   4.423  1.9343 -2.8876  0.7143
 8847TIP3   OH247955   0.567   3.323   3.111  0.1215  0.0042  0.4344
 8847TIP3    H147956   0.500   3.338   3.045  1.0040 -0.8794 -0.6743
 8847TIP3    H247957   0.620   3.403   3.110 -1.3600  1.0637  1.9036
 8848TIP3   OH247958   0.976   2.224  13.713 -0.6688 -0.7794  0.0672
 8848TIP3    H147959   1.070   2.212  13.702 -0.9923 -1.6203 -2.1588
 8848TIP3    H247960   0.947   2.147  13.761  0.0470  0.4750  2.5984
 8849TIP3   OH247961   6.157   2.739   2.211  0.0717 -0.1845 -0.1953
 8849TIP3    H147962   6.212   2.676   2.257 -0.1248 -0.7858 -0.7753
 8849TIP3    H247963   6.203   2.755   2.128 -1.0062 -1.2865 -1.0260
 8850TIP3   OH247964   4.896   2.283  15.328  0.0582 -0.0964  0.0579
 8850TIP3    H147965   4.917   2.212  15.267 -0.9790  0.0975 -0.5367
 8850TIP3    H247966   4.806   2.267  15.354 -0.2275  1.0733 -0.1811
 8851TIP3   OH247967   6.060   1.172  12.408  0.2580  0.1158  0.1259
 8851TIP3    H147968   6.012   1.172  12.325  0.4050 -0.8850  0.0323
 8851TIP3    H247969   6.152   1.175  12.383  0.3631 -1.8320  0.1916
 8852TIP3   OH247970   4.685   1.154  13.979  0.8258 -0.2131  0.0632
 8852TIP3    H147971   4.656   1.208  14.053  0.9960 -0.8831  0.6234
 8852TIP3    H247972   4.609   1.149  13.921  0.8156  0.6475 -0.0071
 8853TIP3   OH247973   4.062   4.555  14.450  0.0226  0.0654 -0.0959
 8853TIP3    H147974   3.994   4.563  14.517 -0.1816  0.1968 -0.3186
 8853TIP3    H247975   4.030   4.609  14.377 -0.4135 -1.1800 -0.8299
 8854TIP3   OH247976   5.619   2.735   4.405  0.4261  0.5753  0.2134
 8854TIP3    H147977   5.563   2.659   4.390  0.4070  0.6662 -0.1910
 8854TIP3    H247978   5.704   2.698   4.432  0.8726  0.3540 -1.4500
 8855TIP3   OH247979   0.303   1.383   0.225  0.6275 -0.3034  0.2688
 8855TIP3    H147980   0.388   1.344   0.247  0.0944 -2.0200 -0.5999
 8855TIP3    H247981   0.240   1.334   0.279 -0.0863 -0.8859 -1.0664
 8856TIP3   OH247982   3.027   2.676   3.794 -0.8521  0.5282  0.1618
 8856TIP3    H147983   3.010   2.716   3.879 -1.6067 -0.5365  0.5254
 8856TIP3    H247984   2.940   2.670   3.752 -0.5781  0.4207 -0.3973
 8857TIP3   OH247985   2.994   0.893  10.824  0.2591 -0.2716 -0.0028
 8857TIP3    H147986   2.909   0.853  10.804  0.7276 -1.0664 -0.4283
 8857TIP3    H247987   3.015   0.863  10.912 -0.1276  0.3146  0.2878
 8858TIP3   OH247988   0.161   1.009   6.438  0.4962 -0.3250  0.0318
 8858TIP3    H147989   0.151   0.947   6.510 -0.6992  1.1189  1.1328
 8858TIP3    H247990   0.187   1.091   6.480  1.7669  0.0247 -1.3793
 8859TIP3   OH247991   0.263   2.482  15.727  0.0987  0.3013 -0.4312
 8859TIP3    H147992   0.311   2.483  15.645  2.4007 -0.9519  0.8192
 8859TIP3    H247993   0.302   2.553  15.778  2.7543 -2.4761  1.6528
 8860TIP3   OH247994   2.602   3.849  13.446  0.5441  0.2311 -0.0021
 8860TIP3    H147995   2.687   3.886  13.423  0.6308 -0.2510 -0.4507
 8860TIP3    H247996   2.607   3.835  13.541  0.6577  0.9960  0.1057
 8861TIP3   OH247997   4.430   3.917  14.033 -0.1808 -0.2665 -0.5497
 8861TIP3    H147998   4.466   3.880  13.953  0.6913  0.1836 -0.3632
 8861TIP3    H247999   4.433   4.012  14.020  2.3454 -0.0830  1.0310
 8862TIP3   OH248000   3.591   1.139   4.301  0.6818 -0.1456  0.4136
 8862TIP3    H148001   3.504   1.123   4.338  1.4851 -2.6953  1.3660
 8862TIP3    H248002   3.639   1.184   4.371  0.2377  0.9616  0.0111
 8863TIP3   OH248003   0.788   0.336  15.598  0.5120  0.4190 -0.1870
 8863TIP3    H148004   0.716   0.281  15.567  1.9930 -1.2908 -0.6495
 8863TIP3    H248005   0.774   0.421  15.556 -1.0977  0.0322 -0.4478
 8864TIP3   OH248006   3.378   2.991  12.658 -0.3596 -0.3245  0.4920
 8864TIP3    H148007   3.288   3.024  12.669  0.0876  0.5108  1.7583
 8864TIP3    H248008   3.406   3.027  12.574 -0.4419  1.2628  1.1216
 8865TIP3   OH248009   5.709   4.016  14.843  0.2911  0.0525 -0.1806
 8865TIP3    H148010   5.637   3.985  14.898 -1.6944  3.1421 -0.9045
 8865TIP3    H248011   5.788   3.988  14.889 -1.3402 -1.7086  1.6636
 8866TIP3   OH248012   2.515   2.552   0.299  0.0912  0.3531 -0.4272
 8866TIP3    H148013   2.556   2.466   0.309 -0.6063 -0.1214 -1.5959
 8866TIP3    H248014   2.471   2.567   0.384  0.2111 -0.4459 -0.2180
 8867TIP3   OH248015   4.240   4.275  12.025  0.2219 -0.7737 -0.0192
 8867TIP3    H148016   4.244   4.180  12.017 -1.2994 -0.9166  0.6639
 8867TIP3    H248017   4.161   4.300  11.976 -0.6168 -0.1076  1.6400
 8868TIP3   OH248018   3.371   5.409  17.210 -0.0334  0.6324  0.2002
 8868TIP3    H148019   3.353   5.380  17.120  0.4083 -1.8569  0.8766
 8868TIP3    H248020   3.286   5.406  17.253  0.1254 -0.2798  0.4442
 8869TIP3   OH248021   0.549   2.135  15.503 -1.0270  0.4400  0.4029
 8869TIP3    H148022   0.598   2.134  15.585 -1.6893  0.4005  0.8018
 8869TIP3    H248023   0.612   2.110  15.436 -0.5393  0.2646  0.9338
 8870TIP3   OH248024   4.191   0.378  15.236 -0.1311 -0.0339 -0.5140
 8870TIP3    H148025   4.131   0.437  15.283 -1.8698 -1.7797 -0.5164
 8870TIP3    H248026   4.254   0.437  15.194 -2.4119  1.9013 -1.3337
 8871TIP3   OH248027   2.561   6.134  16.689 -0.3468  0.1334  0.0904
 8871TIP3    H148028   2.577   6.058  16.633 -2.8399  1.2455 -2.2349
 8871TIP3    H248029   2.626   6.199  16.661  0.6710 -0.5009  0.9224
 8872TIP3   OH248030   5.772   2.544  17.117  0.0620  0.0107 -0.6365
 8872TIP3    H148031   5.787   2.638  17.118 -0.2706  0.0541  0.2495
 8872TIP3    H248032   5.721   2.529  17.037 -0.8027  0.7221 -0.2196
 8873TIP3   OH248033   6.116   4.173   0.759  0.1373 -0.1243 -0.2752
 8873TIP3    H148034   6.168   4.128   0.692  0.0475 -0.4524 -0.1294
 8873TIP3    H248035   6.026   4.168   0.726 -0.3131 -2.7624  1.1684
 8874TIP3   OH248036   0.128   3.186  11.532  0.3121  0.3676  0.1225
 8874TIP3    H148037   0.203   3.127  11.526  0.5122  0.4063  1.8832
 8874TIP3    H248038   0.154   3.250  11.598 -1.1718  0.5044  0.5910
 8875TIP3   OH248039   0.994   6.513   4.433 -0.1452  0.5713  0.4563
 8875TIP3    H148040   0.953   6.498   4.348 -0.2037 -0.0373  0.5872
 8875TIP3    H248041   1.001   6.425   4.472  0.5559  0.7584  0.7635
 8876TIP3   OH248042   1.261   0.509   2.960  0.1101 -0.0477 -0.1822
 8876TIP3    H148043   1.211   0.570   2.905 -0.5765 -1.4687 -1.1495
 8876TIP3    H248044   1.352   0.539   2.952 -0.3815  1.6697  0.4444
 8877TIP3   OH248045   0.582   0.035  15.966  0.0845  0.3097 -0.2288
 8877TIP3    H148046   0.552  -0.042  15.916  0.8984 -0.2274  0.1077
 8877TIP3    H248047   0.514   0.100  15.951 -1.0102 -0.7388  0.1197
 8878TIP3   OH248048   6.505   5.216   3.410 -0.1009  0.2044  0.3378
 8878TIP3    H148049   6.584   5.239   3.361  0.1286  1.1184  1.1269
 8878TIP3    H248050   6.520   5.251   3.498 -1.4633  0.5665  0.4387
 8879TIP3   OH248051   6.006   6.486  15.289 -0.3050 -0.3574 -0.0915
 8879TIP3    H148052   5.973   6.559  15.237  0.9612  1.2953  1.3571
 8879TIP3    H248053   6.084   6.456  15.242 -1.3582 -1.4058 -1.1897
 8880TIP3   OH248054   0.705   6.570  14.667 -0.4510 -0.3308  0.0990
 8880TIP3    H148055   0.618   6.591  14.634  0.5685  0.4205 -2.2233
 8880TIP3    H248056   0.751   6.534  14.591  0.9683 -1.6477  1.5385
 8881TIP3   OH248057   3.445   0.553   0.664  0.5828 -0.1268  0.3778
 8881TIP3    H148058   3.444   0.465   0.627  0.1362  0.3809 -0.8362
 8881TIP3    H248059   3.393   0.546   0.744 -0.9650 -0.5717 -0.6487
 8882TIP3   OH248060   5.371   5.115   6.549  0.6547  0.4960 -0.5637
 8882TIP3    H148061   5.453   5.071   6.528  0.7970  0.0161  0.9558
 8882TIP3    H248062   5.385   5.205   6.519  1.1699  0.0574 -1.6787
 8883TIP3   OH248063   3.944   5.861   5.838 -0.3511 -0.2426  0.0837
 8883TIP3    H148064   3.941   5.930   5.772 -1.7165 -1.6588 -1.3729
 8883TIP3    H248065   3.883   5.795   5.807  0.8958 -2.1129  1.4762
 8884TIP3   OH248066   1.066   1.625   5.310  0.6363 -0.0542 -0.0463
 8884TIP3    H148067   1.105   1.538   5.320 -0.1813 -0.5724 -1.1456
 8884TIP3    H248068   0.988   1.609   5.257  1.2768  1.5789 -1.4985
 8885TIP3   OH248069   3.789   0.404   3.051  0.2220  0.1288  0.1665
 8885TIP3    H148070   3.779   0.332   2.989  0.6319  0.1529  0.0676
 8885TIP3    H248071   3.868   0.382   3.101  0.8204  0.9228 -0.4259
 8886TIP3   OH248072   5.093   6.459   1.769 -0.2817 -0.0451  0.2735
 8886TIP3    H148073   5.100   6.542   1.815 -2.0785 -0.5980  1.6359
 8886TIP3    H248074   5.078   6.483   1.678 -0.7711  1.1322  0.6577
 8887TIP3   OH248075   6.693   0.265  14.076  0.1685 -0.7064 -0.2780
 8887TIP3    H148076   6.767   0.214  14.108  0.9190 -1.8248 -3.6347
 8887TIP3    H248077   6.732   0.341  14.034 -0.6348 -0.7924 -1.1884
 8888TIP3   OH248078   0.611   2.472  13.269  0.3624  0.6965 -0.0998
 8888TIP3    H148079   0.550   2.400  13.257  1.6646 -0.1677 -1.7178
 8888TIP3    H248080   0.555   2.549  13.284 -1.0443 -0.5054  0.9736
 8889TIP3   OH248081   3.600   0.281   2.671  0.1048  0.0033 -0.3820
 8889TIP3    H148082   3.674   0.238   2.714 -0.1215 -2.5095 -2.4128
 8889TIP3    H248083   3.641   0.337   2.604  0.2379 -0.2758 -0.5363
 8890TIP3   OH248084   3.550   5.635  12.929  0.4138  0.4015  0.0849
 8890TIP3    H148085   3.481   5.701  12.938  0.1583 -0.1437  2.2388
 8890TIP3    H248086   3.552   5.616  12.835  0.2534  3.1991 -0.5447
 8891TIP3   OH248087   1.322   1.117  16.896  0.2839 -0.4693  0.1685
 8891TIP3    H148088   1.373   1.122  16.816  2.2626  0.6380  1.4788
 8891TIP3    H248089   1.304   1.208  16.920  2.2585 -0.6606  2.5585
 8892TIP3   OH248090   3.060   6.268  15.066 -0.0499 -0.0394 -0.7031
 8892TIP3    H148091   3.037   6.246  15.157  1.4867  0.1723 -0.2589
 8892TIP3    H248092   3.125   6.337  15.074 -1.9759  1.9877 -2.0279
 8893TIP3   OH248093   4.320   6.293   2.592  0.0307 -0.0838 -0.1556
 8893TIP3    H148094   4.296   6.346   2.668  0.5174 -0.3186  0.1654
 8893TIP3    H248095   4.377   6.224   2.627  2.4704  1.3827 -1.1225
 8894TIP3   OH248096   5.109   6.278  13.809  0.3695  0.1820  0.3476
 8894TIP3    H148097   5.051   6.311  13.877 -1.1198  1.9457 -1.6971
 8894TIP3    H248098   5.192   6.324  13.823  0.5749 -0.6146  1.8669
 8895TIP3   OH248099   3.659   2.865  13.151  0.8725  0.0109  0.0309
 8895TIP3    H148100   3.609   2.827  13.223 -0.6018  2.1830  0.2045
 8895TIP3    H248101   3.637   2.811  13.075 -0.9725  0.2929  0.3318
 8896TIP3   OH248102   0.713   1.052   1.959  0.3570  0.0495  0.5683
 8896TIP3    H148103   0.757   1.079   2.039  0.2562 -0.3955  0.7711
 8896TIP3    H248104   0.740   0.961   1.946  1.1017  0.3907 -0.3934
 8897TIP3   OH248105   0.139   5.188  12.865  0.5164 -0.0649  0.0213
 8897TIP3    H148106   0.081   5.249  12.910  2.9166  0.8166  2.0273
 8897TIP3    H248107   0.179   5.241  12.796  0.1462 -0.2511 -0.3377
 8898TIP3   OH248108   0.413   6.222   5.613 -0.2266  0.0033  0.4398
 8898TIP3    H148109   0.377   6.241   5.700  1.2543 -1.0382  1.3069
 8898TIP3    H248110   0.508   6.223   5.625  0.0226  0.9863 -1.4345
 8899TIP3   OH248111   1.462   1.623   5.513 -0.0041  0.2685 -0.7616
 8899TIP3    H148112   1.554   1.609   5.537 -0.7356 -0.3530  1.8750
 8899TIP3    H248113   1.458   1.714   5.485  1.6164 -0.0123 -1.9855
 8900TIP3   OH248114   4.954   5.771  14.170 -0.5630 -0.1141 -0.2619
 8900TIP3    H148115   5.049   5.778  14.160 -0.8136  0.7903 -2.0980
 8900TIP3    H248116   4.928   5.704  14.107 -1.2945  0.5857 -0.7137
 8901TIP3   OH248117   0.744   2.832   4.873 -0.1164 -0.3900 -0.1450
 8901TIP3    H148118   0.807   2.899   4.847  0.8133 -1.1294  0.1832
 8901TIP3    H248119   0.680   2.879   4.926  1.6505 -0.1072  1.8212
 8902TIP3   OH248120   5.675   4.448   3.664  0.2999 -0.3304 -0.3289
 8902TIP3    H148121   5.631   4.410   3.741 -2.6729  0.9045 -1.3757
 8902TIP3    H248122   5.608   4.452   3.597  1.3019  3.9328 -1.2392
 8903TIP3   OH248123   3.886   3.985  13.580 -0.3031 -0.6540  0.2197
 8903TIP3    H148124   3.858   4.065  13.624 -1.1974 -0.5871 -0.4464
 8903TIP3    H248125   3.817   3.922  13.598 -0.3700 -0.8111 -0.5452
 8904TIP3   OH248126   5.629   4.992  13.394  0.6553 -0.3007 -0.3591
 8904TIP3    H148127   5.689   5.058  13.429  0.1101 -1.1932  2.3397
 8904TIP3    H248128   5.678   4.910  13.398  0.5503 -0.4424 -1.6582
 8905TIP3   OH248129   2.491   6.438   0.601 -0.0517 -0.4406 -0.3673
 8905TIP3    H148130   2.405   6.399   0.587 -0.5277  0.4884 -0.0868
 8905TIP3    H248131   2.500   6.503   0.532 -0.6373  1.1999  1.0518
 8906TIP3   OH248132   3.197   0.974  13.612 -0.2264  0.0345 -0.5145
 8906TIP3    H148133   3.163   0.979  13.523  2.0679  2.1786 -1.3313
 8906TIP3    H248134   3.174   1.058  13.651 -0.4074 -0.5311  0.6272
 8907TIP3   OH248135   2.596   0.923   4.050  0.8087  0.1822 -0.1668
 8907TIP3    H148136   2.678   0.879   4.028  0.2678 -0.4917 -0.9056
 8907TIP3    H248137   2.545   0.919   3.969 -1.0689 -1.9558  1.0572
 8908TIP3   OH248138   4.443   3.509   1.787  0.5540 -0.4526  0.1252
 8908TIP3    H148139   4.460   3.509   1.692  1.0428  0.9730  0.2082
 8908TIP3    H248140   4.355   3.547   1.795  0.2334 -1.1848  0.2194
 8909TIP3   OH248141   2.169   0.904  13.867  0.6212  0.0544 -0.2196
 8909TIP3    H148142   2.149   0.811  13.865  0.3182  0.1434 -1.1840
 8909TIP3    H248143   2.097   0.946  13.821  2.0789  0.5307 -2.1068
 8910TIP3   OH248144   0.823   1.067   5.934 -0.2344 -0.0347 -0.3050
 8910TIP3    H148145   0.874   1.148   5.932 -0.0711 -0.1004  0.8652
 8910TIP3    H248146   0.863   1.016   6.004 -0.4147 -1.0757 -0.9571
 8911TIP3   OH248147   1.612   0.379  13.940 -0.4052 -0.1799 -0.1755
 8911TIP3    H148148   1.592   0.460  13.894  0.6435  0.1492 -0.0764
 8911TIP3    H248149   1.570   0.389  14.026 -0.9478 -0.0880 -0.4498
 8912TIP3   OH248150   2.802   6.201  11.188  0.2251 -0.1085  0.0554
 8912TIP3    H148151   2.709   6.214  11.205 -0.0349 -1.2183 -0.4378
 8912TIP3    H248152   2.822   6.257  11.114  0.1826  0.8888  0.7946
 8913TIP3   OH248153   5.736   1.521   6.610 -0.4666  0.7747 -0.0252
 8913TIP3    H148154   5.712   1.432   6.581 -2.1076  1.7283 -1.7028
 8913TIP3    H248155   5.821   1.510   6.652 -1.2773 -1.8259  1.0330
 8914TIP3   OH248156   1.125   4.747   2.014  0.4287  0.2166 -0.0661
 8914TIP3    H148157   1.156   4.657   2.028  0.7614  0.1256 -1.3115
 8914TIP3    H248158   1.086   4.772   2.098  1.2958 -0.7056  0.6310
 8915TIP3   OH248159   3.949   0.708  12.640 -0.4529 -0.5152  0.1466
 8915TIP3    H148160   3.937   0.747  12.553 -0.9700  1.9151  1.2560
 8915TIP3    H248161   4.043   0.718  12.657 -0.3007 -1.2490 -0.2318
 8916TIP3   OH248162   0.749   5.230   4.109  0.2837 -0.2024 -0.0630
 8916TIP3    H148163   0.742   5.135   4.106 -0.1607 -0.2139  1.2445
 8916TIP3    H248164   0.783   5.254   4.023 -2.3278 -1.3095 -1.4477
 8917TIP3   OH248165   2.204   2.070  13.865 -0.5703  0.6361 -0.0349
 8917TIP3    H148166   2.246   2.156  13.865  1.2313 -0.2091 -0.9670
 8917TIP3    H248167   2.225   2.033  13.951  0.4513  0.3015 -0.4187
 8918TIP3   OH248168   5.910   0.552  11.506  0.5402  0.0982 -0.1405
 8918TIP3    H148169   5.881   0.552  11.597  1.1302  0.9887  0.0507
 8918TIP3    H248170   5.963   0.473  11.498  1.2771  0.5164  0.5456
 8919TIP3   OH248171   4.543   4.534  16.012  0.2252  0.5188 -0.0464
 8919TIP3    H148172   4.638   4.536  15.998  0.1577 -0.4974 -0.6772
 8919TIP3    H248173   4.510   4.609  15.962  0.7060  0.9805  0.3169
 8920TIP3   OH248174   2.919   4.725  12.205  0.0464 -0.1175  0.5248
 8920TIP3    H148175   2.865   4.694  12.278  0.5648 -0.0071  0.9582
 8920TIP3    H248176   2.953   4.809  12.234 -0.6021  0.4244 -0.2775
 8921TIP3   OH248177   0.119   2.020  10.906 -0.4619  0.2998 -0.2870
 8921TIP3    H148178   0.028   2.041  10.883 -1.0744 -2.5889 -0.6466
 8921TIP3    H248179   0.159   2.105  10.922 -2.6354  1.7738 -2.3116
 8922TIP3   OH248180   5.913   5.732  13.161  0.4904  0.4002 -0.0863
 8922TIP3    H148181   5.858   5.793  13.210  0.2317  0.9702 -1.0574
 8922TIP3    H248182   5.878   5.645  13.183 -1.0894  0.7817 -1.0200
 8923TIP3   OH248183   3.583   3.546   0.160 -0.5917 -0.0575 -0.2965
 8923TIP3    H148184   3.604   3.553   0.253 -1.5955 -1.1629  0.0247
 8923TIP3    H248185   3.518   3.615   0.145 -1.8889 -1.1402  0.2709
 8924TIP3   OH248186   1.850   6.061  12.452 -0.5352 -0.4539 -0.4212
 8924TIP3    H148187   1.767   6.103  12.429 -0.7592 -0.3049  0.6345
 8924TIP3    H248188   1.917   6.126  12.432 -0.9544  0.8659  2.2490
 8925TIP3   OH248189   4.817   3.916  12.024 -0.3475  0.3392 -0.3723
 8925TIP3    H148190   4.834   3.827  12.052 -1.0898 -0.0963 -1.2748
 8925TIP3    H248191   4.834   3.916  11.930 -0.5620  1.0856 -0.4190
 8926TIP3   OH248192   6.469   5.741   1.110  0.0957 -0.2461 -0.3658
 8926TIP3    H148193   6.527   5.666   1.096  1.2612  0.0688  2.4028
 8926TIP3    H248194   6.380   5.704   1.108  0.6609 -1.7240  0.8967
 8927TIP3   OH248195   1.214   5.500   0.356 -0.0302  0.0021 -0.7691
 8927TIP3    H148196   1.305   5.509   0.328  0.2928 -0.8621 -0.0119
 8927TIP3    H248197   1.166   5.483   0.276  0.3156  1.5152 -1.3263
 8928TIP3   OH248198   4.273   4.586   0.215  0.0401  0.5758 -0.1280
 8928TIP3    H148199   4.326   4.542   0.281  0.8435  0.3720 -0.9039
 8928TIP3    H248200   4.287   4.535   0.135  0.9490  2.2181 -1.0317
 8929TIP3   OH248201   5.466   6.010  13.147  0.0262  0.1329  0.7714
 8929TIP3    H148202   5.471   6.103  13.123  0.4229  0.3193  1.5612
 8929TIP3    H248203   5.482   5.964  13.065 -0.1947  0.7612  0.3664
 8930TIP3   OH248204   0.109   1.479  12.284  0.6618  0.1122  0.0752
 8930TIP3    H148205   0.164   1.426  12.341  0.0513 -0.4603  0.1423
 8930TIP3    H248206   0.130   1.448  12.195  1.0032  0.4254  0.0460
 8931TIP3   OH248207   4.355   2.258   3.825 -0.1374 -0.1077 -0.5999
 8931TIP3    H148208   4.354   2.330   3.888 -1.4621 -0.7711  0.1654
 8931TIP3    H248209   4.311   2.186   3.870  0.7632 -1.2708 -1.5159
 8932TIP3   OH248210   0.187   1.424  12.727 -0.5468 -0.0180 -0.6473
 8932TIP3    H148211   0.253   1.465  12.673 -1.0755  0.2281 -1.1091
 8932TIP3    H248212   0.122   1.493  12.743  0.9278  0.7284  2.5522
 8933TIP3   OH248213   1.523   6.423   1.685  0.2815  0.3029 -0.1587
 8933TIP3    H148214   1.574   6.403   1.607  1.0948  2.7432 -0.2981
 8933TIP3    H248215   1.565   6.501   1.722  0.6600 -1.5138  3.4301
 8934TIP3   OH248216   1.968   5.857  13.747  0.3449 -0.3688  0.1462
 8934TIP3    H148217   1.942   5.788  13.808  0.2314 -1.6282 -1.3121
 8934TIP3    H248218   1.932   5.937  13.785 -0.0393 -1.1795  1.5378
 8935TIP3   OH248219   0.021   6.323   4.172  0.3606 -0.3949 -0.2926
 8935TIP3    H148220   0.068   6.252   4.217  2.1765  0.8535 -0.1394
 8935TIP3    H248221  -0.070   6.310   4.196  0.9779 -1.2400  1.7331
 8936TIP3   OH248222   2.236   0.391  16.623  1.2935 -0.2318  0.5626
 8936TIP3    H148223   2.292   0.428  16.555  1.6879 -0.1640  0.9178
 8936TIP3    H248224   2.249   0.448  16.699 -0.6301  0.8299  0.1235
 8937TIP3   OH248225   3.517   0.826   6.496 -0.2484 -0.7095 -0.3252
 8937TIP3    H148226   3.584   0.768   6.460  0.4802 -0.3394  0.4381
 8937TIP3    H248227   3.504   0.796   6.586 -1.6842 -1.2877 -0.7022
 8938TIP3   OH248228   2.917   5.009  13.569 -0.2454 -0.2370 -0.0489
 8938TIP3    H148229   3.001   4.966  13.557  0.9870  1.1978  2.8563
 8938TIP3    H248230   2.874   4.960  13.640 -0.8963  0.3553 -0.0265
 8939TIP3   OH248231   5.023   5.734  16.490 -0.2929 -0.2047 -0.1798
 8939TIP3    H148232   5.064   5.720  16.405 -0.3580  1.0292 -0.4294
 8939TIP3    H248233   4.982   5.650  16.511  2.9156 -1.7074  0.4093
 8940TIP3   OH248234   4.417   6.097   1.684  0.2690  0.2527  0.0850
 8940TIP3    H148235   4.468   6.176   1.705  0.7240 -0.4001  1.4857
 8940TIP3    H248236   4.481   6.038   1.645 -0.5039  1.3342 -2.9554
 8941TIP3   OH248237   0.744   6.237  12.992  0.1332  0.1163  0.5352
 8941TIP3    H148238   0.770   6.292  13.067 -0.0742 -0.0726  0.7465
 8941TIP3    H248239   0.676   6.180  13.027  1.2206 -1.1470  0.6603
 8942TIP3   OH248240   0.069   1.214  12.444 -0.2476 -0.4075  0.0832
 8942TIP3    H148241   0.006   1.213  12.516  1.6984  0.5479  1.8439
 8942TIP3    H248242   0.039   1.286  12.388 -2.8972 -2.3985 -1.1536
 8943TIP3   OH248243   0.417   4.710  12.026 -0.3541  0.3951  0.2363
 8943TIP3    H148244   0.424   4.736  11.934  1.9505  1.0496  0.5716
 8943TIP3    H248245   0.428   4.615  12.025 -0.9684  0.3227 -0.2079
 8944TIP3   OH248246   5.874   3.111   1.818  1.0547 -0.4091 -0.2143
 8944TIP3    H148247   5.861   3.125   1.724  0.6121  0.4795 -0.0204
 8944TIP3    H248248   5.943   3.045   1.822 -0.1732 -1.7940 -1.1937
 8945TIP3   OH248249   6.307   2.021  13.329  0.7198  0.1552  0.0045
 8945TIP3    H148250   6.245   1.950  13.346  0.8626 -0.3546 -1.5349
 8945TIP3    H248251   6.393   1.980  13.337  0.8935  0.9180  2.3803
 8946TIP3   OH248252   5.162   5.450  11.569  0.3402  0.0939  0.2362
 8946TIP3    H148253   5.145   5.381  11.505 -2.5296  0.6675  0.2963
 8946TIP3    H248254   5.189   5.525  11.516  2.2793 -0.6877  0.0785
 8947TIP3   OH248255   4.737   1.200  16.687 -0.1303 -0.1714 -0.5215
 8947TIP3    H148256   4.657   1.247  16.710 -0.4461 -0.4848 -0.9776
 8947TIP3    H248257   4.777   1.178  16.772 -2.5383 -3.4543 -0.1251
 8948TIP3   OH248258   3.278   0.257   4.187 -0.4340  0.5655 -0.0864
 8948TIP3    H148259   3.299   0.348   4.166  1.0747  0.9152  2.7326
 8948TIP3    H248260   3.254   0.259   4.280 -1.9999 -1.6651 -0.4110
 8949TIP3   OH248261   4.555   5.543  16.972  0.5178 -0.5332  0.1624
 8949TIP3    H148262   4.571   5.458  16.931 -2.2364 -1.1511  0.3042
 8949TIP3    H248263   4.643   5.579  16.988  1.6774 -2.4468 -1.7287
 8950TIP3   OH248264   1.708   4.599   0.702 -0.0286 -0.0196  0.4940
 8950TIP3    H148265   1.704   4.543   0.625 -2.6465 -0.5536  0.9883
 8950TIP3    H248266   1.802   4.604   0.723  0.4461 -2.2573 -0.9725
 8951TIP3   OH248267   2.662   6.221  11.489 -0.1620 -0.2223 -0.0021
 8951TIP3    H148268   2.663   6.269  11.406  2.8808  0.6745  0.5231
 8951TIP3    H248269   2.621   6.282  11.551  0.4899  0.3620 -0.1353
 8952TIP3   OH248270   2.075   0.636  15.049 -0.0844  0.3224 -0.0772
 8952TIP3    H148271   2.091   0.560  14.992  0.3626 -0.6956  1.3744
 8952TIP3    H248272   2.163   0.666  15.073 -0.2733 -0.0174  1.0596
 8953TIP3   OH248273   6.172   1.521   0.321  0.0084  0.2832  1.0154
 8953TIP3    H148274   6.256   1.566   0.309  0.1523 -0.3624 -0.4510
 8953TIP3    H248275   6.130   1.527   0.236  0.2091 -2.7390  0.6607
 8954TIP3   OH248276   0.323   3.558  15.898 -0.6207  0.1156 -0.0210
 8954TIP3    H148277   0.334   3.497  15.825 -2.1776  1.6638 -1.5817
 8954TIP3    H248278   0.410   3.598  15.907 -0.1616 -0.7648 -0.3976
 8955TIP3   OH248279   5.014   6.393   2.781  0.3545 -0.0624 -0.0060
 8955TIP3    H148280   5.098   6.413   2.824 -0.4910  0.3814  1.4979
 8955TIP3    H248281   5.031   6.313   2.731  1.8380  0.3685 -0.2273
 8956TIP3   OH248282   4.908   0.719   2.949  0.1346  0.2585  0.3527
 8956TIP3    H148283   4.977   0.778   2.981  0.3272 -1.1163  2.5312
 8956TIP3    H248284   4.866   0.686   3.028 -0.9379 -1.3986 -0.8867
 8957TIP3   OH248285   3.819   6.337   1.649  0.4032  0.1807 -0.3763
 8957TIP3    H148286   3.868   6.417   1.667 -0.3960  0.6178 -0.1067
 8957TIP3    H248287   3.842   6.314   1.559  0.3721  0.9096 -0.5738
 8958TIP3   OH248288   1.783   3.790  14.295  0.2651  0.3684  0.1053
 8958TIP3    H148289   1.770   3.701  14.261  0.4391  0.0877  0.7656
 8958TIP3    H248290   1.703   3.810  14.342  0.6965  0.1005  0.9626
 8959TIP3   OH248291   5.991   0.495  16.127 -0.8222 -0.3846 -0.0888
 8959TIP3    H148292   6.022   0.586  16.119 -0.3802 -0.6276 -1.1868
 8959TIP3    H248293   5.902   0.504  16.160 -1.0926  0.4912 -1.0245
 8960TIP3   OH248294   2.979   3.076   2.236  0.1716 -0.3588 -0.0715
 8960TIP3    H148295   2.884   3.084   2.242  0.1252 -0.0108 -1.1905
 8960TIP3    H248296   3.010   3.097   2.324 -0.9307 -2.9015  1.0007
 8961TIP3   OH248297   4.518   4.220   2.322  0.6022  0.1103  0.1340
 8961TIP3    H148298   4.440   4.231   2.378 -0.8490 -1.2222 -1.5605
 8961TIP3    H248299   4.547   4.131   2.339 -0.7893 -0.8602 -2.3372
 8962TIP3   OH248300   5.803   5.718   5.266 -0.4088  0.7637  0.3903
 8962TIP3    H148301   5.708   5.706   5.262 -0.4862  1.5854 -0.4006
 8962TIP3    H248302   5.828   5.683   5.352 -1.4686  0.8932  0.7604
 8963TIP3   OH248303   6.073   2.013  12.854 -0.5413  0.1821  0.6601
 8963TIP3    H148304   6.132   1.977  12.788  1.8069  1.6363  1.9215
 8963TIP3    H248305   6.042   2.095  12.817 -0.7689  0.0593  0.5703
 8964TIP3   OH248306   3.111   2.219   4.831  0.4707  0.2719 -0.9258
 8964TIP3    H148307   3.022   2.184   4.825  0.5838 -0.1801 -0.1304
 8964TIP3    H248308   3.161   2.171   4.765  0.1473  0.4344 -1.2850
 8965TIP3   OH248309   2.831   4.732  14.987 -0.0689  0.1525 -0.2787
 8965TIP3    H148310   2.781   4.740  15.069 -0.8080  1.6069 -0.8425
 8965TIP3    H248311   2.868   4.820  14.974  0.5065 -0.2261 -1.2186
 8966TIP3   OH248312   2.680   1.058   5.412  0.3134  0.7167 -0.5041
 8966TIP3    H148313   2.698   0.983   5.468 -0.7032  0.7344 -0.1489
 8966TIP3    H248314   2.738   1.046   5.336  0.0652 -0.4809 -0.5090
 8967TIP3   OH248315   6.301   5.644  11.204  0.9556 -0.1820 -0.3438
 8967TIP3    H148316   6.237   5.662  11.273  0.5010 -0.0960 -0.7838
 8967TIP3    H248317   6.265   5.570  11.156  1.4694 -0.5003 -0.2439
 8968TIP3   OH248318   4.590   0.565   2.188 -0.3449 -0.3536  0.1367
 8968TIP3    H148319   4.578   0.593   2.097 -0.3049  0.5759  0.4132
 8968TIP3    H248320   4.632   0.479   2.181 -3.1251 -1.7077 -0.7698
 8969TIP3   OH248321   3.993   2.957   2.721 -0.3313 -0.0103  0.2918
 8969TIP3    H148322   3.900   2.943   2.707 -0.5791 -1.3330  2.8866
 8969TIP3    H248323   4.014   3.034   2.669 -3.2869  1.4073  1.0905
 8970TIP3   OH248324   0.999   1.849   5.456  0.0697 -0.6204 -0.4798
 8970TIP3    H148325   1.043   1.777   5.411  1.5290  0.7758 -1.3215
 8970TIP3    H248326   1.034   1.928   5.416  0.2918  0.6381  2.0933
 8971TIP3   OH248327   2.331   0.884  15.467 -0.0591 -0.2675  0.1975
 8971TIP3    H148328   2.306   0.951  15.404  2.9725 -0.1267 -0.9253
 8971TIP3    H248329   2.307   0.922  15.552 -2.5506  0.2727 -0.6792
 8972TIP3   OH248330   6.231   4.820   3.386 -0.1441 -0.5639 -0.6814
 8972TIP3    H148331   6.210   4.793   3.297  0.9535  0.6874 -1.3426
 8972TIP3    H248332   6.249   4.739   3.433 -2.0275 -1.3350 -1.2418
 8973TIP3   OH248333   6.669   3.376   4.958 -0.4851  0.2916  0.5453
 8973TIP3    H148334   6.576   3.370   4.979 -0.1003  0.3357  2.3157
 8973TIP3    H248335   6.707   3.429   5.029  0.6964  1.2744 -0.7694
 8974TIP3   OH248336   2.802   3.463   1.463 -0.1351  0.1080 -0.2219
 8974TIP3    H148337   2.843   3.549   1.474  1.4076 -0.8493  1.8710
 8974TIP3    H248338   2.873   3.405   1.436 -0.6552 -1.0021  0.7458
 8975TIP3   OH248339   1.017   3.308   0.879  0.0833  0.0273  0.0373
 8975TIP3    H148340   1.065   3.239   0.833 -1.1972  0.4605 -2.0321
 8975TIP3    H248341   1.072   3.385   0.869  0.6501 -0.2830  0.7650
 8976TIP3   OH248342   0.385   1.493  11.739 -0.3151  0.4499 -0.2290
 8976TIP3    H148343   0.313   1.486  11.802 -1.1044 -4.0483 -1.4846
 8976TIP3    H248344   0.461   1.458  11.784  0.0314  0.8364 -0.5010
 8977TIP3   OH248345   5.316   0.079   2.136 -0.0104 -0.2574 -0.4501
 8977TIP3    H148346   5.242   0.130   2.104  0.5406  1.0958  0.3741
 8977TIP3    H248347   5.390   0.139   2.131  1.0250 -1.5641 -1.1837
 8978TIP3   OH248348   3.804   4.472  16.651  0.1226 -0.1422  0.6986
 8978TIP3    H148349   3.840   4.383  16.659 -3.1672 -1.6340 -0.3276
 8978TIP3    H248350   3.822   4.497  16.560 -0.3505 -0.3806  0.5410
 8979TIP3   OH248351   4.257   1.090  11.859  0.5958 -0.3165 -0.3280
 8979TIP3    H148352   4.333   1.064  11.807  0.9304  1.7374 -0.8763
 8979TIP3    H248353   4.291   1.153  11.922 -0.3799 -0.4956  0.3857
 8980TIP3   OH248354   0.675   6.198  10.797  0.2314  0.0779  0.0871
 8980TIP3    H148355   0.658   6.284  10.758  0.1903 -0.2132 -0.5382
 8980TIP3    H248356   0.726   6.151  10.731 -1.0088 -0.9171 -0.1872
 8981TIP3   OH248357   2.045   4.660   2.520  0.1843 -0.3888  0.0144
 8981TIP3    H148358   2.080   4.575   2.546  1.2294 -0.3600 -1.2548
 8981TIP3    H248359   2.009   4.645   2.432 -0.8691  0.1529  0.3405
 8982TIP3   OH248360   1.137   2.849   3.855 -0.2892  0.0330 -0.2009
 8982TIP3    H148361   1.216   2.834   3.908 -0.5582  0.5979  0.3568
 8982TIP3    H248362   1.113   2.940   3.872 -1.2256 -0.2165 -0.1533
 8983TIP3   OH248363   4.655   3.344  16.788 -0.0733  0.5196 -0.1677
 8983TIP3    H148364   4.698   3.260  16.806 -2.3253 -0.5677  0.3127
 8983TIP3    H248365   4.624   3.373  16.874 -0.4879  1.1925 -0.5429
 8984TIP3   OH248366   5.015   4.546   3.882 -0.4187 -0.1774  0.3256
 8984TIP3    H148367   5.043   4.554   3.791 -1.0806  0.1497  0.1419
 8984TIP3    H248368   4.978   4.632   3.902 -0.6874 -0.3969  0.7615
 8985TIP3   OH248369   2.222   1.649  13.672  0.0925  0.1230  0.0495
 8985TIP3    H148370   2.314   1.672  13.664 -0.2690  1.9888  0.8618
 8985TIP3    H248371   2.182   1.726  13.711 -1.4892 -1.3691  1.4452
 8986TIP3   OH248372   2.724   5.569   2.633  0.3267  0.0264  0.7458
 8986TIP3    H148373   2.695   5.638   2.573 -1.2579  1.4099  2.9976
 8986TIP3    H248374   2.647   5.514   2.644  1.3629 -1.7123 -0.4309
 8987TIP3   OH248375   5.899   2.833  14.978 -0.5706 -0.3882  0.2683
 8987TIP3    H148376   5.911   2.926  14.997 -1.7870 -0.3294  0.7790
 8987TIP3    H248377   5.988   2.799  14.965 -0.0868  0.7132  0.6806
 8988TIP3   OH248378   0.938   5.458   0.856  0.0596  0.4462  0.3770
 8988TIP3    H148379   0.919   5.401   0.931  1.7685 -0.5572  0.0910
 8988TIP3    H248380   0.869   5.438   0.793  2.0087 -3.2591 -0.7303
 8989TIP3   OH248381   5.547   5.488   3.140  0.5878 -0.5230 -0.7091
 8989TIP3    H148382   5.510   5.403   3.164 -1.4368 -0.1504 -2.4599
 8989TIP3    H248383   5.518   5.503   3.051  1.0174  1.9794 -0.4590
 8990TIP3   OH248384   0.601   2.858  16.742 -0.2374  0.0242  0.0233
 8990TIP3    H148385   0.549   2.938  16.732 -1.1278 -0.5502 -0.0484
 8990TIP3    H248386   0.669   2.864  16.675 -2.1737 -0.7192 -2.0677
 8991TIP3   OH248387   1.144   4.267   5.177  0.3749 -0.9351  0.3466
 8991TIP3    H148388   1.073   4.213   5.211 -2.8265  2.4117 -0.7946
 8991TIP3    H248389   1.175   4.316   5.254  0.1097 -0.9759  0.4801
 8992TIP3   OH248390   4.454   0.017   1.206  0.2776 -0.3438 -0.1588
 8992TIP3    H148391   4.534   0.001   1.255 -0.4832 -1.5096  0.7144
 8992TIP3    H248392   4.383  -0.001   1.267 -0.6636  0.8478 -0.8697
 8993TIP3   OH248393   4.598   2.501   5.807  0.7886 -0.6051  0.1494
 8993TIP3    H148394   4.570   2.592   5.803  0.2403 -0.7850 -0.0818
 8993TIP3    H248395   4.518   2.452   5.826  0.8954 -1.1388 -0.7518
 8994TIP3   OH248396   2.717   6.236   1.231 -0.0585 -0.2286 -0.2474
 8994TIP3    H148397   2.804   6.239   1.192  0.2430 -1.3479  0.2886
 8994TIP3    H248398   2.657   6.243   1.157  0.4741  0.9797 -0.5826
 8995TIP3   OH248399   6.279   2.755   1.073 -0.0682  0.3051 -0.1754
 8995TIP3    H148400   6.266   2.686   1.008  1.1584 -0.5873  0.5011
 8995TIP3    H248401   6.327   2.823   1.025  1.0249 -0.4420 -0.1591
 8996TIP3   OH248402   0.369   4.738   2.272  0.4869 -0.2143  0.4471
 8996TIP3    H148403   0.287   4.731   2.223  2.0049  2.1928 -2.5554
 8996TIP3    H248404   0.343   4.780   2.355 -1.7577 -2.3204  0.8622
 8997TIP3   OH248405   5.681   6.035  16.711 -0.1269 -0.1000  0.3686
 8997TIP3    H148406   5.662   6.124  16.684 -1.3501 -0.5115 -0.1370
 8997TIP3    H248407   5.706   5.990  16.630 -0.7405 -0.5305  0.4126
 8998TIP3   OH248408   5.537   3.114   2.646 -0.2360  0.0447 -0.2706
 8998TIP3    H148409   5.445   3.116   2.675 -0.3650  0.4152 -0.7010
 8998TIP3    H248410   5.584   3.164   2.713 -0.1318 -1.3248  0.6899
 8999TIP3   OH248411   3.346   1.787  14.853  0.0150 -0.7376  0.0691
 8999TIP3    H148412   3.320   1.756  14.766 -0.8123  1.6266 -0.5695
 8999TIP3    H248413   3.303   1.872  14.862  1.5276 -0.1397  2.0811
 9000TIP3   OH248414   6.503   2.196  13.090  0.1051 -0.7664 -0.2518
 9000TIP3    H148415   6.425   2.143  13.072 -0.3100 -0.3274  0.2294
 9000TIP3    H248416   6.555   2.141  13.149 -0.0904 -0.8470 -0.1507
 9001TIP3   OH248417   6.338   5.726  15.192 -0.0390 -0.0971 -0.7552
 9001TIP3    H148418   6.373   5.756  15.275 -0.1754  2.0005 -1.4159
 9001TIP3    H248419   6.253   5.770  15.184  0.1566  0.0572 -2.1868
 9002TIP3   OH248420   0.292   5.722  11.270 -0.2184  0.1795 -0.1454
 9002TIP3    H148421   0.243   5.782  11.326  0.9675 -0.4352  1.6271
 9002TIP3    H248422   0.229   5.654  11.247 -0.6704  0.3316  0.6198
 9003TIP3   OH248423   5.483   0.309   0.588 -0.3590 -1.1256  0.1936
 9003TIP3    H148424   5.440   0.395   0.583 -1.3793 -1.7189 -1.5869
 9003TIP3    H248425   5.562   0.318   0.535 -0.3018 -1.1757  0.2714
 9004TIP3   OH248426   3.854   4.042   0.942 -0.0191 -0.2741 -0.2778
 9004TIP3    H148427   3.896   4.001   1.017  1.1290  1.2284 -0.0663
 9004TIP3    H248428   3.861   4.136   0.959 -1.8659  0.0311 -1.1286
 9005TIP3   OH248429   3.592   3.653   2.895 -0.4627  0.1156 -0.0012
 9005TIP3    H148430   3.516   3.675   2.842 -0.4886  2.0912  0.8051
 9005TIP3    H248431   3.656   3.618   2.833 -0.6452  1.9832 -1.2802
 9006TIP3   OH248432   6.169   5.173   5.971  0.3758 -0.1151  0.4736
 9006TIP3    H148433   6.239   5.119   5.935 -1.6265 -2.3580 -0.1731
 9006TIP3    H248434   6.201   5.263   5.961  3.7990 -1.1113  1.6058
 9007TIP3   OH248435   1.792   3.940   1.970 -0.0945  0.4529 -0.2009
 9007TIP3    H148436   1.722   3.947   2.034 -0.8229  3.6891 -1.2403
 9007TIP3    H248437   1.782   3.853   1.933 -2.4930  0.2210  0.8973
 9008TIP3   OH248438   3.034   5.339  12.341  0.9325  0.6280 -0.4835
 9008TIP3    H148439   3.014   5.252  12.374  1.7732  0.3746 -0.6505
 9008TIP3    H248440   3.021   5.332  12.246  2.3468  0.3226 -0.6531
 9009TIP3   OH248441   4.451   1.621   4.749  0.1866  0.3337 -0.2443
 9009TIP3    H148442   4.541   1.654   4.754 -0.0565  1.0740 -0.5973
 9009TIP3    H248443   4.453   1.537   4.794  1.3730 -0.3064 -1.4675
 9010TIP3   OH248444   3.754   0.545   6.007  0.2661 -0.1709  0.4611
 9010TIP3    H148445   3.832   0.510   5.963  0.1344  0.3659 -0.2054
 9010TIP3    H248446   3.770   0.639   6.013 -0.7257  0.0634 -0.4698
 9011TIP3   OH248447   3.555   5.543   0.662 -0.1634  0.1297  0.7235
 9011TIP3    H148448   3.531   5.484   0.734 -2.1966  0.6377  0.4914
 9011TIP3    H248449   3.527   5.629   0.692 -1.4923  0.2741 -0.8640
 9012TIP3   OH248450   3.887   1.445   0.092 -0.0455 -0.1514 -0.4887
 9012TIP3    H148451   3.885   1.352   0.116  0.0188 -0.3872 -1.3800
 9012TIP3    H248452   3.828   1.487   0.154  1.2749 -0.5282  1.0519
 9013TIP3   OH248453   0.256   0.522  12.933 -0.3841  0.2127  0.6813
 9013TIP3    H148454   0.241   0.438  12.889  1.9539 -0.4553  1.0877
 9013TIP3    H248455   0.253   0.587  12.863 -2.5057 -0.1445  0.4072
 9014TIP3   OH248456   2.652   3.041   5.370  0.6589  0.3348 -0.2055
 9014TIP3    H148457   2.654   2.948   5.392  0.8788  0.5609  0.7537
 9014TIP3    H248458   2.606   3.082   5.443  2.1118  1.2017  0.2476
 9015TIP3   OH248459   0.750   4.339   1.535 -0.5128  0.0121  0.0480
 9015TIP3    H148460   0.837   4.300   1.543 -0.1425  0.8407  0.0968
 9015TIP3    H248461   0.701   4.304   1.610 -0.2983 -0.6245 -0.1004
 9016TIP3   OH248462   6.034   1.431  13.769  0.0422 -0.3196  0.0492
 9016TIP3    H148463   6.123   1.439  13.735  0.4825  0.6607  1.3594
 9016TIP3    H248464   5.999   1.520  13.767 -1.0775 -0.7705 -0.8655
 9017TIP3   OH248465   0.228   4.299  10.578 -0.1018  0.3543 -0.1150
 9017TIP3    H148466   0.316   4.334  10.592  0.3048 -0.7404  0.0756
 9017TIP3    H248467   0.209   4.249  10.657 -0.8055  0.3954 -0.2529
 9018TIP3   OH248468   1.759   5.374  11.208 -0.1874 -0.1210 -0.2310
 9018TIP3    H148469   1.777   5.310  11.139  2.3980 -0.1525  0.3952
 9018TIP3    H248470   1.783   5.328  11.289  1.0274  1.3858  0.2831
 9019TIP3   OH248471   6.085   5.434   5.212 -0.1478  0.2370  0.7754
 9019TIP3    H148472   6.025   5.405   5.143 -1.2653  1.2174  1.3168
 9019TIP3    H248473   6.143   5.496   5.169  1.1836 -1.5195 -0.0018
 9020TIP3   OH248474   2.359   5.231   0.657  0.2506 -0.3861 -0.3393
 9020TIP3    H148475   2.288   5.169   0.640 -0.8899  0.1394  2.2348
 9020TIP3    H248476   2.438   5.176   0.664 -0.8248 -1.7117  2.5040
 9021TIP3   OH248477   1.608   3.834  13.408  0.8710  0.4897 -0.5875
 9021TIP3    H148478   1.668   3.768  13.442  0.2361 -1.4461 -3.0347
 9021TIP3    H248479   1.535   3.834  13.470  0.2415 -2.1429 -1.2544
 9022TIP3   OH248480   4.581   5.479   6.994 -0.1225 -0.7047 -0.5969
 9022TIP3    H148481   4.527   5.414   7.039  1.3426 -1.6806 -0.2225
 9022TIP3    H248482   4.578   5.556   7.052  0.6479 -1.4951  0.5203
 9023TIP3   OH248483   1.267   4.939   2.305  0.1122 -0.3937  0.1305
 9023TIP3    H148484   1.190   4.914   2.254  0.2742  0.4754 -0.5482
 9023TIP3    H248485   1.239   5.016   2.355  0.3127 -0.5268  0.4473
 9024TIP3   OH248486   5.237   1.737   5.266  0.0752  0.0214 -0.0055
 9024TIP3    H148487   5.257   1.775   5.181 -1.6156  0.6324 -0.1605
 9024TIP3    H248488   5.183   1.803   5.309 -0.4413 -0.9709  0.8907
 9025TIP3   OH248489   4.473   3.452   4.652  0.8864  0.1498  0.4857
 9025TIP3    H148490   4.544   3.389   4.667  0.6438 -0.4592 -0.9198
 9025TIP3    H248491   4.515   3.525   4.607  1.3098  1.3398  2.7190
 9026TIP3   OH248492   6.711   6.091  15.794 -0.0539  0.0569  0.1448
 9026TIP3    H148493   6.747   6.101  15.883  1.6838  0.1226 -0.5351
 9026TIP3    H248494   6.616   6.087  15.806  0.2647 -2.3827  2.2464
 9027TIP3   OH248495   0.310   4.605   0.168 -0.1155 -0.3912  0.6553
 9027TIP3    H148496   0.224   4.647   0.156  0.7396  0.8708 -1.3146
 9027TIP3    H248497   0.353   4.658   0.235  0.2128  0.7327 -0.4296
 9028TIP3   OH248498   1.329   4.356   1.684 -0.3694  0.0895  0.1346
 9028TIP3    H148499   1.397   4.375   1.619 -0.6054  0.4103 -0.0186
 9028TIP3    H248500   1.263   4.306   1.634 -1.1226  1.3665 -0.1694
 9029TIP3   OH248501   6.570   5.558   6.012  0.2893 -0.3573  0.0701
 9029TIP3    H148502   6.616   5.487   6.058 -1.2971 -1.6801 -0.3176
 9029TIP3    H248503   6.499   5.582   6.071 -0.7115 -0.8632 -0.9087
 9030TIP3   OH248504   4.133   6.706   3.630 -0.1063  0.7665  0.5236
 9030TIP3    H148505   4.217   6.667   3.654 -0.3979  0.1969  0.6201
 9030TIP3    H248506   4.122   6.683   3.537 -0.9296 -0.5723  0.9422
 9031TIP3   OH248507   4.867   1.174  16.929  0.2518 -0.0614 -0.5958
 9031TIP3    H148508   4.855   1.240  16.997 -1.5615 -1.8835  0.8983
 9031TIP3    H248509   4.943   1.123  16.959  0.4270  0.1120 -0.7446
 9032TIP3   OH248510   1.226   1.934   1.803 -0.5969 -0.2132  0.1706
 9032TIP3    H148511   1.272   1.912   1.722 -0.3761 -1.9917  0.7598
 9032TIP3    H248512   1.293   1.933   1.871 -0.9994  0.0470  0.5795
 9033TIP3   OH248513   0.571   4.968  12.817 -0.5398 -0.0248 -0.4217
 9033TIP3    H148514   0.482   4.965  12.852 -0.6318  0.2724 -0.6238
 9033TIP3    H248515   0.593   5.062  12.817 -0.4152 -0.0525 -0.8366
 9034TIP3   OH248516   3.099   6.455  14.448  0.2202  0.1019 -0.4110
 9034TIP3    H148517   3.185   6.485  14.418  0.0324  0.2601 -0.7825
 9034TIP3    H248518   3.114   6.428  14.539  1.0482 -1.4739 -0.9969
 9035TIP3   OH248519   3.724   6.032   4.935 -0.5935 -0.2236  0.3611
 9035TIP3    H148520   3.685   6.119   4.925 -1.2223 -0.5366  0.0792
 9035TIP3    H248521   3.817   6.050   4.951 -0.1745  0.4060 -2.5423
 9036TIP3   OH248522   6.388   6.268  16.015  0.4828  0.0536  0.4900
 9036TIP3    H148523   6.425   6.345  15.970 -1.6247  1.8038  1.6600
 9036TIP3    H248524   6.303   6.298  16.047 -0.0362 -2.5683  1.6385
 9037TIP3   OH248525   6.711   6.223  12.667 -0.0650 -0.2401  0.5994
 9037TIP3    H148526   6.659   6.152  12.706  0.5044 -0.7647  0.4023
 9037TIP3    H248527   6.782   6.238  12.730  0.8354 -1.0615 -0.2069
 9038TIP3   OH248528   6.115   4.357  15.762 -0.0556 -0.5642 -0.2594
 9038TIP3    H148529   6.164   4.397  15.833  0.9072 -0.1445 -1.1558
 9038TIP3    H248530   6.167   4.374  15.683 -2.1868  0.8864 -1.4041
 9039TIP3   OH248531   6.721   3.611   3.879 -0.3637 -0.3218 -0.0137
 9039TIP3    H148532   6.641   3.611   3.827  0.5655 -0.0792 -1.4641
 9039TIP3    H248533   6.691   3.625   3.969 -1.8027  1.9331 -0.7978
 9040TIP3   OH248534   3.136   2.286  15.649  0.4043 -0.4882  0.1166
 9040TIP3    H148535   3.218   2.333  15.630  0.8064 -1.5931 -0.9429
 9040TIP3    H248536   3.164   2.211  15.702  0.1887 -1.2737 -0.8641
 9041TIP3   OH248537   6.449   4.981  14.009  0.4705  0.1295  0.0610
 9041TIP3    H148538   6.402   4.974  13.926  1.3258  0.3839 -0.4444
 9041TIP3    H248539   6.403   4.920  14.067  1.1131 -1.5571 -1.1676
 9042TIP3   OH248540   2.841   0.450   4.717 -0.3537  0.3347  0.1640
 9042TIP3    H148541   2.796   0.370   4.692 -1.1196  0.5130  0.9510
 9042TIP3    H248542   2.773   0.505   4.755  0.4462  0.7651  0.9928
 9043TIP3   OH248543   6.232   0.094  13.437  0.0174 -0.3138  0.1271
 9043TIP3    H148544   6.278   0.167  13.479 -1.1000 -0.0339  0.8857
 9043TIP3    H248545   6.188   0.049  13.509 -2.5925  0.6544 -0.8417
 9044TIP3   OH248546   6.428   1.749  16.839 -0.5867  0.1736  0.0159
 9044TIP3    H148547   6.413   1.669  16.788 -2.1729  1.2378 -1.2487
 9044TIP3    H248548   6.462   1.812  16.775  1.7257  0.1979  1.2343
 9045TIP3   OH248549   0.082   6.542  16.692 -0.1737  1.0750 -0.2317
 9045TIP3    H148550  -0.004   6.552  16.732 -0.2249  1.0113 -0.3270
 9045TIP3    H248551   0.104   6.629  16.659 -1.3422  0.5241 -2.5390
 9046TIP3   OH248552   3.263   6.398   1.968 -0.1214 -0.9377 -0.7816
 9046TIP3    H148553   3.336   6.341   1.992 -0.5766 -1.0669  0.3411
 9046TIP3    H248554   3.202   6.341   1.922 -0.0423 -1.0890 -0.7010
 9047TIP3   OH248555   4.507   6.026  14.816  0.0708  0.0427  0.8369
 9047TIP3    H148556   4.551   5.953  14.859  0.7735 -0.1370 -0.1572
 9047TIP3    H248557   4.571   6.057  14.751 -1.0958  0.0754 -0.3029
 9048TIP3   OH248558   6.615   1.479  16.221  0.5158  0.3904  0.3982
 9048TIP3    H148559   6.663   1.483  16.139 -0.9106  1.0726 -0.4158
 9048TIP3    H248560   6.683   1.482  16.289  1.6202  1.3123 -0.7325
 9049TIP3   OH248561   0.841   4.278  16.616 -0.2139  0.0387 -0.7517
 9049TIP3    H148562   0.765   4.279  16.674 -0.5350 -0.4776 -1.1545
 9049TIP3    H248563   0.805   4.256  16.530  0.6198 -2.1313 -0.5739
 9050TIP3   OH248564   1.255   1.040   5.989  0.1987  0.5496 -0.2095
 9050TIP3    H148565   1.295   1.120   6.025  2.4033 -0.6272  0.0176
 9050TIP3    H248566   1.287   0.970   6.045 -2.2822 -0.4425  0.0132
 9051TIP3   OH248567   4.088   5.735  17.154 -0.1504  0.1913 -0.3010
 9051TIP3    H148568   4.050   5.805  17.101  0.1857  1.9043  1.6798
 9051TIP3    H248569   4.171   5.770  17.186  0.4865 -1.4744 -0.0546
 9052TIP3   OH248570   2.870   3.374  14.790 -0.4027  0.5014  0.0546
 9052TIP3    H148571   2.881   3.461  14.827 -0.3705  0.8665 -0.8146
 9052TIP3    H248572   2.851   3.318  14.866  2.5061  0.7243  0.9998
 9053TIP3   OH248573   2.597   3.800  13.169 -0.0719  0.6074 -0.4734
 9053TIP3    H148574   2.640   3.878  13.133  0.8992 -0.4382 -1.6421
 9053TIP3    H248575   2.603   3.811  13.264  1.6942  1.0848 -0.6188
 9054TIP3   OH248576   6.138   0.145   1.196  0.4480 -0.2604 -0.3305
 9054TIP3    H148577   6.231   0.160   1.184  0.7084 -0.4891  1.3891
 9054TIP3    H248578   6.119   0.178   1.283 -1.2259  0.4376 -0.9352
 9055TIP3   OH248579   3.314   2.613  14.537 -0.0537 -0.2685 -0.3538
 9055TIP3    H148580   3.315   2.709  14.528 -0.5669 -0.1515  0.8293
 9055TIP3    H248581   3.279   2.582  14.453  1.9449  0.4723 -1.4962
 9056TIP3   OH248582   3.047   0.888  14.056 -0.3214 -0.7428 -0.0111
 9056TIP3    H148583   3.054   0.811  14.112 -1.3585 -0.9607 -0.1732
 9056TIP3    H248584   3.014   0.855  13.973 -1.1660 -0.0649  0.0464
 9057TIP3   OH248585   1.169   1.747  14.957  0.1643 -0.0310 -0.1435
 9057TIP3    H148586   1.082   1.770  14.990 -0.8178 -0.3648 -2.4143
 9057TIP3    H248587   1.222   1.733  15.036 -1.6191  0.9833  1.2583
 9058TIP3   OH248588   6.564   3.245   3.480  0.7993 -0.0114  0.6117
 9058TIP3    H148589   6.563   3.195   3.398 -1.1752  0.5720  0.2474
 9058TIP3    H248590   6.550   3.336   3.453 -2.1159 -0.0763  1.7048
 9059TIP3   OH248591   2.544   3.741   0.470 -0.1483  0.6245  0.1862
 9059TIP3    H148592   2.502   3.668   0.515  2.5695 -1.1687 -0.0935
 9059TIP3    H248593   2.567   3.802   0.540  0.5161 -0.3149  0.7951
 9060TIP3   OH248594   6.617   1.988   2.876  0.1245 -0.6834  0.2855
 9060TIP3    H148595   6.610   1.998   2.781  0.9210  0.0841  0.2947
 9060TIP3    H248596   6.629   2.078   2.908 -0.1986 -0.9330  1.1162
 9061TIP3   OH248597   1.798   0.217  17.175  0.1475 -0.4681 -0.2815
 9061TIP3    H148598   1.833   0.260  17.253  2.4419 -1.0056 -0.9649
 9061TIP3    H248599   1.820   0.276  17.103 -0.7368 -0.6149 -0.6695
 9062TIP3   OH248600   1.134   4.854   3.317 -0.2568  0.0232  0.2749
 9062TIP3    H148601   1.188   4.895   3.250  1.4678 -1.1805  0.8760
 9062TIP3    H248602   1.045   4.860   3.284  0.7125 -1.9531 -2.8968
 9063TIP3   OH248603   1.590   4.549  13.621 -0.1008  0.7041 -0.2415
 9063TIP3    H148604   1.685   4.559  13.627  0.0421 -0.5826 -0.3424
 9063TIP3    H248605   1.574   4.521  13.531 -0.4315 -0.5350  0.1909
 9064TIP3   OH248606   0.443   5.178  17.144 -0.1858  0.2168  0.1702
 9064TIP3    H148607   0.464   5.116  17.214 -2.3868 -1.1662 -0.3296
 9064TIP3    H248608   0.494   5.147  17.069 -0.2026 -0.1685  0.3160
 9065TIP3   OH248609   0.839   6.301  11.635 -0.0997 -0.3993 -0.2851
 9065TIP3    H148610   0.764   6.271  11.686  0.2840 -1.1342 -0.1478
 9065TIP3    H248611   0.825   6.264  11.547 -0.1835 -0.0635 -0.4165
 9066TIP3   OH248612   5.507   2.618  16.695  0.4667  0.0563  0.0204
 9066TIP3    H148613   5.505   2.604  16.790  0.8311 -0.7800 -0.0854
 9066TIP3    H248614   5.417   2.642  16.672  0.0579 -1.1012  0.3850
 9067TIP3   OH248615   3.413   3.465  15.523 -0.2661 -0.7834 -0.1700
 9067TIP3    H148616   3.321   3.483  15.504 -0.0996 -1.1261 -1.3384
 9067TIP3    H248617   3.418   3.371  15.535 -0.0015 -0.8150 -0.5068
 9068TIP3   OH248618   6.448   6.366  12.160 -0.3055 -0.0478  0.5383
 9068TIP3    H148619   6.414   6.317  12.235  0.4586 -2.0588 -0.3940
 9068TIP3    H248620   6.543   6.366  12.173 -0.2639  0.7680  0.2603
 9069TIP3   OH248621   4.338   5.550   0.750  0.0168 -0.3265 -0.0860
 9069TIP3    H148622   4.288   5.517   0.824  2.1277  0.0644  1.5506
 9069TIP3    H248623   4.354   5.642   0.770 -1.0593  0.3151 -1.9836
 9070TIP3   OH248624   5.831   5.563   4.843  0.2895  0.3538  0.3765
 9070TIP3    H148625   5.860   5.602   4.760  1.3464 -0.9026  0.1422
 9070TIP3    H248626   5.739   5.541   4.828 -0.1197  2.0298  0.2588
 9071TIP3   OH248627   6.440   3.221  14.540  0.4007 -0.2524  0.2101
 9071TIP3    H148628   6.531   3.248  14.554  1.3529 -3.7534  1.4612
 9071TIP3    H248629   6.425   3.152  14.604 -2.2935 -1.5761 -1.7135
 9072TIP3   OH248630   1.961   1.758  14.070 -0.1995 -0.4440  0.3215
 9072TIP3    H148631   1.993   1.695  14.135 -0.4365 -1.0595 -0.1540
 9072TIP3    H248632   1.868   1.737  14.062  0.0719 -1.1326 -1.0758
 9073TIP3   OH248633   2.398   1.452  13.041  0.2492 -0.1709  0.3100
 9073TIP3    H148634   2.430   1.388  13.104 -0.0785  0.4049  1.0758
 9073TIP3    H248635   2.421   1.537  13.079  0.7788  0.1699 -0.7451
 9074TIP3   OH248636   2.334   3.953  12.598  0.3912  0.2232  0.1641
 9074TIP3    H148637   2.298   3.895  12.530  1.4362 -1.5054  1.0417
 9074TIP3    H248638   2.427   3.958  12.579  0.3843  1.2263  0.3917
 9075TIP3   OH248639   1.663   0.693   3.207  0.4632  0.2940  0.7020
 9075TIP3    H148640   1.589   0.638   3.231  1.2897 -0.2458  2.1270
 9075TIP3    H248641   1.739   0.635   3.215  1.0126  0.7720 -0.9812
 9076TIP3   OH248642   1.684   3.368   0.685  0.0620 -0.2610  0.5244
 9076TIP3    H148643   1.638   3.431   0.740 -0.4695 -0.2353  0.0537
 9076TIP3    H248644   1.619   3.338   0.622  0.7348 -0.0801 -0.2771
 9077TIP3   OH248645   3.110   0.516   0.120  0.3701 -0.2448 -0.0771
 9077TIP3    H148646   3.024   0.510   0.162  1.0816  0.8006  1.6290
 9077TIP3    H248647   3.099   0.583   0.053  0.5530  2.0140  2.0755
 9078TIP3   OH248648   5.242   5.940  14.595  0.0402 -0.1442  0.2529
 9078TIP3    H148649   5.271   5.850  14.581 -1.4513 -0.6746  0.4584
 9078TIP3    H248650   5.162   5.948  14.544 -0.3563  0.7648  0.9899
 9079TIP3   OH248651   5.516   4.975   4.210 -0.3183  0.2402  0.2825
 9079TIP3    H148652   5.428   4.939   4.202 -0.6496  0.5493  2.3702
 9079TIP3    H248653   5.552   4.935   4.289  1.6607 -0.3675 -0.8943
 9080TIP3   OH248654   2.587   4.420   2.932  0.1969 -0.3440 -0.0954
 9080TIP3    H148655   2.516   4.478   2.958 -1.3869 -1.2683 -2.2066
 9080TIP3    H248656   2.567   4.397   2.841  3.0530 -0.8580 -0.6439
 9081TIP3   OH248657   4.731   3.679   1.171  0.3171 -0.1826 -0.3421
 9081TIP3    H148658   4.694   3.613   1.112 -1.7942 -0.3947  1.1602
 9081TIP3    H248659   4.707   3.762   1.131 -2.8090 -0.2969  1.1271
 9082TIP3   OH248660   0.842   1.102   3.477 -0.4638 -0.3389 -0.0293
 9082TIP3    H148661   0.842   1.019   3.429 -2.3302 -1.2171  1.4408
 9082TIP3    H248662   0.924   1.100   3.527 -0.2007 -1.0056 -0.4810
 9083TIP3   OH248663   0.261   4.264  16.488 -0.8701 -0.3672 -0.2634
 9083TIP3    H148664   0.351   4.233  16.494 -1.2287 -1.7914 -1.7226
 9083TIP3    H248665   0.211   4.205  16.544 -0.5841  1.9577  2.5514
 9084TIP3   OH248666   3.165   2.433   5.446 -0.0479  0.0567  0.4016
 9084TIP3    H148667   3.254   2.435   5.481 -0.8073  1.9053  2.3338
 9084TIP3    H248668   3.145   2.525   5.427 -1.2352 -0.4462 -0.8216
 9085TIP3   OH248669   1.008   2.017   4.350 -0.4242  0.0043 -0.1031
 9085TIP3    H148670   0.997   2.005   4.444 -0.6066 -0.5155 -0.1869
 9085TIP3    H248671   1.064   2.094   4.342 -2.6435  1.7176  0.3471
 9086TIP3   OH248672   6.013   3.873  15.346  0.3275  0.4532  0.6255
 9086TIP3    H148673   5.932   3.844  15.386 -0.0230 -0.4818 -0.7015
 9086TIP3    H248674   5.987   3.903  15.259  1.3053  0.7302  0.4259
 9087TIP3   OH248675   0.337   0.404   5.598  0.1059 -0.7362  0.0089
 9087TIP3    H148676   0.257   0.456   5.590 -0.4129 -0.7417  4.0452
 9087TIP3    H248677   0.308   0.313   5.584 -0.2905 -0.5811 -0.1963
 9088TIP3   OH248678   5.853   6.289  14.277  0.5300  0.1643 -0.4069
 9088TIP3    H148679   5.910   6.311  14.203  2.3501 -0.7945  0.6823
 9088TIP3    H248680   5.812   6.372  14.301  0.1234  0.5461 -2.2932
 9089TIP3   OH248681   1.988   5.229  10.933  0.1033  0.3105 -0.5494
 9089TIP3    H148682   1.938   5.302  10.895  0.0999 -0.0814 -1.3012
 9089TIP3    H248683   2.078   5.260  10.936 -0.1301  0.9311  0.5894
 9090TIP3   OH248684   2.088   1.685   5.800 -0.6970  0.0335  0.1613
 9090TIP3    H148685   2.126   1.600   5.775 -0.6277  0.5312 -1.4414
 9090TIP3    H248686   2.082   1.680   5.895 -0.3554 -1.6402  0.1235
 9091TIP3   OH248687   5.028   2.315  12.389  0.0972  0.4840 -1.2209
 9091TIP3    H148688   4.987   2.360  12.462 -2.8501  0.2812 -2.6889
 9091TIP3    H248689   5.085   2.250  12.430  1.3862  2.8676  0.8793
 9092TIP3   OH248690   2.211   1.322  13.400  0.1096  0.6600  0.5934
 9092TIP3    H148691   2.214   1.411  13.366  1.8143  1.1921  2.0754
 9092TIP3    H248692   2.240   1.267  13.327 -0.2917  1.3742 -0.1066
 9093TIP3   OH248693   0.309   3.079   0.915 -0.2665  0.0934 -0.8147
 9093TIP3    H148694   0.216   3.060   0.908 -0.3922  0.0660  0.6981
 9093TIP3    H248695   0.352   3.016   0.858 -1.1677  0.0908 -1.4943
 9094TIP3   OH248696   3.319   3.593  11.999  0.2099 -0.1431 -0.0394
 9094TIP3    H148697   3.333   3.625  12.088 -0.9020  0.9708 -0.2606
 9094TIP3    H248698   3.397   3.541  11.980  0.1661 -0.9327  1.8215
 9095TIP3   OH248699   3.270   2.636   3.926 -0.3540 -0.5150 -0.1495
 9095TIP3    H148700   3.229   2.617   4.010  0.4468 -0.1251  0.3398
 9095TIP3    H248701   3.197   2.640   3.864 -0.7316 -2.9930  0.1075
 9096TIP3   OH248702   4.637   4.047  14.275  0.2939  0.3535 -0.4010
 9096TIP3    H148703   4.720   4.022  14.236  0.5862 -0.2858  0.6133
 9096TIP3    H248704   4.587   3.965  14.280 -0.4273  0.7423 -1.0703
 9097TIP3   OH248705   2.956   1.609  15.046  0.4295  0.3662 -0.1105
 9097TIP3    H148706   3.024   1.616  14.979  1.0495  0.2968  0.5137
 9097TIP3    H248707   2.925   1.699  15.058 -0.1098  0.2981 -0.9250
 9098TIP3   OH248708   5.740   6.448  13.731 -0.1619 -0.0569 -0.1395
 9098TIP3    H148709   5.787   6.372  13.764  0.9382  0.5644 -0.2823
 9098TIP3    H248710   5.807   6.505  13.693 -1.0603  0.6311 -0.7347
 9099TIP3   OH248711   5.620   5.660  15.445 -0.2354  0.2679 -0.1200
 9099TIP3    H148712   5.706   5.695  15.422  0.6078 -0.9342  1.1335
 9099TIP3    H248713   5.627   5.566  15.428 -0.9145 -0.0116  1.0621
 9100TIP3   OH248714   1.207   6.698   2.700  0.4332  0.2761  0.5017
 9100TIP3    H148715   1.123   6.737   2.680  0.7063  1.4477  1.5983
 9100TIP3    H248716   1.222   6.635   2.629 -0.7364  1.0153 -0.4158
 9101TIP3   OH248717   1.709   2.202  15.404 -0.3778  0.1517  0.2427
 9101TIP3    H148718   1.690   2.152  15.325  1.2955  0.3280 -0.2900
 9101TIP3    H248719   1.763   2.275  15.374  0.1020  0.3337  1.5190
 9102TIP3   OH248720   4.334   1.557  11.659  0.0911  0.1846  0.0899
 9102TIP3    H148721   4.289   1.522  11.735 -0.0681  2.8106  1.2541
 9102TIP3    H248722   4.350   1.481  11.603 -2.9033 -1.2529  1.1152
 9103TIP3   OH248723   4.787   6.713   4.324  0.1689  0.6656 -0.6877
 9103TIP3    H148724   4.732   6.735   4.249 -1.1436 -2.6767 -0.8087
 9103TIP3    H248725   4.815   6.623   4.307  1.4786  0.5396  1.8795
 9104TIP3   OH248726   3.149   0.078  15.052  0.1731 -0.5638 -0.3606
 9104TIP3    H148727   3.082   0.080  14.984 -0.5798 -0.9906  0.3608
 9104TIP3    H248728   3.117   0.136  15.121  0.2332 -1.2697  0.2701
 9105TIP3   OH248729   3.980   0.155  11.813 -0.1059  0.4954  0.0014
 9105TIP3    H148730   3.913   0.218  11.785  0.3802  2.0911  2.3699
 9105TIP3    H248731   3.955   0.132  11.902  1.3223 -0.5398  0.1442
 9106TIP3   OH248732   3.285   3.989   3.358  0.0670  0.4708 -0.2979
 9106TIP3    H148733   3.363   4.001   3.304  0.1855 -1.5926 -0.6103
 9106TIP3    H248734   3.318   3.961   3.443 -0.3389 -1.0517 -0.6243
 9107TIP3   OH248735   3.097   0.296  16.905 -0.1290 -0.3241  0.1029
 9107TIP3    H148736   3.044   0.376  16.904 -0.1109 -0.3052  0.3803
 9107TIP3    H248737   3.125   0.288  16.997 -0.1717 -0.6773  0.0823
 9108TIP3   OH248738   4.079   6.698   1.147  0.0674 -0.0676  0.7795
 9108TIP3    H148739   4.111   6.716   1.059 -1.8818  1.0141  0.2742
 9108TIP3    H248740   4.157   6.671   1.196  1.0344 -1.3748 -1.4377
 9109TIP3   OH248741   1.121   1.715  12.135  0.3966 -0.4385 -0.2610
 9109TIP3    H148742   1.121   1.793  12.190 -0.6305  0.7758 -1.9251
 9109TIP3    H248743   1.036   1.673  12.152 -1.5214  1.8791 -3.4772
 9110TIP3   OH248744   2.462   3.195   1.361 -0.5517  0.5487  0.6074
 9110TIP3    H148745   2.392   3.139   1.327 -0.1617  1.6658 -2.1178
 9110TIP3    H248746   2.534   3.184   1.300  0.8143  1.2835  2.0519
 9111TIP3   OH248747   3.323   5.611  11.808 -0.3007  0.3356 -0.2485
 9111TIP3    H148748   3.388   5.618  11.878  0.1956 -2.6302 -0.3480
 9111TIP3    H248749   3.281   5.698  11.805  1.4908  1.3207  1.9038
 9112TIP3   OH248750   2.169   3.033  14.144 -0.0936 -0.2401  0.1191
 9112TIP3    H148751   2.224   3.015  14.067  0.8638  1.0917  0.4751
 9112TIP3    H248752   2.081   3.041  14.108  0.1810 -0.7414 -0.6938
 9113TIP3   OH248753   2.076   3.175   2.714  0.0312 -0.3275 -0.3457
 9113TIP3    H148754   2.160   3.212   2.688 -0.3771  0.6976 -0.2382
 9113TIP3    H248755   2.064   3.099   2.657  0.6204  0.0397 -0.9649
 9114TIP3   OH248756   4.366   3.321   4.434  0.4480  0.1568 -0.1838
 9114TIP3    H148757   4.422   3.376   4.379  0.2588  0.0349 -0.4980
 9114TIP3    H248758   4.348   3.374   4.511  2.0955 -0.3085  0.5318
 9115TIP3   OH248759   2.908   5.020   0.918 -0.5656  0.3949  0.4262
 9115TIP3    H148760   2.966   4.978   0.854  0.3124 -0.9981  2.0842
 9115TIP3    H248761   2.963   5.085   0.961 -0.3406 -0.5758  1.6472
 9116TIP3   OH248762   4.007   3.324  15.712 -0.3666 -0.0233  0.0141
 9116TIP3    H148763   3.992   3.305  15.619  1.7499  0.9809 -0.5673
 9116TIP3    H248764   3.926   3.367  15.741 -2.0172 -2.5262 -0.6967
 9117TIP3   OH248765   2.935   5.986  14.256  0.1911 -0.4269 -0.1642
 9117TIP3    H148766   2.966   5.944  14.336  1.3342  0.1046 -0.3209
 9117TIP3    H248767   2.840   5.995  14.268  0.6129  1.4588  1.9998
 9118TIP3   OH248768   5.545   5.586   0.642 -0.4635 -0.7948 -0.1794
 9118TIP3    H148769   5.493   5.562   0.565 -1.4396 -1.8547  0.8013
 9118TIP3    H248770   5.636   5.588   0.610 -0.8987 -0.9093 -1.4305
 9119TIP3   OH248771   2.973   6.631   2.338  0.3556 -0.2917  0.3468
 9119TIP3    H148772   2.962   6.669   2.425  0.9306 -0.8168  0.6576
 9119TIP3    H248773   3.002   6.704   2.283 -1.2975  0.3378  0.2867
 9120TIP3   OH248774   5.695   4.523  14.815 -0.5196 -0.4367 -0.6085
 9120TIP3    H148775   5.689   4.570  14.731 -0.7641  0.3762 -0.1401
 9120TIP3    H248776   5.607   4.529  14.852 -0.1960 -0.0753  0.0972
 9121TIP3   OH248777   1.599   2.252   0.433 -0.0546 -0.7174  0.1158
 9121TIP3    H148778   1.607   2.159   0.412  4.6924 -0.4610  0.3007
 9121TIP3    H248779   1.581   2.253   0.527 -2.9200 -1.4468 -0.3803
 9122TIP3   OH248780   1.129   6.771   2.403 -0.2750 -0.0044 -0.5517
 9122TIP3    H148781   1.141   6.752   2.310  0.6858  0.2818 -0.4921
 9122TIP3    H248782   1.165   6.695   2.448  1.8518  1.0587 -0.3596
 9123TIP3   OH248783   6.173   4.613   0.911  0.2412 -0.1165  0.1208
 9123TIP3    H148784   6.253   4.594   0.862 -0.6964  0.0001 -1.4833
 9123TIP3    H248785   6.150   4.529   0.952  0.4249 -0.4815 -0.5259
 9124TIP3   OH248786   5.503   0.953  11.672  0.0440 -0.5002 -0.6116
 9124TIP3    H148787   5.483   0.860  11.686 -0.6094 -0.1323  1.0772
 9124TIP3    H248788   5.583   0.967  11.722 -0.3994  0.0529 -0.0401
 9125TIP3   OH248789   1.628   6.607   4.693 -0.0666  0.3267 -0.2215
 9125TIP3    H148790   1.579   6.632   4.772 -1.0198 -0.8814 -0.4014
 9125TIP3    H248791   1.719   6.625   4.715 -0.4066  0.8539  0.8262
 9126TIP3   OH248792   4.823   5.935   2.824 -0.5381  0.5200  0.6260
 9126TIP3    H148793   4.887   6.003   2.802 -0.3011  0.9722  2.5712
 9126TIP3    H248794   4.754   5.944   2.759  1.0571  0.4654 -1.1126
 9127TIP3   OH248795   1.306   0.504  12.368  0.8477  0.2089 -0.3060
 9127TIP3    H148796   1.295   0.594  12.338 -0.5496  0.2411  0.2781
 9127TIP3    H248797   1.361   0.512  12.446 -0.7522  0.7512  0.7914
 9128TIP3   OH248798   4.516   3.988   1.743 -0.1528 -0.3850  0.2433
 9128TIP3    H148799   4.467   3.905   1.742 -3.8747  1.7213  0.6189
 9128TIP3    H248800   4.529   4.007   1.836  0.2315 -0.2634  0.1669
 9129TIP3   OH248801   2.390   6.712  11.990  0.0010 -0.4848  0.7520
 9129TIP3    H148802   2.312   6.717  11.934  0.6553  0.8850 -0.0656
 9129TIP3    H248803   2.425   6.625  11.974  0.0923 -0.1709 -0.8867
 9130TIP3   OH248804   0.700   4.695  16.413  0.0848 -0.3093  0.4775
 9130TIP3    H148805   0.686   4.668  16.504 -1.7372  2.1613  0.9635
 9130TIP3    H248806   0.624   4.660  16.366  0.5375 -0.7431  0.0517
 9131TIP3   OH248807   4.010   3.087  15.242 -0.0065 -0.0171 -1.3210
 9131TIP3    H148808   4.094   3.050  15.215  0.5327  0.1437  0.0592
 9131TIP3    H248809   3.985   3.147  15.172  1.9637  1.3333 -0.9022
 9132TIP3   OH248810   5.458   4.737  13.562  0.1793 -0.9045  0.2450
 9132TIP3    H148811   5.474   4.804  13.495  0.6268 -1.2011  0.0509
 9132TIP3    H248812   5.406   4.670  13.517 -0.1670 -0.7455  0.4046
 9133TIP3   OH248813   2.711   4.137   3.767  0.1850 -0.2351 -0.6215
 9133TIP3    H148814   2.747   4.137   3.856 -3.7706  1.2532  1.1108
 9133TIP3    H248815   2.641   4.073   3.770  0.6788 -0.9241 -3.0349
 9134TIP3   OH248816   6.658   4.499   3.211 -0.5430  0.4058 -0.0022
 9134TIP3    H148817   6.597   4.448   3.264  0.0062 -1.2516 -0.9376
 9134TIP3    H248818   6.672   4.580   3.261 -0.5712 -0.8304  2.0263
 9135TIP3   OH248819   2.323   0.208   5.372 -0.0713 -0.4659  0.3849
 9135TIP3    H148820   2.304   0.280   5.432  0.0333  0.8419 -1.1503
 9135TIP3    H248821   2.413   0.182   5.392  0.1374  0.3054  0.4493
 9136TIP3   OH248822   0.540   1.751  14.908 -0.6145 -0.3293  0.0763
 9136TIP3    H148823   0.460   1.753  14.855 -0.2724 -0.5278 -0.4534
 9136TIP3    H248824   0.514   1.788  14.992 -1.2617 -0.3753 -0.0999
 9137TIP3   OH248825   5.216   1.249  13.151 -0.1361 -0.0023  0.1945
 9137TIP3    H148826   5.142   1.208  13.196  0.4416 -1.2911 -0.0203
 9137TIP3    H248827   5.187   1.338  13.133 -2.0754 -0.8378 -0.9059
 9138TIP3   OH248828   1.303   5.452   5.201  0.6538 -0.0314  0.2173
 9138TIP3    H148829   1.339   5.534   5.166  0.9418 -0.2176  0.0821
 9138TIP3    H248830   1.333   5.449   5.292 -0.0833  0.4468  0.4798
 9139TIP3   OH248831   5.928   4.907   3.358  0.6482  0.3968 -0.0672
 9139TIP3    H148832   6.023   4.915   3.350  0.6905  0.3037  0.3230
 9139TIP3    H248833   5.894   4.943   3.276  1.0247  0.2802 -0.2765
 9140TIP3   OH248834   4.784   3.262   1.284  0.2711 -0.1290  0.3062
 9140TIP3    H148835   4.807   3.210   1.207  1.0680  0.3614  0.2043
 9140TIP3    H248836   4.717   3.210   1.329 -0.1270 -0.4678 -0.6580
 9141TIP3   OH248837   1.807   0.099  10.938 -0.2701 -0.7315 -0.0284
 9141TIP3    H148838   1.860   0.115  10.860  0.3205  2.8445  0.9956
 9141TIP3    H248839   1.732   0.157  10.928  0.9633  1.5530  3.0450
 9142TIP3   OH248840   6.630   1.320   3.879 -0.7448 -0.6983  0.0421
 9142TIP3    H148841   6.708   1.318   3.824 -0.7339 -2.2742  0.1015
 9142TIP3    H248842   6.664   1.323   3.969 -0.7468 -1.5329  0.0731
 9143TIP3   OH248843   0.382   2.934  10.350  0.0223  0.4006 -0.0862
 9143TIP3    H148844   0.440   3.010  10.349  0.2826  0.2182  0.7324
 9143TIP3    H248845   0.301   2.964  10.310 -0.3455  1.4773  1.4292
 9144TIP3   OH248846   3.743   2.762  13.598 -0.4244  0.1555 -0.2814
 9144TIP3    H148847   3.777   2.852  13.602 -0.9356  0.3569 -0.5106
 9144TIP3    H248848   3.658   2.767  13.640 -0.5611 -0.1731 -0.5244
 9145TIP3   OH248849   4.887   2.778   5.926  0.2194 -0.4511  0.1032
 9145TIP3    H148850   4.973   2.743   5.949  1.7212  2.5941 -0.6507
 9145TIP3    H248851   4.860   2.827   6.003  0.4209  0.8964 -0.6786
 9146TIP3   OH248852   2.634   2.540   3.815  0.0786  0.0054 -0.0066
 9146TIP3    H148853   2.684   2.599   3.758  2.2309  0.5754  2.3920
 9146TIP3    H248854   2.668   2.453   3.796  1.8869  0.3599  1.4212
 9147TIP3   OH248855   4.433   6.091   2.751  0.1526 -0.3141  0.1508
 9147TIP3    H148856   4.359   6.048   2.794 -0.1090 -1.0973 -1.0553
 9147TIP3    H248857   4.470   6.024   2.694  0.8488  0.5352 -0.4097
 9148TIP3   OH248858   1.240   2.370  14.970  0.0358 -0.2826 -0.3227
 9148TIP3    H148859   1.223   2.449  14.918 -0.2961  0.7766  1.3364
 9148TIP3    H248860   1.331   2.379  14.999  1.0306 -2.1180 -2.7737
 9149TIP3   OH248861   6.540   6.158  14.339 -0.0048  0.2296 -0.0070
 9149TIP3    H148862   6.561   6.098  14.411 -0.9093  1.4583  1.3090
 9149TIP3    H248863   6.453   6.190  14.359  0.3196  1.6987 -0.8867
 9150TIP3   OH248864   2.208   3.333  14.994 -0.0528  0.2279 -0.0435
 9150TIP3    H148865   2.253   3.397  14.939  1.3580 -1.5678 -1.0226
 9150TIP3    H248866   2.259   3.330  15.075 -1.6277  2.2207  1.0945
 9151TIP3   OH248867   1.988   3.905  15.191 -0.3135 -0.3025 -0.0880
 9151TIP3    H148868   1.985   3.836  15.257 -2.1013 -0.2084 -0.0408
 9151TIP3    H248869   2.046   3.971  15.229  1.8676 -1.9842 -0.3796
 9152TIP3   OH248870   1.465   3.227  12.382  0.3192  0.2675  0.1919
 9152TIP3    H148871   1.428   3.145  12.415 -0.6098  0.6625  0.1626
 9152TIP3    H248872   1.453   3.223  12.288  0.1293  0.4952  0.2038
 9153TIP3   OH248873   3.927   2.563   5.565  0.9321 -0.2966 -0.1902
 9153TIP3    H148874   3.971   2.647   5.551 -0.6027  0.5468 -0.0455
 9153TIP3    H248875   3.934   2.548   5.659 -0.1982  0.4808  0.0328
 9154TIP3   OH248876   2.483   4.307   5.516 -0.8262 -0.2983 -0.6287
 9154TIP3    H148877   2.406   4.343   5.561  0.0984 -0.5181  1.1835
 9154TIP3    H248878   2.541   4.382   5.504 -0.6370 -0.4264 -0.5187
 9155TIP3   OH248879   3.005   1.896   1.771  0.6256  0.3420  0.3535
 9155TIP3    H148880   2.929   1.846   1.802  0.4679  0.8018  0.7200
 9155TIP3    H248881   2.968   1.979   1.741  0.6816 -0.3810 -1.7839
 9156TIP3   OH248882   1.521   5.139   5.451  0.1093  0.1438  0.3213
 9156TIP3    H148883   1.500   5.048   5.471 -1.0272  0.5360  0.9676
 9156TIP3    H248884   1.516   5.144   5.355 -2.9099  0.2169  0.4179
 9157TIP3   OH248885   4.741   3.160  11.920  0.0103  0.1201  0.2200
 9157TIP3    H148886   4.748   3.116  12.005 -0.2722 -0.4522 -0.0466
 9157TIP3    H248887   4.696   3.242  11.939 -2.6221 -1.2605  0.2213
 9158TIP3   OH248888   6.475   2.808  14.972  0.3427 -0.1497 -0.1877
 9158TIP3    H148889   6.531   2.843  15.041  1.0199 -2.0040  0.2410
 9158TIP3    H248890   6.533   2.753  14.919 -0.4129  0.3527 -1.5698
 9159TIP3   OH248891   6.588   2.778  15.229  0.2735 -0.1575 -0.1172
 9159TIP3    H148892   6.547   2.827  15.300  0.7266 -1.6621  1.2060
 9159TIP3    H248893   6.602   2.690  15.265  2.4712 -0.3394 -1.3308
 9160TIP3   OH248894   0.549   6.118   4.335 -0.0115  0.1332  0.6681
 9160TIP3    H148895   0.620   6.060   4.307 -0.6026 -0.8449  1.1432
 9160TIP3    H248896   0.471   6.083   4.290 -0.0879  1.5784 -0.3500
 9161TIP3   OH248897   6.107   1.381  14.562 -0.4919  0.0302 -0.1659
 9161TIP3    H148898   6.052   1.363  14.638  1.9644  0.2483  1.7367
 9161TIP3    H248899   6.114   1.296  14.517  1.0439 -1.0138  1.9575
 9162TIP3   OH248900   5.389   5.257  14.202  0.2737  0.2995 -0.6163
 9162TIP3    H148901   5.470   5.206  14.195  0.5731  0.8747 -1.3903
 9162TIP3    H248902   5.335   5.227  14.129  0.4325  1.0458 -1.0470
 9163TIP3   OH248903   0.856   4.896  15.872  0.4988 -0.0834 -0.0204
 9163TIP3    H148904   0.870   4.824  15.933  0.5734 -2.0493 -2.2823
 9163TIP3    H248905   0.799   4.957  15.919  0.1358 -1.7867  1.7963
 9164TIP3   OH248906   0.746   3.697   0.363 -0.4686 -0.5864  0.2950
 9164TIP3    H148907   0.657   3.730   0.378  0.6862  2.1221  1.6080
 9164TIP3    H248908   0.752   3.619   0.418 -0.5395  1.9130  4.0667
 9165TIP3   OH248909   5.360   3.189   5.535  0.2971 -0.5167  0.3293
 9165TIP3    H148910   5.409   3.120   5.580  0.1620 -0.2791  0.8405
 9165TIP3    H248911   5.428   3.242   5.493  0.4333 -0.6376  0.3929
 9166TIP3   OH248912   0.044   6.509   3.882 -0.6260 -0.0773  0.4480
 9166TIP3    H148913   0.105   6.447   3.924  0.1941 -0.6362 -1.4927
 9166TIP3    H248914  -0.042   6.481   3.912 -0.0531 -0.2575  1.9970
 9167TIP3   OH248915   0.961   0.155   6.442  0.0142 -0.2244  0.1111
 9167TIP3    H148916   0.971   0.250   6.445 -0.9971 -0.1099  0.1708
 9167TIP3    H248917   0.877   0.141   6.398 -1.1739 -1.0004  2.5139
 9168TIP3   OH248918   1.935   1.417  14.549 -0.0445  0.3192 -0.1763
 9168TIP3    H148919   1.962   1.329  14.572 -0.1572  0.1026 -0.8576
 9168TIP3    H248920   2.014   1.459  14.515 -0.4618 -0.2073 -1.8540
 9169TIP3   OH248921   5.633   4.361   4.956 -0.2214  0.6955  0.5076
 9169TIP3    H148922   5.552   4.410   4.943 -0.0130  1.1275  0.7975
 9169TIP3    H248923   5.656   4.328   4.869 -1.5048 -0.7074  0.6966
 9170TIP3   OH248924   0.724   2.403  13.019  0.6113  0.2511 -0.1874
 9170TIP3    H148925   0.786   2.338  13.053  1.0287  0.5243 -0.4267
 9170TIP3    H248926   0.681   2.437  13.097  1.5974  0.9134  0.0789
 9171TIP3   OH248927   5.451   4.987   3.097 -0.2333 -0.5952 -0.3773
 9171TIP3    H148928   5.371   5.024   3.060  0.4806  1.3453 -0.0447
 9171TIP3    H248929   5.519   5.008   3.032  0.3838 -0.3283  0.3421
 9172TIP3   OH248930   4.322   5.214   3.122  0.4758  0.4138 -0.2136
 9172TIP3    H148931   4.236   5.209   3.162 -0.4236  0.1025 -2.1083
 9172TIP3    H248932   4.355   5.124   3.125  0.1770  0.2867 -0.6439
 9173TIP3   OH248933   0.892   5.048   3.831 -0.5693  0.9295 -0.0257
 9173TIP3    H148934   0.812   5.022   3.785 -0.2622  0.2263 -0.1603
 9173TIP3    H248935   0.921   5.127   3.786 -0.3881  0.3634 -0.9135
 9174TIP3   OH248936   1.665   5.111   0.624  0.2809 -0.2805 -0.1887
 9174TIP3    H148937   1.644   5.101   0.531 -0.5803  1.3212 -0.1872
 9174TIP3    H248938   1.586   5.081   0.670 -1.0382  3.0458 -0.1155
 9175TIP3   OH248939   3.530   6.232  13.565 -0.2580 -0.2160  0.2881
 9175TIP3    H148940   3.496   6.168  13.627  0.4433  0.8204  1.7801
 9175TIP3    H248941   3.504   6.199  13.479 -1.7378 -1.3828  1.1611
 9176TIP3   OH248942   3.368   6.500  14.339  1.0160  0.3742  0.0966
 9176TIP3    H148943   3.428   6.576  14.344 -0.0634  1.2735 -0.3680
 9176TIP3    H248944   3.425   6.424  14.351  2.4993  1.1437 -1.6739
 9177TIP3   OH248945   4.340   0.601  15.897  0.6421  0.7487 -0.3801
 9177TIP3    H148946   4.388   0.518  15.892  0.0774  0.4499 -1.0017
 9177TIP3    H248947   4.389   0.660  15.839 -0.5310  0.0249 -2.1714
 9178TIP3   OH248948   0.177   6.588   2.998  0.1278 -0.1884  0.2477
 9178TIP3    H148949   0.229   6.631   2.930 -0.0658 -1.7596 -0.9257
 9178TIP3    H248950   0.111   6.653   3.022  0.2475  0.4299 -1.0175
 9179TIP3   OH248951   5.146   4.531   2.085  0.0453  0.5237  0.5346
 9179TIP3    H148952   5.226   4.509   2.133 -0.8518  0.8335  2.2131
 9179TIP3    H248953   5.159   4.623   2.059  1.2692 -0.1558 -1.3470
 9180TIP3   OH248954   0.362   2.559  13.483 -0.4659 -0.0686  0.2717
 9180TIP3    H148955   0.267   2.563  13.486 -0.4776 -0.5155  0.4512
 9180TIP3    H248956   0.388   2.516  13.564 -0.2926 -3.0729 -1.3002
 9181TIP3   OH248957   0.242   3.814  12.517 -0.2754 -0.1069 -0.4858
 9181TIP3    H148958   0.318   3.763  12.545 -0.1416  0.9641  1.1591
 9181TIP3    H248959   0.171   3.786  12.575 -0.3130  1.2149  0.1349
 9182TIP3   OH248960   6.549   5.233   5.828  0.0230  0.3852 -0.1932
 9182TIP3    H148961   6.603   5.296   5.876 -0.5923  0.1801  0.8002
 9182TIP3    H248962   6.551   5.154   5.883 -0.7936  0.1894 -0.4407
 9183TIP3   OH248963   4.321   5.305  12.099  1.1035  0.1870 -0.5295
 9183TIP3    H148964   4.371   5.387  12.105  0.1178  0.7864 -0.2395
 9183TIP3    H248965   4.365   5.245  12.159  1.1021  0.9042  0.1962
 9184TIP3   OH248966   5.528   5.152  10.992  0.3597  0.0258 -0.0348
 9184TIP3    H148967   5.483   5.150  11.076  1.6283  1.6529  0.7121
 9184TIP3    H248968   5.499   5.073  10.947 -1.6136 -0.0099  1.2594
 9185TIP3   OH248969   0.176   2.488  12.129 -0.9862  0.1984 -0.3903
 9185TIP3    H148970   0.192   2.546  12.055 -0.3739  2.5870  1.5400
 9185TIP3    H248971   0.195   2.400  12.096  0.8625  1.3797 -2.5748
 9186TIP3   OH248972   3.782   3.768  14.588 -0.2425  0.3470 -0.1839
 9186TIP3    H148973   3.850   3.835  14.588  0.0940  0.0105  0.8730
 9186TIP3    H248974   3.713   3.802  14.645 -0.6569  0.3792 -0.6987
 9187TIP3   OH248975   6.623   3.435   1.479  0.0015  0.2740  0.1137
 9187TIP3    H148976   6.632   3.436   1.574 -0.4709 -0.7960  0.1713
 9187TIP3    H248977   6.702   3.392   1.447  1.5231  3.1291 -0.1612
 9188TIP3   OH248978   2.059   3.859   0.888  0.4718  0.0601  0.1272
 9188TIP3    H148979   2.067   3.846   0.793 -0.3729 -2.8954  0.4190
 9188TIP3    H248980   2.144   3.832   0.923  0.5542  0.5246  0.2968
 9189TIP3   OH248981   3.311   5.009   5.646  0.3086 -0.1263 -0.5863
 9189TIP3    H148982   3.395   5.055   5.639  0.5560 -0.6365 -0.9858
 9189TIP3    H248983   3.333   4.926   5.689 -0.1079  0.0465 -0.0319
 9190TIP3   OH248984   2.718   1.823   5.454 -0.0891  0.1933  0.6038
 9190TIP3    H148985   2.769   1.893   5.413 -1.0969 -0.6143 -2.1433
 9190TIP3    H248986   2.634   1.863   5.476 -0.5386 -0.0395 -0.6496
 9191TIP3   OH248987   2.778   3.903   5.909 -0.4590  0.2919  0.3938
 9191TIP3    H148988   2.727   3.831   5.947 -3.2077  2.0249  0.1276
 9191TIP3    H248989   2.814   3.949   5.984 -3.2506  1.8310  0.8459
 9192TIP3   OH248990   3.994   1.616  15.977  0.2350 -0.2083 -0.0399
 9192TIP3    H148991   4.078   1.653  16.005  0.7061  0.2044 -1.9258
 9192TIP3    H248992   4.003   1.522  15.995  0.7814 -0.0615  0.5058
 9193TIP3   OH248993   3.007   6.035  11.201 -0.0725 -0.3751  0.4209
 9193TIP3    H148994   3.067   6.055  11.129  0.9279 -1.9002  0.7996
 9193TIP3    H248995   2.934   6.096  11.189  0.5939  0.1352 -1.2396
 9194TIP3   OH248996   4.413   3.648   0.950 -0.1123 -0.2110  0.0992
 9194TIP3    H148997   4.460   3.718   0.903  0.4568  1.1268  2.5729
 9194TIP3    H248998   4.480   3.582   0.968 -0.1039 -0.2481 -0.0670
 9195TIP3   OH248999   2.587   1.742   1.654 -0.7873 -0.0981  0.0386
 9195TIP3    H149000   2.522   1.736   1.585 -0.2979 -1.9432 -0.2968
 9195TIP3    H249001   2.671   1.730   1.609 -0.4754 -1.5043  0.9398
 9196TIP3   OH249002   5.920   4.095  17.150  0.0847 -0.1161  0.3906
 9196TIP3    H149003   5.940   4.018  17.202  0.5176 -0.5446 -0.3932
 9196TIP3    H249004   5.886   4.059  17.067 -1.0499  0.5489  0.5492
 9197TIP3   OH249005   1.015   2.654   2.253 -0.2824 -0.4285  0.0136
 9197TIP3    H149006   0.925   2.665   2.223 -0.6299 -0.2816  1.0935
 9197TIP3    H249007   1.048   2.579   2.203 -0.9166 -0.3189 -0.5706
 9198TIP3   OH249008   1.118   2.717   3.480  0.6051 -0.0683  0.2883
 9198TIP3    H149009   1.173   2.791   3.457 -0.2472  0.5780  0.3314
 9198TIP3    H249010   1.122   2.713   3.575 -1.3805  1.4997  0.4633
 9199TIP3   OH249011   2.187   4.730   4.147 -0.6646  0.0399  0.7412
 9199TIP3    H149012   2.230   4.776   4.075  1.6779 -1.7647  0.9657
 9199TIP3    H249013   2.107   4.694   4.107  0.3722 -0.5605 -0.8684
 9200TIP3   OH249014   1.353   1.882   4.207 -0.1257 -0.3985 -0.3416
 9200TIP3    H149015   1.354   1.975   4.186  0.2227 -0.1535  0.7353
 9200TIP3    H249016   1.261   1.864   4.228  0.0857  0.0963  1.0996
 9201TIP3   OH249017   5.270   2.692  12.548  0.3328  0.2337  0.0567
 9201TIP3    H149018   5.346   2.716  12.602  0.5184 -1.3341  0.5060
 9201TIP3    H249019   5.304   2.628  12.486 -0.7557 -0.9394  0.6594
 9202TIP3   OH249020   6.705   0.250  14.617  0.0402  0.1728  0.0149
 9202TIP3    H149021   6.638   0.195  14.656 -1.5470  2.7073  0.9842
 9202TIP3    H249022   6.779   0.246  14.679 -0.1613 -0.6743  0.1942
 9203TIP3   OH249023   2.749   2.016  17.012 -0.1638 -0.4166 -0.3942
 9203TIP3    H149024   2.810   2.068  17.064  1.3577  1.0567 -3.4570
 9203TIP3    H249025   2.688   1.978  17.075  0.2289  3.0394  2.1683
 9204TIP3   OH249026   4.304   6.236  12.416 -0.1692 -0.1028  0.2057
 9204TIP3    H149027   4.323   6.187  12.496 -0.1671  0.6266  0.6534
 9204TIP3    H249028   4.340   6.323  12.432 -0.7363  0.2314 -0.3439
 9205TIP3   OH249029   0.863   1.725  15.048 -0.7829  0.1333 -0.1549
 9205TIP3    H149030   0.866   1.629  15.053  1.1711  0.1616 -0.2333
 9205TIP3    H249031   0.837   1.753  15.136  0.1217 -0.4363  0.3084
 9206TIP3   OH249032   6.332   4.184  14.760 -0.6581 -0.0889 -0.2937
 9206TIP3    H149033   6.322   4.177  14.665 -1.6415  2.8666 -0.4585
 9206TIP3    H249034   6.424   4.209  14.773 -0.1575 -1.8241 -0.3512
 9207TIP3   OH249035   3.012   1.949   3.307  0.1136 -0.2959 -0.1626
 9207TIP3    H149036   3.050   1.894   3.375  1.0700 -0.4195 -0.7860
 9207TIP3    H249037   3.047   1.914   3.225 -1.1383 -0.2410 -0.7422
 9208TIP3   OH249038   4.152   0.040  16.249  0.4012  0.4068  0.1477
 9208TIP3    H149039   4.116  -0.009  16.176 -1.7334 -0.1136  1.5037
 9208TIP3    H249040   4.134   0.132  16.227  0.8205  0.3271 -0.5308
 9209TIP3   OH249041   2.025   0.916   6.078 -0.0911 -0.4327 -0.1240
 9209TIP3    H149042   2.051   0.847   6.139 -0.0386  0.3707  0.7759
 9209TIP3    H249043   2.081   0.990   6.100 -1.0518  0.3293 -0.1855
 9210TIP3   OH249044   0.949   4.204   2.726  0.0157 -0.2414 -0.4009
 9210TIP3    H149045   0.957   4.276   2.664 -1.5136 -0.2845 -0.6685
 9210TIP3    H249046   0.871   4.225   2.778 -0.1745 -1.4535 -0.1731
 9211TIP3   OH249047   3.580   5.143   5.623  0.1268 -0.4434  0.1425
 9211TIP3    H149048   3.528   5.221   5.645  1.1859 -0.2416  2.1029
 9211TIP3    H249049   3.667   5.178   5.603  0.5415 -1.0924  0.7835
 9212TIP3   OH249050   1.337   6.459   0.921 -0.0186 -0.5686  0.0507
 9212TIP3    H149051   1.326   6.364   0.925 -2.4166 -0.3019  0.0058
 9212TIP3    H249052   1.384   6.481   1.001  0.3220 -1.7558  0.1869
 9213TIP3   OH249053   5.641   5.768  15.875  0.4806 -0.6243  0.3030
 9213TIP3    H149054   5.593   5.808  15.802 -2.6205 -1.2704  1.9166
 9213TIP3    H249055   5.733   5.787  15.856 -0.5852  3.7509 -1.0953
 9214TIP3   OH249056   1.978   4.778   1.132  0.3590  1.2128 -0.4592
 9214TIP3    H149057   2.060   4.735   1.106  0.5270  0.0749  1.7825
 9214TIP3    H249058   1.961   4.841   1.063  1.9175 -0.1471 -2.1348
 9215TIP3   OH249059   2.656   2.571  10.560  0.0779  0.4311  0.1300
 9215TIP3    H149060   2.652   2.591  10.466  0.8333 -0.2125 -0.0444
 9215TIP3    H249061   2.598   2.636  10.600 -0.0403  0.8898 -0.7532
 9216TIP3   OH249062   5.455   5.310   3.456 -0.2389 -0.1581 -0.1940
 9216TIP3    H149063   5.392   5.346   3.394 -0.0688  0.0408 -0.2517
 9216TIP3    H249064   5.402   5.279   3.529 -0.1852  2.9911  1.2615
 9217TIP3   OH249065   4.504   2.339  16.359 -0.2080  0.5085 -0.0566
 9217TIP3    H149066   4.507   2.267  16.296  0.9565 -0.4669  1.0763
 9217TIP3    H249067   4.412   2.345  16.385 -0.5646  0.4153 -1.2512
 9218TIP3   OH249068   3.462   5.849  15.523  0.5156  0.2647 -0.2799
 9218TIP3    H149069   3.515   5.916  15.479 -0.4036  0.5207 -1.0131
 9218TIP3    H249070   3.372   5.881  15.516  0.4987  1.2849  3.5552
 9219TIP3   OH249071   6.593   4.245  12.244 -0.3559  0.6905 -1.1658
 9219TIP3    H149072   6.540   4.184  12.193 -1.1221  1.1988 -0.9764
 9219TIP3    H249073   6.683   4.226  12.217 -0.3716 -2.0055  0.4644
 9220TIP3   OH249074   6.224   5.874  14.888 -0.2873  0.0510  0.4523
 9220TIP3    H149075   6.229   5.934  14.814  0.2527  0.8901  1.1594
 9220TIP3    H249076   6.297   5.814  14.876  0.0545  0.4488  0.5216
 9221TIP3   OH249077   2.056   6.775  15.126 -0.1804 -0.0666  0.6120
 9221TIP3    H149078   2.131   6.723  15.156 -0.2901 -0.7706 -0.3260
 9221TIP3    H249079   2.084   6.866  15.138  0.8015 -0.3198  0.3318
 9222TIP3   OH249080   6.506   5.480  11.329 -0.4471  0.0903  0.3858
 9222TIP3    H149081   6.517   5.513  11.418  0.9471  0.2341  0.1636
 9222TIP3    H249082   6.463   5.552  11.281 -0.5022  0.2966  0.7468
 9223TIP3   OH249083   0.127   6.520  13.557 -0.2077  0.3002 -0.3671
 9223TIP3    H149084   0.206   6.551  13.601  0.5786 -0.4790 -1.1985
 9223TIP3    H249085   0.065   6.592  13.566  0.5854  0.9096  0.3351
 9224TIP3   OH249086   3.784   1.348  15.700 -0.4587  0.2944 -0.7474
 9224TIP3    H149087   3.807   1.422  15.644 -1.0644  0.2108 -1.1086
 9224TIP3    H249088   3.777   1.386  15.788 -1.6817  0.8507 -1.0790
 9225TIP3   OH249089   6.082   3.689   4.647  0.2136  0.7322  0.4377
 9225TIP3    H149090   6.116   3.730   4.568 -0.6352 -1.6345 -1.2078
 9225TIP3    H249091   6.013   3.630   4.616  0.8135 -1.2719  2.7842
 9226TIP3   OH249092   2.905   6.105   5.229  0.3749 -0.2488 -0.5679
 9226TIP3    H149093   2.821   6.062   5.214  0.7760 -1.3201  0.1535
 9226TIP3    H249094   2.958   6.039   5.275  0.2061  1.8260  2.7347
 9227TIP3   OH249095   3.451   5.423  12.420  0.1415  0.9892  0.8771
 9227TIP3    H149096   3.374   5.461  12.379  0.0475  0.0427  0.1578
 9227TIP3    H249097   3.524   5.451  12.365 -0.0221 -0.5654 -0.1516
 9228TIP3   OH249098   5.160   5.037  13.230  0.4683 -0.4052  0.5748
 9228TIP3    H149099   5.067   5.044  13.252  0.6158 -0.6828  1.3141
 9228TIP3    H249100   5.179   5.117  13.182  0.2375  0.4806  1.9192
 9229TIP3   OH249101   0.645   1.260   0.820 -0.4145  0.1353  0.1293
 9229TIP3    H149102   0.692   1.219   0.748  0.5626 -0.2976  0.9877
 9229TIP3    H249103   0.715   1.298   0.874 -1.1670  0.8962  0.5676
 9230TIP3   OH249104   0.534   6.011  13.543 -0.2556 -0.3855 -0.3342
 9230TIP3    H149105   0.494   6.021  13.629 -0.9938 -1.2133 -0.5742
 9230TIP3    H249106   0.618   6.056  13.551 -0.5623  0.0419  0.6400
 9231TIP3   OH249107   3.313   0.278  11.368 -0.0340  0.2664  0.1687
 9231TIP3    H149108   3.250   0.207  11.374 -2.1223  2.1916  1.5887
 9231TIP3    H249109   3.395   0.239  11.398 -1.1238 -1.5532  0.8654
 9232TIP3   OH249110   4.418   3.322   6.413 -0.0547  0.5816  0.3269
 9232TIP3    H149111   4.405   3.229   6.396  0.4849  0.3025  1.4398
 9232TIP3    H249112   4.334   3.362   6.392 -0.1110 -0.0651 -0.7392
 9233TIP3   OH249113   4.516   0.571  12.006  0.6313  0.1541  0.2070
 9233TIP3    H149114   4.457   0.565  11.930  0.8914  2.2293 -0.2044
 9233TIP3    H249115   4.495   0.656  12.045  2.1635  0.1470  1.0595
 9234TIP3   OH249116   4.136   0.750  11.552  0.2830  0.3062 -0.8874
 9234TIP3    H149117   4.128   0.758  11.647  2.7732 -0.5727 -0.5568
 9234TIP3    H249118   4.051   0.779  11.518 -0.0750  2.2224  1.4921
 9235TIP3   OH249119   1.961   0.294   4.126  0.1885 -0.6556 -0.2593
 9235TIP3    H149120   1.974   0.199   4.122  3.9233 -0.1929 -0.6212
 9235TIP3    H249121   1.958   0.314   4.220  0.0775 -1.0360 -0.1794
 9236TIP3   OH249122   6.662   3.354  11.489  0.2294 -0.5099 -0.0206
 9236TIP3    H149123   6.733   3.295  11.516  1.9626  1.7293  0.4753
 9236TIP3    H249124   6.679   3.372  11.397  1.4444  1.4879  0.5516
 9237TIP3   OH249125   3.206   3.452  16.444  0.2053 -0.1972 -0.0588
 9237TIP3    H149126   3.136   3.446  16.379 -0.5238  1.2838  0.5779
 9237TIP3    H249127   3.245   3.538  16.430  1.6392 -0.8476 -0.1300
 9238TIP3   OH249128   0.100   3.564   1.124 -0.1204  0.6971  0.0918
 9238TIP3    H149129   0.117   3.484   1.174 -0.2942  0.8466  0.3893
 9238TIP3    H249130   0.128   3.542   1.035  2.0514  1.0946  0.6611
 9239TIP3   OH249131   5.907   4.299   0.331 -0.3042 -0.2987  0.1168
 9239TIP3    H149132   5.833   4.289   0.271  0.7883  1.2058 -1.5244
 9239TIP3    H249133   5.882   4.370   0.389  0.5884  1.4856 -1.6353
 9240TIP3   OH249134   4.369   5.146  16.454  0.1087  0.2933 -0.2948
 9240TIP3    H149135   4.458   5.180  16.466 -0.7325  1.8231  1.9487
 9240TIP3    H249136   4.369   5.062  16.500  0.7100 -0.2715 -1.3133
 9241TIP3   OH249137   5.948   5.392  12.427  0.0278  0.2281 -0.4584
 9241TIP3    H149138   6.043   5.390  12.438 -0.0321  0.2560  0.0881
 9241TIP3    H249139   5.914   5.363  12.511 -0.4585  0.7820 -0.4600
 9242TIP3   OH249140   4.235   0.435  15.565 -0.1591  0.3271  0.1259
 9242TIP3    H149141   4.234   0.499  15.636  0.3948  0.0923  0.3532
 9242TIP3    H249142   4.145   0.431  15.534  0.2615  3.2351 -1.6873
 9243TIP3   OH249143   0.106   4.537  13.998 -0.2255  0.2534 -0.1514
 9243TIP3    H149144   0.068   4.625  14.003  0.7324  0.6781 -0.1195
 9243TIP3    H249145   0.182   4.541  14.057 -0.4347 -0.7288  0.1863
 9244TIP3   OH249146   5.163   4.065   4.135 -0.2774 -0.3551 -0.4977
 9244TIP3    H149147   5.167   3.974   4.104  0.3777  0.1982 -2.0594
 9244TIP3    H249148   5.107   4.110   4.073  1.7202  0.9553 -1.3924
 9245TIP3   OH249149   5.236   0.161   0.313 -0.3263 -0.3499 -0.1003
 9245TIP3    H149150   5.145   0.168   0.339 -0.5075  0.7729 -0.9810
 9245TIP3    H249151   5.234   0.115   0.229  0.0944 -2.1517  0.8397
 9246TIP3   OH249152   6.334   3.789  11.818 -0.2666  0.0257 -0.3129
 9246TIP3    H149153   6.406   3.804  11.879 -0.0712 -1.4777 -0.1425
 9246TIP3    H249154   6.264   3.845  11.850  0.6281  1.0493 -0.1221
 9247TIP3   OH249155   1.434   2.876  10.360 -0.5350  0.2429 -0.4681
 9247TIP3    H149156   1.409   2.785  10.374  0.1043  0.0886 -0.2688
 9247TIP3    H249157   1.352   2.924  10.358 -0.8127 -0.1332  0.9859
 9248TIP3   OH249158   0.776   5.143  13.881  0.7378 -0.2105 -0.0217
 9248TIP3    H149159   0.817   5.068  13.924  1.0932 -0.4867 -0.8460
 9248TIP3    H249160   0.718   5.105  13.816  0.0511  0.2108  0.3358
 9249TIP3   OH249161   4.415   3.963   5.528 -0.4788  0.5072 -0.1445
 9249TIP3    H149162   4.331   3.919   5.537 -0.2172  0.1291  0.4711
 9249TIP3    H249163   4.480   3.898   5.555  0.0844  0.4814 -1.5539
 9250TIP3   OH249164   0.769   4.712   2.515  0.0952 -0.1060  0.0681
 9250TIP3    H149165   0.811   4.776   2.573 -0.1948  0.2892 -0.1566
 9250TIP3    H249166   0.831   4.700   2.444 -0.3421  0.8104 -0.4913
 9251TIP3   OH249167   2.691   4.978   5.235 -0.3729 -0.1786 -0.2421
 9251TIP3    H149168   2.619   5.012   5.288  0.0767  1.5210 -0.6739
 9251TIP3    H249169   2.656   4.979   5.145  0.5533  1.7775 -0.6088
 9252TIP3   OH249170   2.681   5.627  15.860  0.3210 -0.5630  0.5499
 9252TIP3    H149171   2.731   5.678  15.795  0.3426 -0.6355  0.5092
 9252TIP3    H249172   2.633   5.693  15.910 -0.3604 -0.5534 -0.0970
 9253TIP3   OH249173   5.645   5.096   2.038  0.1526 -0.0327  0.0736
 9253TIP3    H149174   5.577   5.032   2.017  0.1426 -0.1634  0.5042
 9253TIP3    H249175   5.622   5.127   2.126  0.1132  0.6140 -0.1615
 9254TIP3   OH249176   6.545   6.204  12.430  0.1995  0.0895  0.4679
 9254TIP3    H149177   6.576   6.170  12.514 -1.3888 -0.9051  0.6673
 9254TIP3    H249178   6.489   6.135  12.395 -0.4932  1.1912 -0.6290
 9255TIP3   OH249179   1.488   5.643  15.199  0.3675  0.0901  0.2876
 9255TIP3    H149180   1.395   5.658  15.218  0.3539 -0.0416  0.3262
 9255TIP3    H249181   1.509   5.562  15.246 -0.0149 -1.0044 -1.3788
 9256TIP3   OH249182   4.471   2.987  16.013 -0.3108  0.1866 -0.3905
 9256TIP3    H149183   4.434   3.076  16.007  0.3502  0.4871 -0.0777
 9256TIP3    H249184   4.395   2.929  16.010 -0.8121  0.8013  0.2778
 9257TIP3   OH249185   4.357   2.272   2.064  0.2490 -0.2023 -0.2731
 9257TIP3    H149186   4.357   2.360   2.102 -1.5340 -0.1918 -0.2455
 9257TIP3    H249187   4.347   2.287   1.970  0.8007 -0.3522 -0.3566
 9258TIP3   OH249188   3.253   6.306   2.521 -0.6545 -0.4355  0.0232
 9258TIP3    H149189   3.184   6.246   2.496 -0.2731 -0.3382 -1.3108
 9258TIP3    H249190   3.210   6.392   2.524 -0.7520 -0.4791 -0.0996
 9259TIP3   OH249191   4.026   0.941   1.456 -0.2394  0.3344  0.0228
 9259TIP3    H149192   4.023   1.016   1.516 -1.5722  0.3437 -0.0426
 9259TIP3    H249193   3.971   0.966   1.382 -0.7458 -0.7226  0.0227
 9260TIP3   OH249194   0.283   4.644   5.855 -0.4805 -0.6695  0.2355
 9260TIP3    H149195   0.306   4.728   5.896  0.7685 -1.0097  0.2563
 9260TIP3    H249196   0.367   4.608   5.827 -1.2391 -0.7573 -2.0246
 9261TIP3   OH249197   4.960   6.048   4.020  0.0672  0.2199  0.0786
 9261TIP3    H149198   4.882   6.102   4.028 -0.1824 -0.2391  0.8073
 9261TIP3    H249199   4.930   5.960   4.043  0.7307 -0.0177  0.0416
 9262TIP3   OH249200   1.225   4.193  12.634  0.6283 -0.2723  0.2004
 9262TIP3    H149201   1.202   4.112  12.590  0.4530 -0.4709  0.6519
 9262TIP3    H249202   1.257   4.165  12.720  0.1397  0.1660  0.5283
 9263TIP3   OH249203   3.539   6.069  13.855  0.5637 -0.2604  0.2567
 9263TIP3    H149204   3.595   6.035  13.784  0.2061  0.1207 -0.2133
 9263TIP3    H249205   3.600   6.087  13.926  1.5990  3.3289 -1.3918
 9264TIP3   OH249206   2.177   2.671  13.708 -0.3931 -0.2966  0.3898
 9264TIP3    H149207   2.264   2.680  13.747 -0.5604  0.2683  0.6450
 9264TIP3    H249208   2.187   2.707  13.620 -0.2719 -0.5970  0.2817
 9265TIP3   OH249209   4.365   2.527  11.256  0.0047 -0.0265 -0.4586
 9265TIP3    H149210   4.408   2.543  11.172  0.2435  2.5065  0.0863
 9265TIP3    H249211   4.431   2.481  11.308  0.3716 -0.3178 -1.1726
 9266TIP3   OH249212   2.090   3.609  12.594 -0.2904  0.1184  0.6798
 9266TIP3    H149213   1.999   3.583  12.608 -1.4455  2.4036 -2.0607
 9266TIP3    H249214   2.138   3.569  12.667 -3.2593 -2.1690  1.4847
 9267TIP3   OH249215   2.554   4.146  12.035 -0.1267 -0.1980 -0.3018
 9267TIP3    H149216   2.480   4.193  12.074  0.1337  0.0487 -0.1001
 9267TIP3    H249217   2.546   4.161  11.941 -0.2039  0.0219 -0.2609
 9268TIP3   OH249218   3.522   5.343   2.938  0.0155  0.6313  0.5094
 9268TIP3    H149219   3.537   5.324   3.030  0.4153 -0.6316  0.1891
 9268TIP3    H249220   3.427   5.345   2.928 -0.0372  1.6852  1.1228
 9269TIP3   OH249221   3.473   5.671   3.844 -0.2832 -0.3344  0.1815
 9269TIP3    H149222   3.397   5.695   3.897 -0.4914 -2.4814  0.8865
 9269TIP3    H249223   3.535   5.632   3.906  1.2853  1.0787 -0.4459
 9270TIP3   OH249224   5.777   6.377  15.394 -0.3605 -0.1861 -0.0235
 9270TIP3    H149225   5.857   6.411  15.353 -1.3263  1.5338 -0.5419
 9270TIP3    H249226   5.741   6.316  15.329 -0.3299  0.2938 -0.4995
 9271TIP3   OH249227   1.860   5.526   6.059 -0.4016 -0.0319  0.2014
 9271TIP3    H149228   1.941   5.575   6.046 -0.7312 -0.2151 -3.0141
 9271TIP3    H249229   1.866   5.453   5.997 -3.2405  0.2666 -0.4974
 9272TIP3   OH249230   3.731   1.642   4.592 -0.2147  0.1569  0.1446
 9272TIP3    H149231   3.730   1.677   4.681  0.5546  1.1817 -0.2516
 9272TIP3    H249232   3.693   1.554   4.601  1.2853 -0.3595  1.7270
 9273TIP3   OH249233   3.156   3.033  11.241  0.2841  0.5009 -0.4043
 9273TIP3    H149234   3.129   3.009  11.152  1.5178  0.6740 -0.8383
 9273TIP3    H249235   3.245   3.067  11.230 -0.1696  2.0885  0.6676
 9274TIP3   OH249236   0.583   4.474  16.257 -0.7281 -0.6349  0.2642
 9274TIP3    H149237   0.489   4.458  16.265 -0.9951  0.9935  0.6072
 9274TIP3    H249238   0.598   4.482  16.163 -0.8956 -1.1136  0.1963
 9275TIP3   OH249239   5.858   2.548  16.716 -0.0903  0.2060  0.0370
 9275TIP3    H149240   5.834   2.594  16.636  0.2493 -1.7128 -1.2135
 9275TIP3    H249241   5.791   2.481  16.727  2.5629 -2.8298 -1.4909
 9276TIP3   OH249242   2.752   6.483   3.574 -0.4777 -0.0439  0.3480
 9276TIP3    H149243   2.766   6.464   3.481 -2.4104  1.3669 -0.2617
 9276TIP3    H249244   2.701   6.409   3.607 -0.4345 -0.1754  0.1188
 9277TIP3   OH249245   2.956   2.843   4.730  0.1953 -0.0816 -0.3509
 9277TIP3    H149246   2.921   2.896   4.802 -0.3179 -1.1024  0.1599
 9277TIP3    H249247   3.037   2.806   4.765  1.1575  1.2827 -1.1065
 9278TIP3   OH249248   2.076   5.085  16.816  0.1381  0.7665  0.1188
 9278TIP3    H149249   2.034   5.033  16.885 -1.1098  1.7530  0.1357
 9278TIP3    H249250   2.003   5.114  16.761  0.9647  1.2716 -0.7267
 9279TIP3   OH249251   0.680   4.547  15.052 -0.0539  0.0391 -0.0373
 9279TIP3    H149252   0.634   4.631  15.047 -0.8310 -0.3202  0.9634
 9279TIP3    H249253   0.622   4.485  15.008  0.7420  0.1099 -1.2060
 9280TIP3   OH249254   0.610   3.003   1.958  0.1492  0.1543  0.0832
 9280TIP3    H149255   0.694   2.986   2.000  0.3405 -0.7466 -0.6433
 9280TIP3    H249256   0.606   3.099   1.951  0.7036  0.2440  0.9357
 9281TIP3   OH249257   1.041   5.151   1.894 -0.2959  0.1639  0.6513
 9281TIP3    H149258   1.009   5.062   1.907  0.9505 -0.2906  0.7236
 9281TIP3    H249259   0.965   5.207   1.907 -1.0349 -0.8832  0.8270
 9282TIP3   OH249260   2.523   0.331   3.620  0.4390  0.4642  0.0320
 9282TIP3    H149261   2.546   0.398   3.684  1.5844  0.2648 -0.1567
 9282TIP3    H249262   2.513   0.379   3.537 -2.5507  0.9473  0.6213
 9283TIP3   OH249263   4.611   1.594  15.261  0.4806 -0.4944 -0.3512
 9283TIP3    H149264   4.613   1.503  15.292 -0.4427 -0.1474  0.7667
 9283TIP3    H249265   4.534   1.632  15.303  1.2177  0.9921 -0.2995
 9284TIP3   OH249266   3.342   2.716  13.400 -0.6649 -0.6366 -0.4244
 9284TIP3    H149267   3.291   2.651  13.449  2.5704 -0.3360  3.6038
 9284TIP3    H249268   3.396   2.664  13.341 -0.3901 -1.4269  0.5060
 9285TIP3   OH249269   2.331   1.638  12.127 -0.2081  0.2797  0.5839
 9285TIP3    H149270   2.324   1.560  12.181 -0.8629  0.4417  0.7391
 9285TIP3    H249271   2.281   1.617  12.048  1.5827 -0.3288 -0.4063
 9286TIP3   OH249272   5.575   3.239   0.389 -0.3490  0.0405 -0.4264
 9286TIP3    H149273   5.540   3.292   0.461  1.7057  1.0002 -0.0981
 9286TIP3    H249274   5.566   3.148   0.419 -0.8642  0.3592  0.3931
 9287TIP3   OH249275   6.228   6.289   2.020  0.0011  0.4017 -0.5215
 9287TIP3    H149276   6.167   6.332   2.080  0.6386 -2.1453  2.0586
 9287TIP3    H249277   6.172   6.243   1.957 -0.7935 -0.9722  1.1403
 9288TIP3   OH249278   4.320   4.601  11.731  0.4072 -0.2346 -0.1969
 9288TIP3    H149279   4.228   4.625  11.730  0.4374 -0.0594  1.0483
 9288TIP3    H249280   4.346   4.601  11.639 -0.8564 -0.3906 -0.5557
 9289TIP3   OH249281   6.699   1.106   5.069 -0.0403 -0.2919 -0.1165
 9289TIP3    H149282   6.673   1.014   5.067 -1.9675  0.2331  0.3824
 9289TIP3    H249283   6.686   1.136   4.979  1.6771 -0.7753 -0.5525
 9290TIP3   OH249284   5.708   0.512  16.122 -0.5325  0.2153  0.1987
 9290TIP3    H149285   5.642   0.469  16.068 -0.3660  0.8324 -0.4903
 9290TIP3    H249286   5.725   0.449  16.193 -0.3465 -0.8178 -0.7502
 9291TIP3   OH249287   0.898   3.743  16.298 -0.0468 -0.0379  0.2466
 9291TIP3    H149288   0.973   3.786  16.255 -0.7469  0.5798 -0.3691
 9291TIP3    H249289   0.936   3.665  16.338  0.9151  0.2039 -0.1591
 9292TIP3   OH249290   3.248   6.039  15.524  0.0665  0.2907  0.1045
 9292TIP3    H149291   3.206   6.037  15.610  0.2293  2.0460  0.2590
 9292TIP3    H249292   3.219   6.122  15.486  0.0029 -0.4796 -1.5379
 9293TIP3   OH249293   1.635   0.451   2.747  0.2467 -0.0307  0.0583
 9293TIP3    H149294   1.704   0.386   2.736 -1.5257 -2.2418  1.3868
 9293TIP3    H249295   1.610   0.475   2.658  1.3569 -0.6999 -0.4382
 9294TIP3   OH249296   3.613   2.353   1.527 -0.8421  0.3027 -0.8339
 9294TIP3    H149297   3.589   2.331   1.617  0.8394 -0.7522 -0.6005
 9294TIP3    H249298   3.598   2.272   1.478 -1.2057  0.7028 -1.3912
 9295TIP3   OH249299   2.932   6.689   1.419  0.4064 -0.5409 -0.2382
 9295TIP3    H149300   2.988   6.616   1.445  3.0887  1.6843  0.5199
 9295TIP3    H249301   2.974   6.724   1.340 -0.9528  0.0911 -0.7010
 9296TIP3   OH249302   3.156   6.097   3.706 -0.0195  0.2043 -0.3695
 9296TIP3    H149303   3.102   6.161   3.660 -0.4383 -0.9009 -1.4562
 9296TIP3    H249304   3.115   6.089   3.792 -1.1271 -0.0248 -0.9040
 9297TIP3   OH249305   2.201   6.202   0.486 -0.4781 -0.1410 -0.2761
 9297TIP3    H149306   2.124   6.151   0.462  0.5804 -1.5820 -0.6919
 9297TIP3    H249307   2.262   6.138   0.523 -0.0689  1.2310  1.4554
 9298TIP3   OH249308   5.282   3.535  11.698 -0.4138  0.5668  0.1299
 9298TIP3    H149309   5.363   3.490  11.719 -0.0880  1.2455  0.3327
 9298TIP3    H249310   5.237   3.476  11.637 -0.2829 -0.3187  0.8709
 9299TIP3   OH249311   4.281   5.102   2.330 -0.0353  0.7212  0.2422
 9299TIP3    H149312   4.353   5.116   2.269 -1.9465 -0.7757 -2.4675
 9299TIP3    H249313   4.235   5.025   2.296 -1.2506 -0.1097  3.5331
 9300TIP3   OH249314   2.906   6.774   0.443 -0.2724  0.2083  0.0433
 9300TIP3    H149315   2.830   6.832   0.455  0.6720  1.3260  0.7330
 9300TIP3    H249316   2.977   6.818   0.489  0.4825 -1.4898  0.5301
 9301TIP3   OH249317   4.222   0.304  10.991 -0.1711 -0.7887 -0.1947
 9301TIP3    H149318   4.155   0.335  10.930  0.3393 -0.4080 -0.5761
 9301TIP3    H249319   4.246   0.217  10.958  1.1068 -0.0116 -1.3919
 9302TIP3   OH249320   4.505   0.530  13.912 -0.2845  0.3345 -0.2931
 9302TIP3    H149321   4.485   0.585  13.987 -1.3727 -1.4078  0.7264
 9302TIP3    H249322   4.456   0.449  13.928  1.5270 -1.0507 -1.5978
 9303TIP3   OH249323   5.381   2.140  16.405  0.0381 -0.1485 -0.4441
 9303TIP3    H149324   5.301   2.193  16.406  0.3775  0.3512  1.4088
 9303TIP3    H249325   5.353   2.054  16.374 -1.1293  0.1753 -0.3049
 9304TIP3   OH249326   2.238   4.058  15.678 -0.6247  0.2507  0.0537
 9304TIP3    H149327   2.194   4.002  15.742 -0.0907 -0.4498 -0.1833
 9304TIP3    H249328   2.326   4.021  15.671 -0.9682 -0.2519 -1.7796
 9305TIP3   OH249329   3.895   6.466   1.169 -0.4135 -0.1215  0.7329
 9305TIP3    H149330   3.929   6.404   1.104 -1.4278 -1.4737  1.4643
 9305TIP3    H249331   3.965   6.529   1.182 -0.2862  0.3160 -1.8707
 9306TIP3   OH249332   5.832   0.776   3.076  0.4955 -0.1923  0.0439
 9306TIP3    H149333   5.773   0.713   3.119 -0.4737 -0.2358 -1.3038
 9306TIP3    H249334   5.892   0.803   3.145 -1.3273  0.1209  1.5580
 9307TIP3   OH249335   3.420   4.340  16.279  0.4563  0.4348  0.0526
 9307TIP3    H149336   3.497   4.282  16.278 -0.0516 -0.2617  1.0993
 9307TIP3    H249337   3.347   4.283  16.256 -0.1401  0.4988  1.7017
 9308TIP3   OH249338   2.407   0.276   1.346  0.6781 -0.2566 -0.1710
 9308TIP3    H149339   2.394   0.337   1.418  1.3765  1.5994 -1.5911
 9308TIP3    H249340   2.472   0.214   1.378 -1.3571 -1.3895  1.9388
 9309TIP3   OH249341   6.446   5.343  12.224 -0.2142 -0.5301  0.6323
 9309TIP3    H149342   6.434   5.416  12.163  0.7717 -0.9203 -0.0371
 9309TIP3    H249343   6.471   5.385  12.306 -0.4347 -0.0604  0.4628
 9310TIP3   OH249344   4.857   3.384  15.036 -0.0133  0.2581  0.3920
 9310TIP3    H149345   4.847   3.322  15.109  0.8388 -0.7420 -0.3277
 9310TIP3    H249346   4.774   3.379  14.989  0.0914 -0.4492  0.2655
 9311TIP3   OH249347   2.087   0.725   1.905 -0.1467 -0.2767  0.0551
 9311TIP3    H149348   2.089   0.708   1.999  0.2484  0.5637  0.2043
 9311TIP3    H249349   2.058   0.816   1.898 -0.1799 -0.3394 -0.6365
 9312TIP3   OH249350   5.891   3.684   4.321 -0.0025  0.4042 -0.5284
 9312TIP3    H149351   5.821   3.627   4.352  1.8510 -1.1095  1.0043
 9312TIP3    H249352   5.894   3.756   4.385  0.0337  0.3191 -0.4344
 9313TIP3   OH249353   2.126   3.097   3.590  0.4373 -0.2517  0.3147
 9313TIP3    H149354   2.182   3.127   3.662 -1.0407  2.2245  0.4705
 9313TIP3    H249355   2.179   3.112   3.512  2.0271 -2.8912  0.7963
 9314TIP3   OH249356   6.349   3.287  12.946  0.0537 -0.6066  0.2713
 9314TIP3    H149357   6.324   3.307  13.036  0.3398  0.2509  0.1596
 9314TIP3    H249358   6.400   3.363  12.917  0.0089 -0.9010 -0.5950
 9315TIP3   OH249359   3.910   5.929   0.170 -0.0878  0.4642 -0.3362
 9315TIP3    H149360   3.866   5.963   0.093  0.3602  1.8576  0.0069
 9315TIP3    H249361   3.983   5.989   0.185  0.7502 -0.6698  0.2656
 9316TIP3   OH249362   6.213   2.503   5.294 -0.1027 -0.3394 -0.5980
 9316TIP3    H149363   6.172   2.438   5.351 -1.1187 -1.8370 -2.9605
 9316TIP3    H249364   6.306   2.499   5.316 -0.4983 -0.8131  1.0217
 9317TIP3   OH249365   1.840   1.097   0.107  0.3619 -0.0380 -0.0856
 9317TIP3    H149366   1.745   1.112   0.111  0.7809  2.6181  1.8740
 9317TIP3    H249367   1.869   1.148   0.031  0.1670 -1.4477 -1.1335
 9318TIP3   OH249368   6.405   4.573  11.436 -0.3206  0.1161 -0.0308
 9318TIP3    H149369   6.407   4.669  11.437 -2.3906  0.1745  1.7919
 9318TIP3    H249370   6.450   4.547  11.516 -1.9189 -0.3576  0.7263
 9319TIP3   OH249371   0.271   2.795   0.486  0.7441 -0.0392 -0.4345
 9319TIP3    H149372   0.220   2.875   0.500  0.4918 -0.2209 -0.3025
 9319TIP3    H249373   0.245   2.765   0.399 -1.9632 -1.9792  0.9500
 9320TIP3   OH249374   0.965   4.902   3.097  0.0095 -0.5883  0.1123
 9320TIP3    H149375   1.048   4.906   3.048 -0.0303 -2.0352 -0.0906
 9320TIP3    H249376   0.920   4.983   3.074  1.5783  0.4370  0.5954
 9321TIP3   OH249377   2.608   2.962  11.744  0.3897 -0.2680  0.1229
 9321TIP3    H149378   2.579   3.036  11.798 -0.1396 -0.9483  0.7828
 9321TIP3    H249379   2.672   2.916  11.799  0.9172 -0.1398 -0.3922
 9322TIP3   OH249380   4.291   1.137  12.298  0.3250  0.5145 -0.3339
 9322TIP3    H149381   4.243   1.076  12.242 -1.3233  1.7402 -0.2830
 9322TIP3    H249382   4.365   1.085  12.331 -1.1018 -1.4957 -0.1911
 9323TIP3   OH249383   0.152   1.441  13.766  0.1687 -0.0344  0.2799
 9323TIP3    H149384   0.100   1.520  13.754 -0.2619 -0.3668 -0.0706
 9323TIP3    H249385   0.241   1.466  13.740 -0.3134 -0.1377 -1.5446
 9324TIP3   OH249386   3.557   5.367   3.909  0.4689  0.3084  0.6300
 9324TIP3    H149387   3.610   5.348   3.987 -1.2635 -1.0428  1.5205
 9324TIP3    H249388   3.621   5.389   3.842  2.1378 -0.6265  1.8592
 9325TIP3   OH249389   4.296   5.719  10.920 -0.1138  0.2857 -0.2368
 9325TIP3    H149390   4.357   5.792  10.923 -0.3264  0.4326  0.5959
 9325TIP3    H249391   4.273   5.711  10.828 -0.1139  1.2855 -0.3298
 9326TIP3   OH249392   0.948   3.461  15.004  0.2353  0.3674  0.1504
 9326TIP3    H149393   1.040   3.439  14.990 -0.1068 -0.0301 -1.5800
 9326TIP3    H249394   0.902   3.418  14.932 -1.5749 -1.2158  2.1711
 9327TIP3   OH249395   6.657   3.616  16.011 -0.1161 -0.0317  0.0231
 9327TIP3    H149396   6.652   3.602  15.916  0.7789  0.2048 -0.0632
 9327TIP3    H249397   6.569   3.597  16.042 -0.3933 -0.2103 -0.8464
 9328TIP3   OH249398   2.240   1.932  12.763 -0.2967  0.2333  0.1703
 9328TIP3    H149399   2.217   1.979  12.683 -0.0864 -0.0840 -0.0806
 9328TIP3    H249400   2.225   1.995  12.833 -0.7538  0.4241 -0.0942
 9329TIP3   OH249401   6.640   4.937   1.167  0.3388 -0.1863  0.2272
 9329TIP3    H149402   6.594   4.986   1.099  0.7034 -0.6059 -0.3261
 9329TIP3    H249403   6.608   4.974   1.249  1.9601  2.2800 -0.1870
 9330TIP3   OH249404   5.980   4.460   4.767 -0.4970 -0.3739 -0.2045
 9330TIP3    H149405   5.980   4.541   4.715 -0.7166  0.6346  1.3449
 9330TIP3    H249406   5.908   4.471   4.828  0.7258 -0.8552  1.3649
 9331TIP3   OH249407   2.030   4.776  11.897  0.8020  0.0076 -0.3892
 9331TIP3    H149408   2.076   4.762  11.980  2.8783  1.5236 -1.2221
 9331TIP3    H249409   2.026   4.690  11.856  0.9395 -0.5202  0.6949
 9332TIP3   OH249410   0.133   4.178  15.736  0.4223 -0.3804 -0.2843
 9332TIP3    H149411   0.103   4.242  15.671 -0.1072  0.4634  0.7637
 9332TIP3    H249412   0.054   4.128  15.757 -0.2378  1.5921  2.1979
 9333TIP3   OH249413   4.000   1.492   3.027  0.1174  0.3711  0.1279
 9333TIP3    H149414   3.979   1.584   3.008 -0.1737  0.9433  2.9477
 9333TIP3    H249415   3.927   1.461   3.081  0.2440 -1.5241 -0.7466
 9334TIP3   OH249416   4.552   2.237   5.690  0.0024  0.2403 -0.0593
 9334TIP3    H149417   4.613   2.216   5.760  1.1898  0.8444 -0.8857
 9334TIP3    H249418   4.471   2.191   5.713  0.3476  0.4834  1.7254
 9335TIP3   OH249419   5.355   2.290  15.965 -0.5807 -0.0643 -0.3504
 9335TIP3    H149420   5.319   2.205  15.986  0.4753 -0.7820 -1.3620
 9335TIP3    H249421   5.441   2.292  16.008 -1.1835  1.0520  0.8409
 9336TIP3   OH249422   3.370   4.245  15.396  0.3486  0.0650 -0.1692
 9336TIP3    H149423   3.312   4.199  15.456  0.5966 -0.3425 -0.2376
 9336TIP3    H249424   3.312   4.274  15.325  0.6864 -2.9582 -1.7495
 9337TIP3   OH249425   0.510   5.319  12.997  0.0167 -0.2196 -0.3547
 9337TIP3    H149426   0.542   5.406  13.023 -1.0880 -0.7350  2.9629
 9337TIP3    H249427   0.527   5.315  12.903  1.7155  2.8883 -0.2659
 9338TIP3   OH249428   2.999   0.768   0.325  0.1875  0.4418  0.2649
 9338TIP3    H149429   3.094   0.772   0.337  0.0821  1.4674  0.8609
 9338TIP3    H249430   2.964   0.829   0.391 -0.8469  0.5040 -0.3305
 9339TIP3   OH249431   4.874   1.060  13.455 -0.3493  0.5012  1.3107
 9339TIP3    H149432   4.813   0.987  13.453  1.2351 -0.8292  1.1116
 9339TIP3    H249433   4.918   1.053  13.539  1.7771 -0.4564  0.1786
 9340TIP3   OH249434   4.352   4.210  12.870  0.1225 -0.0474 -0.0630
 9340TIP3    H149435   4.435   4.227  12.915  0.2157 -1.0265  0.1370
 9340TIP3    H249436   4.361   4.122  12.834 -0.9443 -0.2703  0.2044
 9341TIP3   OH249437   3.499   2.611  16.531  0.2185 -0.0618 -0.2336
 9341TIP3    H149438   3.532   2.696  16.503  2.7691 -0.9249  0.0122
 9341TIP3    H249439   3.410   2.629  16.562  0.6096  2.4540 -0.4566
 9342TIP3   OH249440   5.950   2.364   1.082  0.4399 -0.3604 -0.2875
 9342TIP3    H149441   5.982   2.382   0.994  2.3890  0.7720  0.6253
 9342TIP3    H249442   5.961   2.270   1.092 -2.5586 -1.0041 -2.2828
 9343TIP3   OH249443   5.178   2.705   4.215  0.2277 -0.0372 -0.2126
 9343TIP3    H149444   5.110   2.650   4.252  0.7855  0.5572  1.7306
 9343TIP3    H249445   5.213   2.654   4.142  0.4071 -2.0269  1.2458
 9344TIP3   OH249446   0.828   1.275  16.397 -0.7055 -0.2773 -0.0820
 9344TIP3    H149447   0.838   1.181  16.384 -0.2451 -0.3463  0.7648
 9344TIP3    H249448   0.901   1.300  16.454 -0.0729  0.8112 -1.3224
 9345TIP3   OH249449   3.232   5.574  13.147  0.1703 -0.7054  0.5789
 9345TIP3    H149450   3.271   5.646  13.097 -0.3010 -1.2757 -0.6128
 9345TIP3    H249451   3.258   5.592  13.238  1.2427  0.1910  0.1103
 9346TIP3   OH249452   3.569   3.723  15.165  0.0561 -0.1216  0.7321
 9346TIP3    H149453   3.493   3.698  15.112  0.5516 -2.8085  1.2235
 9346TIP3    H249454   3.603   3.802  15.122 -1.9025  0.0528 -0.5707
 9347TIP3   OH249455   5.156   5.262   5.091  0.5703  0.1974  0.2895
 9347TIP3    H149456   5.214   5.330   5.058  0.8321  0.3018  0.9559
 9347TIP3    H249457   5.105   5.305   5.160  0.4244 -0.1652  0.4117
 9348TIP3   OH249458   0.344   3.975  15.177  0.0611 -0.7293 -0.4935
 9348TIP3    H149459   0.306   3.957  15.263 -0.0010  0.8367 -0.1780
 9348TIP3    H249460   0.389   3.894  15.154  0.5370 -0.9997  1.2624
 9349TIP3   OH249461   6.632   3.384   0.261 -0.2485  0.1652  0.3116
 9349TIP3    H149462   6.723   3.363   0.283 -0.1219  0.1447 -0.2399
 9349TIP3    H249463   6.637   3.463   0.208 -0.7177  1.4939  2.1913
 9350TIP3   OH249464   6.444   5.995  13.354 -0.4769  0.6112  0.1486
 9350TIP3    H149465   6.401   6.066  13.401  0.8895  0.7634  1.2064
 9350TIP3    H249466   6.517   6.037  13.308 -1.6286  0.4112 -1.8801
 9351TIP3   OH249467   1.878   4.328   1.034 -0.7005 -0.0493 -0.1053
 9351TIP3    H149468   1.940   4.316   0.962 -1.4461 -0.9284 -0.6163
 9351TIP3    H249469   1.928   4.373   1.102 -0.2516  1.6910 -1.5495
 9352TIP3   OH249470   1.224   1.001   2.995  0.0321 -0.2390 -0.3691
 9352TIP3    H149471   1.250   1.031   2.907  0.8125 -2.6479 -1.0012
 9352TIP3    H249472   1.305   0.966   3.033 -0.2506  0.9990  1.4258
 9353TIP3   OH249473   0.665   3.721   5.065 -0.3375  0.4903  0.0567
 9353TIP3    H149474   0.625   3.710   5.150 -1.1069 -1.5018 -0.5347
 9353TIP3    H249475   0.671   3.816   5.053 -1.7129  0.7873  1.5994
 9354TIP3   OH249476   0.913   6.283  15.202  0.8470 -0.2383  0.1192
 9354TIP3    H149477   0.915   6.309  15.294  1.6818  1.4800 -0.3688
 9354TIP3    H249478   0.903   6.365  15.154  2.0297 -0.9499 -1.3901
 9355TIP3   OH249479   2.479   3.762   1.877 -0.1823  0.3067 -0.6070
 9355TIP3    H149480   2.496   3.800   1.790 -2.0449 -0.5694 -1.3757
 9355TIP3    H249481   2.401   3.709   1.865  0.7297 -1.4782  1.1494
 9356TIP3   OH249482   0.870   1.203  12.344 -0.5095 -0.0034 -0.2127
 9356TIP3    H149483   0.862   1.213  12.249 -0.4449 -0.5950 -0.2827
 9356TIP3    H249484   0.890   1.291  12.376 -1.0293  0.2895 -0.6934
 9357TIP3   OH249485   5.767   3.152  12.326  0.7787 -0.4709 -0.1416
 9357TIP3    H149486   5.804   3.135  12.240 -0.5256  0.6935 -0.9509
 9357TIP3    H249487   5.843   3.168  12.382  1.5778  0.4885 -1.4682
 9358TIP3   OH249488   0.166   6.330  15.898  0.0224  0.2484  0.1922
 9358TIP3    H149489   0.126   6.279  15.968  1.8811  0.4471  1.4501
 9358TIP3    H249490   0.156   6.277  15.820  1.1604 -1.6786  1.3112
 9359TIP3   OH249491   6.272   3.898   5.061  0.1559 -0.2033  0.8302
 9359TIP3    H149492   6.279   3.804   5.047 -0.8367  0.0375 -1.4700
 9359TIP3    H249493   6.363   3.930   5.057  0.3184 -0.8094 -0.3247
 9360TIP3   OH249494   2.598   3.510  16.395 -0.4324  0.0075  0.2926
 9360TIP3    H149495   2.528   3.538  16.336  1.6891 -2.4205 -3.6613
 9360TIP3    H249496   2.558   3.441  16.448 -1.5746  0.0361 -0.5115
 9361TIP3   OH249497   0.084   2.387  15.468 -0.1672 -0.0220 -0.9039
 9361TIP3    H149498   0.077   2.460  15.529 -1.9206 -0.9201  0.0226
 9361TIP3    H249499   0.026   2.411  15.395 -0.1405 -0.1215 -0.9595
 9362TIP3   OH249500   1.336   5.220   0.949  0.2002  0.2503  0.2940
 9362TIP3    H149501   1.259   5.219   1.006 -0.6680  0.7540 -0.8542
 9362TIP3    H249502   1.353   5.313   0.932 -1.0419  0.0637 -2.2278
 9363TIP3   OH249503   1.974   6.457   3.460 -0.5988 -0.2234  0.3030
 9363TIP3    H149504   1.933   6.376   3.429 -1.7917  0.5255 -0.1169
 9363TIP3    H249505   1.942   6.524   3.400  1.0603  0.4283  0.1394
 9364TIP3   OH249506   4.732   5.802  14.318  0.0007  0.2684  0.2926
 9364TIP3    H149507   4.753   5.769  14.406  0.3845  0.1600  0.1607
 9364TIP3    H249508   4.816   5.806  14.273  0.1058  2.5048  0.6519
 9365TIP3   OH249509   3.900   4.784   1.876  0.4969 -0.3523 -0.2747
 9365TIP3    H149510   3.905   4.792   1.971 -0.7664  0.3699 -0.2639
 9365TIP3    H249511   3.888   4.873   1.845 -1.8150 -0.8690 -0.9280
 9366TIP3   OH249512   5.730   1.786  10.484  0.1195 -0.2603 -0.8798
 9366TIP3    H149513   5.663   1.719  10.489  0.3136 -0.4489 -0.7927
 9366TIP3    H249514   5.790   1.766  10.556 -1.3981  1.7238  1.0022
 9367TIP3   OH249515   3.974   3.102   2.101  0.0849  0.9803  0.8402
 9367TIP3    H149516   4.009   3.143   2.180 -0.8285  0.6002  1.4500
 9367TIP3    H249517   3.973   3.009   2.121 -0.2021  0.8879  0.4015
 9368TIP3   OH249518   2.653   6.654  13.860  0.1895 -0.7772  0.2950
 9368TIP3    H149519   2.664   6.677  13.952  0.9517  0.7473 -0.1633
 9368TIP3    H249520   2.592   6.719  13.826  2.2901  0.6019 -0.9939
 9369TIP3   OH249521   4.623   2.255   4.862  0.2970 -0.2002  0.2604
 9369TIP3    H149522   4.552   2.304   4.821 -0.5245 -1.8851 -0.3574
 9369TIP3    H249523   4.682   2.323   4.896 -0.1612  1.2140 -1.6918
 9370TIP3   OH249524   4.912   2.211  11.860 -0.4289  0.4875  0.7002
 9370TIP3    H149525   4.937   2.249  11.944 -0.6509  1.5945  0.2663
 9370TIP3    H249526   4.985   2.152  11.838 -0.2081  0.4579  1.4950
 9371TIP3   OH249527   4.768   0.894  14.164  0.8807 -0.5118 -0.2794
 9371TIP3    H149528   4.725   0.967  14.119 -2.1038 -1.9847  0.0343
 9371TIP3    H249529   4.814   0.847  14.094 -1.4483 -1.2131 -1.4260
 9372TIP3   OH249530   1.927   0.837   5.455  0.1242  0.3199 -0.6093
 9372TIP3    H149531   1.884   0.919   5.481  1.0755  0.2250  1.3156
 9372TIP3    H249532   1.865   0.768   5.480  1.1004  0.2198  1.6025
 9373TIP3   OH249533   5.461   2.846  12.380 -0.0357 -0.0067  0.1415
 9373TIP3    H149534   5.437   2.782  12.313 -0.1287 -0.4248  0.5668
 9373TIP3    H249535   5.549   2.820  12.407 -0.7134 -0.9818  1.4941
 9374TIP3   OH249536   6.293   5.006   1.187 -0.4486  0.0808 -0.6300
 9374TIP3    H149537   6.338   5.045   1.262 -0.6506  0.1260 -0.5336
 9374TIP3    H249538   6.351   5.024   1.113 -0.6461  0.7566 -0.6240
 9375TIP3   OH249539   4.529   6.201  11.740  0.2816 -0.8909  0.3514
 9375TIP3    H149540   4.460   6.235  11.797  1.6294 -0.2336  1.6199
 9375TIP3    H249541   4.520   6.106  11.745  0.7642 -0.8510  2.1565
 9376TIP3   OH249542   1.204   6.471  16.140 -0.5650  0.2148  0.8557
 9376TIP3    H149543   1.157   6.388  16.128 -2.4561  1.1433  1.5845
 9376TIP3    H249544   1.259   6.456  16.217 -1.5507 -0.1109  1.5094
 9377TIP3   OH249545   4.093   3.838  15.876 -0.1307 -0.2556 -0.6129
 9377TIP3    H149546   4.070   3.897  15.947 -1.5286 -1.3866 -0.0897
 9377TIP3    H249547   4.130   3.894  15.808 -0.8919  1.1337  0.1065
 9378TIP3   OH249548   1.623   2.171  14.641 -0.0800  0.1050  0.0740
 9378TIP3    H149549   1.680   2.196  14.713  1.7486 -1.7739 -0.6689
 9378TIP3    H249550   1.579   2.092  14.671 -0.3008  0.0536 -0.3826
 9379TIP3   OH249551   5.292   6.319   1.299 -0.1923  0.2979 -0.2728
 9379TIP3    H149552   5.197   6.333   1.298 -0.0294  1.5475  1.2101
 9379TIP3    H249553   5.329   6.400   1.333  1.2992 -0.7925  0.8108
 9380TIP3   OH249554   5.892   3.865  16.215  0.3750  0.3984 -0.1567
 9380TIP3    H149555   5.865   3.933  16.277  0.1548 -0.2596  0.4651
 9380TIP3    H249556   5.861   3.783  16.253  2.6394 -0.3219  0.2672
 9381TIP3   OH249557   5.294   2.809  14.296  1.0812 -0.3678 -0.0197
 9381TIP3    H149558   5.359   2.857  14.245  0.7992 -0.6075 -0.5995
 9381TIP3    H249559   5.323   2.820  14.387  1.3371  0.4158 -0.1923
 9382TIP3   OH249560   2.335   4.409  17.206 -0.2939 -0.6964 -0.2901
 9382TIP3    H149561   2.259   4.369  17.164  0.1482 -1.6719 -0.1758
 9382TIP3    H249562   2.410   4.376  17.155  0.3913 -3.1948  2.2223
 9383TIP3   OH249563   1.296   6.363  14.570  0.3636  0.2802 -0.7424
 9383TIP3    H149564   1.347   6.327  14.642  1.2303  0.2870 -1.3457
 9383TIP3    H249565   1.360   6.377  14.500 -0.4124  0.5779 -1.3971
 9384TIP3   OH249566   5.770   0.261   2.151 -0.0205 -0.2270 -0.0618
 9384TIP3    H149567   5.750   0.173   2.121 -1.4700 -0.3517  1.2595
 9384TIP3    H249568   5.831   0.249   2.223 -0.3154 -0.1518  0.1998
 9385TIP3   OH249569   4.160   5.308  12.754 -0.5898 -0.2252 -0.0768
 9385TIP3    H149570   4.245   5.273  12.726  0.5861 -0.2166  3.2439
 9385TIP3    H249571   4.172   5.403  12.754 -1.1358 -0.1469 -1.1262
 9386TIP3   OH249572   5.942   5.059   5.915 -0.1418  0.1209  0.1521
 9386TIP3    H149573   6.028   5.098   5.932 -0.1131  0.8418 -1.6204
 9386TIP3    H249574   5.897   5.066   5.999  1.2999  0.3118  0.9409
 9387TIP3   OH249575   5.709   6.671   4.349  0.5109 -0.8285 -0.5673
 9387TIP3    H149576   5.644   6.677   4.280  0.1446  0.7961 -0.1054
 9387TIP3    H249577   5.792   6.692   4.307  0.4874 -1.1518 -0.7780
 9388TIP3   OH249578   3.311   6.712  14.598 -0.4196 -0.7406  0.2275
 9388TIP3    H149579   3.389   6.666  14.567 -1.0178 -1.8110  0.2651
 9388TIP3    H249580   3.329   6.733  14.689  0.0731 -0.4387  0.0590
 9389TIP3   OH249581   4.544   4.485  12.976 -0.3651 -0.3441  0.1776
 9389TIP3    H149582   4.554   4.409  13.033  0.3526 -0.3458  0.0601
 9389TIP3    H249583   4.597   4.465  12.899 -0.0764  0.3202  0.1934
 9390TIP3   OH249584   0.694   2.358  15.096 -1.2602 -0.8229  0.1750
 9390TIP3    H149585   0.723   2.306  15.022 -2.8362 -2.1804  0.4824
 9390TIP3    H249586   0.709   2.302  15.173  0.7878  0.7415  0.9399
 9391TIP3   OH249587   4.598   3.929   1.099 -0.7306  0.5100 -0.4835
 9391TIP3    H149588   4.576   4.022   1.100  2.2585  1.2750 -2.2749
 9391TIP3    H249589   4.558   3.896   1.019 -0.7882  0.4917 -0.4472
 9392TIP3   OH249590   2.590   0.119  17.084  0.2557  0.1253  0.1176
 9392TIP3    H149591   2.532   0.082  17.150  0.2928  0.4142  0.3128
 9392TIP3    H249592   2.676   0.081  17.102  0.4066  0.6957  0.6427
 9393TIP3   OH249593   1.375   1.453  12.233  0.0870 -0.2075 -0.0660
 9393TIP3    H149594   1.338   1.470  12.320 -0.9449 -1.9361 -0.1425
 9393TIP3    H249595   1.312   1.394  12.192  0.7359  0.3468 -1.8736
 9394TIP3   OH249596   1.684   3.812  11.358  0.1968  0.6218  0.9666
 9394TIP3    H149597   1.695   3.720  11.337  0.8482  0.3177  2.6354
 9394TIP3    H249598   1.724   3.858  11.284  0.5578 -0.4263  0.4999
 9395TIP3   OH249599   0.638   0.703   3.899 -0.0213  0.1173 -0.5142
 9395TIP3    H149600   0.545   0.715   3.918 -0.0397  1.4533 -1.4125
 9395TIP3    H249601   0.644   0.711   3.804  1.1498  1.0091 -0.3758
 9396TIP3   OH249602   0.291   3.872  14.703  0.2340 -0.4105 -0.2460
 9396TIP3    H149603   0.262   3.804  14.642  0.8507 -0.7446 -0.1780
 9396TIP3    H249604   0.254   3.846  14.787 -0.3188 -0.1457 -0.4047
 9397TIP3   OH249605   4.450   0.362   4.468  0.7097 -0.6019 -0.6566
 9397TIP3    H149606   4.521   0.425   4.454  1.8896 -1.6927  0.3834
 9397TIP3    H249607   4.474   0.287   4.414 -0.1227 -0.6219 -1.0085
 9398TIP3   OH249608   4.699   4.750   3.028  0.7091  0.5911 -0.1503
 9398TIP3    H149609   4.670   4.799   2.951  0.9220  0.3544 -0.3864
 9398TIP3    H249610   4.793   4.766   3.033  0.2230  3.0544  1.8383
 9399TIP3   OH249611   1.537   0.354   4.798  0.3674  0.2536 -0.5453
 9399TIP3    H149612   1.589   0.282   4.762 -0.1560 -0.4700  0.1263
 9399TIP3    H249613   1.472   0.373   4.730  0.5180  0.1051 -0.7314
 9400TIP3   OH249614   5.216   0.903   0.290  0.8861 -0.3897  0.3000
 9400TIP3    H149615   5.300   0.922   0.250  0.5492  0.0675 -0.2081
 9400TIP3    H249616   5.179   0.990   0.310  0.2240 -0.5638 -0.1461
 9401TIP3   OH249617   2.798   6.056  13.218  0.0195 -0.7360 -0.1112
 9401TIP3    H149618   2.723   6.113  13.230  0.0827 -0.5204 -0.7514
 9401TIP3    H249619   2.775   6.000  13.144  0.5175 -0.6226 -0.3556
 9402TIP3   OH249620   1.840   0.073   5.610  0.1745  0.0857  0.6151
 9402TIP3    H149621   1.897   0.095   5.684  1.1338 -1.0800  0.2549
 9402TIP3    H249622   1.802  -0.011   5.633  0.1394 -0.0803 -0.0188
 9403TIP3   OH249623   1.265   5.122  14.555 -0.0476 -0.1038 -0.0274
 9403TIP3    H149624   1.170   5.119  14.546  0.1925 -0.8745 -2.5317
 9403TIP3    H249625   1.280   5.182  14.628 -2.4376  0.2519  0.2067
 9404TIP3   OH249626   3.594   3.420  13.974  0.3003 -0.1775 -0.2824
 9404TIP3    H149627   3.624   3.389  13.889 -2.0180 -0.8712 -0.8845
 9404TIP3    H249628   3.542   3.498  13.955  0.1370 -0.0769  0.5304
 9405TIP3   OH249629   0.096   5.081   1.226  0.7366 -0.3344  0.1145
 9405TIP3    H149630   0.007   5.056   1.201  1.0668 -0.0692 -1.3712
 9405TIP3    H249631   0.133   5.003   1.268  1.2752 -1.9288 -3.1631
 9406TIP3   OH249632   0.357   0.935   5.160 -0.3148  0.1620 -0.3461
 9406TIP3    H149633   0.404   0.888   5.091 -1.0416 -1.5201  0.2605
 9406TIP3    H249634   0.301   0.997   5.114  0.1580 -0.0347 -1.2009
 9407TIP3   OH249635   6.128   2.899  11.839  0.4234 -0.5361  0.0830
 9407TIP3    H149636   6.143   2.986  11.877  0.1215 -1.2155  1.7799
 9407TIP3    H249637   6.041   2.905  11.800  0.8152  0.2305 -0.6999
 9408TIP3   OH249638   4.103   2.305   6.010  0.3662 -0.4106 -0.6679
 9408TIP3    H149639   4.076   2.380   6.064  3.6199  1.0149 -0.9307
 9408TIP3    H249640   4.120   2.235   6.073 -1.0409 -0.4363 -0.2909
 9409TIP3   OH249641   1.408   3.761  13.771  0.4388  0.0541  0.0618
 9409TIP3    H149642   1.361   3.715  13.840  0.2411 -0.9414 -0.7233
 9409TIP3    H249643   1.412   3.698  13.699  1.3796  0.7823 -0.5261
 9410TIP3   OH249644   6.774   6.445  12.527  0.1676  0.3386 -0.0381
 9410TIP3    H149645   6.737   6.486  12.605 -0.9784 -1.1031  0.2143
 9410TIP3    H249646   6.761   6.351  12.542  0.1182  0.0480 -1.8714
 9411TIP3   OH249647   0.278   2.648  14.644 -0.0529 -0.3765  0.4696
 9411TIP3    H149648   0.318   2.596  14.574  0.9052  0.1945  0.5739
 9411TIP3    H249649   0.333   2.631  14.721  0.7185  1.3116  0.3290
 9412TIP3   OH249650   3.618   0.589  14.956  0.2238 -0.6728  0.2524
 9412TIP3    H149651   3.686   0.540  14.910 -1.0193 -1.4363 -0.7801
 9412TIP3    H249652   3.560   0.621  14.887 -1.3122 -1.2959  1.2400
 9413TIP3   OH249653   1.701   4.254   1.717 -0.3195 -0.6869  0.5529
 9413TIP3    H149654   1.667   4.222   1.800 -1.1280  0.6427  0.7597
 9413TIP3    H249655   1.678   4.186   1.654 -0.1223 -1.4817  1.3343
 9414TIP3   OH249656   3.278   2.562  14.923  0.5905 -0.2648  0.1792
 9414TIP3    H149657   3.315   2.649  14.940  0.5047 -0.5322  1.8091
 9414TIP3    H249658   3.191   2.565  14.962 -0.2392 -0.4052 -1.6146
 9415TIP3   OH249659   2.138   3.532   2.710  0.2091  0.3104 -0.3168
 9415TIP3    H149660   2.129   3.473   2.635  0.9158 -0.2868  0.0699
 9415TIP3    H249661   2.179   3.611   2.673 -0.5098  0.4791 -0.7811
 9416TIP3   OH249662   4.501   5.079   0.173 -0.3149 -0.4259  0.1877
 9416TIP3    H149663   4.434   5.012   0.185  0.4891 -1.1555  0.6389
 9416TIP3    H249664   4.483   5.144   0.241 -0.0424 -1.0475  0.8498
 9417TIP3   OH249665   3.170   1.306   6.147  0.4214  0.2572  0.0022
 9417TIP3    H149666   3.136   1.218   6.164  1.2923  0.2939  2.0602
 9417TIP3    H249667   3.146   1.323   6.056 -2.9997 -0.6273  0.6757
 9418TIP3   OH249668   2.763   0.959   0.833  0.3211 -0.1750 -0.0929
 9418TIP3    H149669   2.735   0.889   0.774  2.1640 -0.1188 -1.0792
 9418TIP3    H249670   2.803   0.913   0.907 -0.4779 -0.2068  0.3226
 9419TIP3   OH249671   2.693   2.404   5.607  0.0824 -0.4509 -0.2678
 9419TIP3    H149672   2.619   2.362   5.651 -1.4201  0.3786 -1.9189
 9419TIP3    H249673   2.761   2.337   5.606 -0.4392 -1.0558  1.7571
 9420TIP3   OH249674   3.136   5.971   1.694 -0.2307 -0.3623  0.2085
 9420TIP3    H149675   3.105   6.047   1.744 -0.4509 -0.3048 -0.0124
 9420TIP3    H249676   3.228   5.988   1.678 -0.3001 -0.1036  0.0887
 9421TIP3   OH249677   4.479   4.562   2.058  0.7040 -0.5282  0.2823
 9421TIP3    H149678   4.400   4.575   2.112 -0.3663  1.4528 -1.7006
 9421TIP3    H249679   4.482   4.467   2.045 -1.0796 -0.6925  0.8078
 9422TIP3   OH249680   1.267   5.202   1.769 -0.4464  0.2490 -0.0309
 9422TIP3    H149681   1.178   5.190   1.801 -0.1572 -0.1174  0.6479
 9422TIP3    H249682   1.321   5.154   1.832  0.2891  1.0575 -0.0466
 9423TIP3   OH249683   2.541   4.740   4.024 -0.2853 -0.2694 -0.4723
 9423TIP3    H149684   2.625   4.723   3.981  0.3573  1.7750 -0.0926
 9423TIP3    H249685   2.491   4.790   3.960  0.0019  1.2397  0.4584
 9424TIP3   OH249686   4.419   0.841  12.764 -0.2404  0.6511 -0.1623
 9424TIP3    H149687   4.452   0.757  12.797  0.1877  0.2063 -1.7100
 9424TIP3    H249688   4.343   0.818  12.711  0.1879  1.1972 -1.0154
 9425TIP3   OH249689   3.475   4.992  16.943  0.4804  0.4149  0.2113
 9425TIP3    H149690   3.392   5.038  16.958  1.1206  1.7876 -0.3302
 9425TIP3    H249691   3.475   4.973  16.849 -0.1947 -1.5708  0.5754
 9426TIP3   OH249692   1.047   2.299  14.776 -0.2394 -0.2136 -0.0819
 9426TIP3    H149693   1.090   2.291  14.861 -0.7109  0.7199  0.2485
 9426TIP3    H249694   0.954   2.311  14.797 -0.6690 -2.0475 -0.7825
 9427TIP3   OH249695   0.485   5.975   3.707 -0.5965 -0.1895  0.0910
 9427TIP3    H149696   0.566   5.925   3.706 -0.6336 -0.2612  0.6755
 9427TIP3    H249697   0.417   5.910   3.721 -0.9552 -0.3993 -2.4129
 9428TIP3   OH249698   4.949   2.521   2.013 -0.1829  0.1842 -0.1633
 9428TIP3    H149699   4.983   2.434   2.036 -0.5181  0.1964  0.3817
 9428TIP3    H249700   4.986   2.579   2.080  0.8069  0.6239 -1.0678
 9429TIP3   OH249701   3.192   5.618  16.032  0.1553 -0.2637  0.3964
 9429TIP3    H149702   3.229   5.530  16.033 -0.2578 -0.4439 -0.0374
 9429TIP3    H249703   3.264   5.673  16.001  0.1789 -0.5627 -0.0914
 9430TIP3   OH249704   2.111   5.660   3.410  0.5438  0.0756 -0.5990
 9430TIP3    H149705   2.126   5.745   3.452  0.9059  0.2477 -1.0720
 9430TIP3    H249706   2.022   5.636   3.437  1.4383 -0.7085  1.8218
 9431TIP3   OH249707   1.220   2.073  12.952 -0.0601  0.1759  0.3444
 9431TIP3    H149708   1.183   2.065  13.040  0.5599  0.4220  0.6314
 9431TIP3    H249709   1.148   2.050  12.894 -0.2102 -0.9390  0.9420
 9432TIP3   OH249710   6.231   2.541  12.469 -0.8979 -0.1453  0.3303
 9432TIP3    H149711   6.206   2.455  12.503  0.8818 -1.1515 -0.8190
 9432TIP3    H249712   6.174   2.603  12.515  0.6556 -1.5432  4.4125
 9433TIP3   OH249713   4.403   6.150  13.465 -0.1970  0.1314  0.2878
 9433TIP3    H149714   4.461   6.113  13.531 -0.4326 -0.8571 -0.0570
 9433TIP3    H249715   4.423   6.101  13.385 -0.0177  1.2166 -0.3469
 9434TIP3   OH249716   2.917   0.019  14.603  0.4612 -0.2347  0.0413
 9434TIP3    H149717   2.981   0.027  14.532 -1.1942  1.8961 -1.2758
 9434TIP3    H249718   2.889  -0.072  14.599  0.6718 -0.2405 -1.8185
 9435TIP3   OH249719   0.972   0.365  13.549 -0.1743  0.3761  0.1760
 9435TIP3    H149720   0.892   0.409  13.579 -1.4252 -2.0008  0.4337
 9435TIP3    H249721   1.010   0.426  13.485 -2.1186  1.6027  0.1502
 9436TIP3   OH249722   2.086   4.759  14.542  0.2555 -0.5799 -0.0201
 9436TIP3    H149723   2.032   4.681  14.553 -0.2476 -0.2675 -0.2981
 9436TIP3    H249724   2.172   4.724  14.518 -0.0382 -1.0396 -0.4159
 9437TIP3   OH249725   4.398   0.792   2.043 -0.1651  0.3579 -0.1258
 9437TIP3    H149726   4.458   0.861   2.072  0.8633  0.8335 -3.1215
 9437TIP3    H249727   4.371   0.748   2.123  1.2857  2.5146  1.6252
 9438TIP3   OH249728   1.927   5.240  11.854 -0.1393 -0.3950 -0.4950
 9438TIP3    H149729   1.915   5.330  11.886 -0.9371 -0.2855 -1.1082
 9438TIP3    H249730   1.990   5.248  11.783 -1.5180 -0.0875 -1.6943
 9439TIP3   OH249731   4.081   3.637  12.577  0.0686  0.0197 -0.4217
 9439TIP3    H149732   4.141   3.653  12.649 -0.0788 -0.4287 -0.1968
 9439TIP3    H249733   4.025   3.715  12.574  1.1199  0.7623 -1.0938
 9440TIP3   OH249734   2.473   5.392   0.102  0.1002  0.0511 -0.1912
 9440TIP3    H149735   2.561   5.355   0.097 -0.1158 -0.5374  0.3411
 9440TIP3    H249736   2.487   5.481   0.136  0.4565 -0.1787  0.2746
 9441TIP3   OH249737   1.718   1.188   1.536  0.0811 -0.0761  0.4492
 9441TIP3    H149738   1.633   1.157   1.507 -0.9404  3.8825 -1.0441
 9441TIP3    H249739   1.781   1.129   1.495 -1.8094 -1.0872 -1.0451
 9442TIP3   OH249740   4.488   1.830   3.900  0.1203 -0.0913 -0.1886
 9442TIP3    H149741   4.531   1.882   3.968 -0.1273 -1.2160  0.8498
 9442TIP3    H249742   4.485   1.888   3.824 -0.3942  1.5082  1.0232
 9443TIP3   OH249743   0.495   0.161   1.338 -0.6923 -0.1027 -0.3960
 9443TIP3    H149744   0.510   0.170   1.244 -0.5300  1.3409 -0.2277
 9443TIP3    H249745   0.469   0.069   1.348  0.5023 -0.5967 -1.6736
 9444TIP3   OH249746   1.454   2.414  13.960 -0.1365  0.6897 -0.0017
 9444TIP3    H149747   1.502   2.395  14.040 -0.2289 -0.4245 -0.2050
 9444TIP3    H249748   1.390   2.480  13.986 -1.0425 -0.6261  1.1513
 9445TIP3   OH249749   4.994   3.113   4.813  0.0596  0.3640 -0.4744
 9445TIP3    H149750   4.911   3.090   4.771  0.7777 -0.6115 -1.3732
 9445TIP3    H249751   4.988   3.207   4.828 -0.6325  0.5511 -1.8416
 9446TIP3   OH249752   6.355   5.715   5.800 -0.0410 -0.5751  0.0287
 9446TIP3    H149753   6.385   5.751   5.883 -0.2083 -1.1606  0.3398
 9446TIP3    H249754   6.426   5.656   5.772  0.7402  0.8344 -1.0271
 9447TIP3   OH249755   0.578   2.496   2.573  0.5016  0.2119  0.4136
 9447TIP3    H149756   0.601   2.582   2.608  0.5853  0.3743 -0.0395
 9447TIP3    H249757   0.650   2.439   2.599  1.2425  0.6366 -0.6734
 9448TIP3   OH249758   3.354   0.335   4.710 -0.6747 -0.7881 -0.1040
 9448TIP3    H149759   3.433   0.387   4.691 -0.9331  0.5855  2.3058
 9448TIP3    H249760   3.388   0.248   4.733 -0.0574 -0.9490 -1.5673
 9449TIP3   OH249761   6.362   4.753  16.558  0.1945  0.1573  0.0153
 9449TIP3    H149762   6.421   4.809  16.507 -0.0630 -0.9730 -1.5756
 9449TIP3    H249763   6.414   4.674  16.576  0.4529  0.7459  1.9893
 9450TIP3   OH249764   4.389   6.080   5.815  0.5754  0.8311 -0.3190
 9450TIP3    H149765   4.396   5.988   5.841  0.6427 -0.2108 -3.8007
 9450TIP3    H249766   4.307   6.110   5.854 -0.0357 -1.0421 -0.1166
 9451TIP3   OH249767   2.641   0.269  16.347  0.0024  0.2736  0.3333
 9451TIP3    H149768   2.601   0.225  16.423  1.5832 -1.3742  0.2519
 9451TIP3    H249769   2.586   0.245  16.273  0.7358 -1.4821  0.3208
 9452TIP3   OH249770   0.592   2.879   2.413 -0.1459 -0.0543  0.1059
 9452TIP3    H149771   0.644   2.944   2.459 -1.0809 -1.4851  3.2806
 9452TIP3    H249772   0.647   2.801   2.411 -0.6475 -0.4056 -0.0272
 9453TIP3   OH249773   2.114   5.954  12.542  0.4162  0.5673  0.1080
 9453TIP3    H149774   2.027   5.955  12.503  0.4417 -1.2682 -0.0270
 9453TIP3    H249775   2.104   6.007  12.622 -0.2253  2.2813 -1.0710
 9454TIP3   OH249776   1.242   0.084   6.149 -0.6717 -0.1854 -0.5509
 9454TIP3    H149777   1.284   0.170   6.145 -1.5949  0.2781 -0.6156
 9454TIP3    H249778   1.299   0.031   6.205  0.4607  0.1455 -1.3778
 9455TIP3   OH249779   2.296   2.165  10.972 -0.2281 -0.2403 -0.1156
 9455TIP3    H149780   2.307   2.259  10.957 -1.0753  0.3571  2.7138
 9455TIP3    H249781   2.211   2.158  11.015  0.5829 -2.1273  1.2405
 9456TIP3   OH249782   4.552   3.701   5.261  0.1112 -0.7572 -0.0131
 9456TIP3    H149783   4.487   3.663   5.321  0.2939 -2.0879 -0.6439
 9456TIP3    H249784   4.628   3.717   5.317 -0.9953  1.5351  0.8951
 9457TIP3   OH249785   6.194   0.984  17.111  0.1137 -0.5788 -0.2021
 9457TIP3    H149786   6.151   0.971  17.196  0.8410  0.7368  0.3827
 9457TIP3    H249787   6.272   0.929  17.115  0.5130  0.0176  0.2614
 9458TIP3   OH249788   4.529   3.726  10.813 -0.4007 -0.8287  0.2485
 9458TIP3    H149789   4.616   3.749  10.780 -1.2579 -0.2041 -1.5894
 9458TIP3    H249790   4.486   3.810  10.830 -0.1574 -1.1221  2.5680
 9459TIP3   OH249791   0.853   5.642  14.997  0.2429 -0.1738 -0.4590
 9459TIP3    H149792   0.938   5.599  14.992  0.8292  0.5389  2.2691
 9459TIP3    H249793   0.808   5.598  15.070 -0.8284  0.9284 -0.4223
 9460TIP3   OH249794   3.088   0.996   5.994  0.4803  0.0127  0.0817
 9460TIP3    H149795   3.002   0.997   5.951  0.9911 -1.1588 -1.0164
 9460TIP3    H249796   3.069   1.017   6.085 -0.7372  1.6335 -0.5233
 9461TIP3   OH249797   0.629   5.523  13.168 -0.1135 -0.0381 -0.2865
 9461TIP3    H149798   0.695   5.460  13.196  0.1495  0.3824  0.0401
 9461TIP3    H249799   0.620   5.583  13.242 -1.0035 -0.2042 -0.2466
 9462TIP3   OH249800   4.447   4.014   2.621  0.2890 -0.2567 -0.1257
 9462TIP3    H149801   4.353   4.030   2.635 -0.2069  0.9002 -4.0483
 9462TIP3    H249802   4.450   3.952   2.548  2.5482  0.3607 -0.5941
 9463TIP3   OH249803   5.047   6.121  17.039 -0.3098  0.7311  0.1358
 9463TIP3    H149804   5.136   6.153  17.055  0.7544 -0.4489 -3.0071
 9463TIP3    H249805   5.056   6.026  17.030 -1.7637  0.6684 -0.9043
 9464TIP3   OH249806   4.249   4.412   4.792 -0.5509  0.1882 -0.0505
 9464TIP3    H149807   4.176   4.417   4.731 -0.3175  0.6800 -0.2869
 9464TIP3    H249808   4.294   4.496   4.784 -1.0233  0.5863  1.4230
 9465TIP3   OH249809   4.895   1.077   2.980  0.3829  0.0141 -0.2255
 9465TIP3    H149810   4.875   1.170   2.993  0.5334  0.3801 -2.3247
 9465TIP3    H249811   4.809   1.034   2.980  0.1996  0.3710 -0.7142
 9466TIP3   OH249812   2.210   5.297  12.053  0.3136  0.4819  0.1118
 9466TIP3    H149813   2.242   5.272  11.966  0.8463  1.7235 -0.0512
 9466TIP3    H249814   2.285   5.283  12.111  0.0548 -0.0418  0.3196
 9467TIP3   OH249815   4.560   4.191   1.101  0.5045 -0.0643 -0.1529
 9467TIP3    H149816   4.522   4.224   1.020  1.2430 -1.1020 -0.9419
 9467TIP3    H249817   4.626   4.256   1.125  0.0606  0.4080 -0.1980
 9468TIP3   OH249818   3.579   2.574  13.026  0.1223 -0.1917 -0.2187
 9468TIP3    H149819   3.654   2.553  12.970 -0.4146  2.6883 -2.1379
 9468TIP3    H249820   3.520   2.624  12.969 -2.7788 -1.5011  1.5551
 9469TIP3   OH249821   4.312   6.326   3.582  0.2307 -0.2960 -0.0059
 9469TIP3    H149822   4.304   6.235   3.608  0.3699 -0.1921  0.4076
 9469TIP3    H249823   4.316   6.324   3.486 -4.8881 -0.3691 -0.3683
 9470TIP3   OH249824   4.747   0.637   3.454 -0.6222  0.3223  0.1414
 9470TIP3    H149825   4.765   0.580   3.529 -0.8833  0.1134  0.0477
 9470TIP3    H249826   4.707   0.715   3.493 -1.8666 -0.2923  0.1107
 9471TIP3   OH249827   1.269   6.267   0.130  0.4109 -0.3264  0.0433
 9471TIP3    H149828   1.342   6.209   0.106  0.5556 -0.4024  0.6568
 9471TIP3    H249829   1.203   6.208   0.165 -0.2491 -0.3395 -1.2009
 9472TIP3   OH249830   3.555   5.271  14.704  0.3427  0.0847 -0.9207
 9472TIP3    H149831   3.603   5.304  14.780 -0.4908 -0.8621  0.0365
 9472TIP3    H249832   3.464   5.270  14.732  0.1137 -1.0066 -1.6589
 9473TIP3   OH249833   2.329   4.861  11.016  0.2195 -0.0075  0.4090
 9473TIP3    H149834   2.259   4.882  10.954  0.6540  0.1179 -0.0503
 9473TIP3    H249835   2.296   4.891  11.101 -0.2160  0.1986  0.1694
 9474TIP3   OH249836   2.024   1.945   5.640 -0.0533 -0.2414 -0.7075
 9474TIP3    H149837   2.080   1.895   5.699 -1.4167 -1.2813 -0.2676
 9474TIP3    H249838   1.958   1.983   5.698  0.1009  0.8575 -1.2426
 9475TIP3   OH249839   2.027   0.450  10.628  0.4912 -0.3266 -0.1549
 9475TIP3    H149840   2.108   0.498  10.642  2.1284 -2.7507 -0.9813
 9475TIP3    H249841   1.969   0.512  10.585  1.8711  1.4529  0.4984
 9476TIP3   OH249842   3.336   1.586  13.778  0.5262 -0.0611  0.2660
 9476TIP3    H149843   3.246   1.607  13.755  0.5073  1.0978  1.3037
 9476TIP3    H249844   3.350   1.497  13.745 -0.7252  0.0657 -0.6208
 9477TIP3   OH249845   1.609   2.499   4.280 -0.3707  0.1528  0.0329
 9477TIP3    H149846   1.682   2.498   4.341  0.0348 -0.8265 -0.4515
 9477TIP3    H249847   1.540   2.449   4.324 -0.1547 -0.3665 -0.2157
 9478TIP3   OH249848   4.948   6.748  11.503 -0.2707  0.0809  0.2236
 9478TIP3    H149849   4.898   6.793  11.435 -0.9579  1.1494  1.4049
 9478TIP3    H249850   5.037   6.784  11.495 -0.5339  0.7740  0.3839
 9479TIP3   OH249851   1.088   5.776   3.370 -0.1502  0.2979  0.0725
 9479TIP3    H149852   1.125   5.750   3.454  1.4403  0.3132 -0.6133
 9479TIP3    H249853   0.994   5.767   3.382  0.2260 -4.4083  0.3158
 9480TIP3   OH249854   3.262   6.750  13.115  0.3727  0.1279 -0.2195
 9480TIP3    H149855   3.212   6.714  13.188  0.6778 -0.3151 -0.2321
 9480TIP3    H249856   3.261   6.845  13.130 -2.7683  0.4075 -1.6442
 9481TIP3   OH249857   1.084   4.406  11.919  0.3635 -0.1706  0.1624
 9481TIP3    H149858   1.062   4.426  12.010 -1.4783 -1.4557  0.0093
 9481TIP3    H249859   1.178   4.387  11.921  0.2677 -0.5420  1.8513
 9482TIP3   OH249860   4.620   5.595   3.167 -0.7224  0.0861 -0.2707
 9482TIP3    H149861   4.582   5.599   3.079 -1.4905  1.6895  0.1053
 9482TIP3    H249862   4.652   5.684   3.183 -1.2848  0.0080  1.3707
 9483TIP3   OH249863   2.031   5.655  13.265  0.2489 -0.3970 -0.3291
 9483TIP3    H149864   1.943   5.623  13.288  0.3073 -0.8673 -0.7420
 9483TIP3    H249865   2.082   5.644  13.344  0.0724 -0.6440 -0.2473
 9484TIP3   OH249866   6.658   1.050   0.868 -0.1845  0.0685 -0.0056
 9484TIP3    H149867   6.692   1.041   0.779 -0.2820  0.5369 -0.0874
 9484TIP3    H249868   6.682   1.138   0.895 -0.5554  0.0907  0.2636
 9485TIP3   OH249869   5.689   2.370   5.652  0.3697  0.4882  0.0264
 9485TIP3    H149870   5.692   2.348   5.559  2.5862  3.0225 -0.5689
 9485TIP3    H249871   5.597   2.357   5.677 -0.0336 -1.3020 -2.1972
 9486TIP3   OH249872   2.614   0.559   3.783  0.0202 -0.5008 -0.0559
 9486TIP3    H149873   2.522   0.586   3.780  0.2236  0.2934  0.4769
 9486TIP3    H249874   2.662   0.631   3.742  0.6696  0.4385  2.2738
 9487TIP3   OH249875   5.146   2.387  15.834 -0.0858 -0.1653 -0.1074
 9487TIP3    H149876   5.183   2.390  15.745  0.3730 -1.5909  0.0135
 9487TIP3    H249877   5.216   2.348  15.887 -0.8383 -0.5518  0.6138
 9488TIP3   OH249878   2.027   0.330  11.160  0.2035  0.2875  0.2508
 9488TIP3    H149879   2.014   0.313  11.067 -1.1773 -0.2659  0.5273
 9488TIP3    H249880   2.015   0.424  11.169 -1.2656  0.1249  0.1027
 9489TIP3   OH249881   0.526   3.316  12.158  0.4920  0.3906  0.1936
 9489TIP3    H149882   0.461   3.383  12.178  1.4945  1.5708 -0.4529
 9489TIP3    H249883   0.499   3.240  12.211 -1.8335  0.5990 -0.6343
 9490TIP3   OH249884   1.928   1.561   5.436 -0.4233 -0.5078  0.7061
 9490TIP3    H149885   1.891   1.506   5.367 -0.7727  1.1597 -0.4721
 9490TIP3    H249886   1.918   1.510   5.516 -1.0435 -2.0040 -0.3088
 9491TIP3   OH249887   3.604   0.728  12.900  0.4758  0.0052 -0.1341
 9491TIP3    H149888   3.663   0.653  12.889  1.5852  0.8599  0.0394
 9491TIP3    H249889   3.660   0.801  12.924  0.0366  2.0974 -4.8517
 9492TIP3   OH249890   0.623   6.720  14.155 -0.0148 -0.2773 -0.0204
 9492TIP3    H149891   0.671   6.795  14.190  1.4978 -1.5789  0.7465
 9492TIP3    H249892   0.554   6.703  14.220  1.1289 -1.0306  1.0090
 9493TIP3   OH249893   0.341   0.212  12.179  0.0246 -0.0810 -0.4250
 9493TIP3    H149894   0.296   0.175  12.103  0.9221  0.2114 -1.0965
 9493TIP3    H249895   0.431   0.183  12.171 -0.3436 -2.0451  1.8170
 9494TIP3   OH249896   2.401   5.692   4.313  0.8843  0.9765  0.2706
 9494TIP3    H149897   2.348   5.615   4.289 -0.0772  2.0393 -1.1035
 9494TIP3    H249898   2.436   5.671   4.400  2.5623 -2.0003 -1.0517
 9495TIP3   OH249899   2.089   6.556  16.887 -0.5293 -0.0692 -0.2829
 9495TIP3    H149900   2.079   6.640  16.931 -1.8058 -0.9925  1.2324
 9495TIP3    H249901   2.000   6.524  16.875 -0.0001 -1.8864  0.4956
 9496TIP3   OH249902   5.951   1.413  12.656  0.4163 -0.2466 -0.1343
 9496TIP3    H149903   5.943   1.467  12.577  1.5482  0.2984  0.1048
 9496TIP3    H249904   5.922   1.326  12.629  0.6894 -0.0376 -1.1235
 9497TIP3   OH249905   3.887   3.910  13.991  0.4931 -0.1947  0.1089
 9497TIP3    H149906   3.898   3.818  13.968  0.2372 -0.3634  0.6413
 9497TIP3    H249907   3.952   3.925  14.060 -0.0840 -0.2170  0.6592
 9498TIP3   OH249908   2.244   3.466   1.516  0.1683  0.0597  0.6316
 9498TIP3    H149909   2.325   3.467   1.464  0.1098 -0.9222  0.5128
 9498TIP3    H249910   2.202   3.384   1.493 -0.2831  0.0107  1.6021
 9499TIP3   OH249911   2.600   2.200   3.612 -0.3780  0.1146 -0.3115
 9499TIP3    H149912   2.540   2.136   3.651  0.2992 -0.9266 -0.9406
 9499TIP3    H249913   2.653   2.231   3.685 -0.3597 -0.4391 -0.0833
 9500TIP3   OH249914   2.184   4.577  16.792 -0.0083 -0.0717 -0.1602
 9500TIP3    H149915   2.113   4.591  16.855 -0.0486 -0.4388 -0.1246
 9500TIP3    H249916   2.190   4.660  16.744 -0.6507 -0.1354 -0.3565
 9501TIP3   OH249917   0.455   2.648  15.822  0.3817 -0.0487 -0.4177
 9501TIP3    H149918   0.533   2.598  15.845  0.1659  0.0835  0.6438
 9501TIP3    H249919   0.487   2.719  15.767  1.1702  0.6184  0.8772
 9502TIP3   OH249920   5.774   2.395  14.808 -0.0587 -0.2612 -0.4061
 9502TIP3    H149921   5.803   2.394  14.717 -1.2467  1.4386 -0.8382
 9502TIP3    H249922   5.772   2.488  14.831 -0.5058 -0.6418  1.1072
 9503TIP3   OH249923   1.343   5.530  11.694  0.0804  0.4865 -0.1275
 9503TIP3    H149924   1.314   5.573  11.614  0.2541 -1.7603 -1.4345
 9503TIP3    H249925   1.265   5.483  11.724  0.9523 -1.4730 -0.8855
 9504TIP3   OH249926   5.364   5.447  13.004  0.2323  0.1236  0.0888
 9504TIP3    H149927   5.365   5.537  13.037  0.2881 -0.5330  1.9685
 9504TIP3    H249928   5.408   5.397  13.073 -1.6091 -1.6581 -0.0161
 9505TIP3   OH249929   5.659   1.743  14.444 -0.4864 -0.0867 -0.4908
 9505TIP3    H149930   5.709   1.671  14.483  1.1005  1.3374  0.1208
 9505TIP3    H249931   5.707   1.765  14.364 -0.4933  0.8676 -0.2368
 9506TIP3   OH249932   2.553   6.305   4.720  0.2900  0.0808  0.3006
 9506TIP3    H149933   2.644   6.280   4.735  0.0900 -0.4521  0.6340
 9506TIP3    H249934   2.538   6.286   4.627  0.3271 -0.4457  0.3989
 9507TIP3   OH249935   6.342   5.716   4.327  0.6705  0.8713  0.0239
 9507TIP3    H149936   6.435   5.697   4.330  0.1468 -1.9337 -0.2633
 9507TIP3    H249937   6.304   5.645   4.276 -1.9911  0.2653  2.6827
 9508TIP3   OH249938   5.725   4.459   1.964 -0.3364  0.3378  0.0276
 9508TIP3    H149939   5.671   4.446   2.043 -0.8220  1.7638 -0.0644
 9508TIP3    H249940   5.787   4.528   1.989  0.6290 -0.4145 -0.2839
 9509TIP3   OH249941   2.059   3.249  11.278 -0.4320  0.6515 -0.2260
 9509TIP3    H149942   2.070   3.197  11.198  1.4954  1.7377 -0.6980
 9509TIP3    H249943   2.035   3.336  11.247 -0.1345  0.9527  0.3851
 9510TIP3   OH249944   2.670   0.201   2.579  0.1801 -0.0488  0.3504
 9510TIP3    H149945   2.652   0.287   2.617  0.0831  0.2645 -0.3962
 9510TIP3    H249946   2.605   0.143   2.619 -1.8883  0.8672 -1.5585
 9511TIP3   OH249947   4.876   6.156   5.602 -0.5775 -0.0095 -0.6550
 9511TIP3    H149948   4.968   6.136   5.584 -0.4994 -0.4829  0.2864
 9511TIP3    H249949   4.832   6.145   5.517  0.4253  1.3924 -1.3894
 9512TIP3   OH249950   3.695   2.763  15.943  0.3948  0.0461  0.1184
 9512TIP3    H149951   3.654   2.758  15.857  1.1354 -1.9849 -0.1386
 9512TIP3    H249952   3.765   2.827  15.932  1.5712 -1.4493 -1.2596
 9513TIP3   OH249953   1.208   5.237   3.192 -0.4417  0.1438  0.1743
 9513TIP3    H149954   1.251   5.151   3.189 -1.2899 -0.2420 -3.7973
 9513TIP3    H249955   1.134   5.225   3.252  0.5378 -1.3725  1.0901
 9514TIP3   OH249956   6.694   4.403   5.435  0.3733 -0.1889 -0.2617
 9514TIP3    H149957   6.693   4.309   5.417  0.3176 -0.4915  1.2835
 9514TIP3    H249958   6.651   4.412   5.520 -0.8025  1.3792 -1.0101
 9515TIP3   OH249959   0.088   6.632   0.417 -0.1607  0.3887  0.1286
 9515TIP3    H149960   0.101   6.564   0.484 -0.6811 -0.2378 -0.4003
 9515TIP3    H249961   0.124   6.711   0.456  1.7063 -0.4818  0.2208
 9516TIP3   OH249962   0.190   2.430  15.092  0.0682 -0.0095  0.3328
 9516TIP3    H149963   0.138   2.385  15.158 -0.1644 -1.6797 -0.9700
 9516TIP3    H249964   0.274   2.446  15.135 -0.2517 -0.6528  1.2049
 9517TIP3   OH249965   2.695   5.215   0.478  0.0002  0.0544  0.1760
 9517TIP3    H149966   2.617   5.170   0.511  0.6009 -1.0834  0.1052
 9517TIP3    H249967   2.663   5.272   0.409 -1.0436  1.2149  1.6079
 9518TIP3   OH249968   2.055   5.975   3.978  0.3830  0.6945 -0.1493
 9518TIP3    H149969   2.052   6.048   3.916  0.7255  1.2531  0.4820
 9518TIP3    H249970   2.088   6.014   4.059  2.2413 -0.5092 -0.2989
 9519TIP3   OH249971   2.285   0.184   3.721 -0.7634  0.0768 -0.0413
 9519TIP3    H149972   2.333   0.258   3.684  0.0590  0.0351  0.8999
 9519TIP3    H249973   2.313   0.109   3.670 -0.3029  0.1528  0.0958
 9520TIP3   OH249974   3.855   5.676  12.821  0.1354 -0.5537  0.5118
 9520TIP3    H149975   3.772   5.684  12.868 -0.8156 -1.9084 -0.9007
 9520TIP3    H249976   3.857   5.585  12.791  0.9747  0.1455 -1.6284
 9521TIP3   OH249977   6.350   3.980   4.123  0.1425  0.4347  0.1792
 9521TIP3    H149978   6.432   3.984   4.172 -0.0982 -0.8045  0.6994
 9521TIP3    H249979   6.363   3.910   4.059  0.2516  1.6653 -1.1734
 9522TIP3   OH249980   6.489   3.520   3.424 -0.2146 -0.1249  0.3822
 9522TIP3    H149981   6.399   3.548   3.441 -0.4516 -0.7914  0.2393
 9522TIP3    H249982   6.522   3.583   3.361  0.2842  1.6744  2.3727
 9523TIP3   OH249983   5.825   2.778   2.841  0.0523  0.2539  0.4332
 9523TIP3    H149984   5.903   2.747   2.795  1.0355  3.1065  0.0399
 9523TIP3    H249985   5.761   2.795   2.771 -0.8392 -1.7171  0.7242
 9524TIP3   OH249986   1.904   5.916  11.561  0.8148  0.5338  0.5258
 9524TIP3    H149987   1.934   5.992  11.610 -0.0458  0.2326  1.5314
 9524TIP3    H249988   1.971   5.849  11.576 -0.0619  0.0293  2.3529
 9525TIP3   OH249989   2.234   6.487   5.974 -0.5228 -0.1005 -0.3931
 9525TIP3    H149990   2.276   6.449   5.897  0.6590  0.8215 -0.2047
 9525TIP3    H249991   2.296   6.473   6.046 -1.1550 -0.0019  0.1855
 9526TIP3   OH249992   2.914   4.092  14.614 -0.0271  0.0210 -0.1024
 9526TIP3    H149993   2.968   4.142  14.675  0.4585  0.6262 -1.0245
 9526TIP3    H249994   2.831   4.080  14.661 -0.4754  2.4517 -0.1797
 9527TIP3   OH249995   2.661   2.605  16.525  0.4216 -0.0214  0.2329
 9527TIP3    H149996   2.673   2.696  16.499 -1.7870  0.1147 -0.3666
 9527TIP3    H249997   2.614   2.565  16.452 -0.1899 -1.2078  1.2625
 9528TIP3   OH249998   3.383   4.990  13.154 -0.6578 -0.4547  0.2316
 9528TIP3    H149999   3.413   5.049  13.086 -1.1205  1.8259  1.9494
 9528TIP3    H250000   3.287   4.997  13.153 -0.6900 -0.6999  0.8470
 9529TIP3   OH250001   3.353   1.114   4.411  0.2732 -0.0660  0.5095
 9529TIP3    H150002   3.360   1.054   4.485  1.5702 -0.6751 -0.1018
 9529TIP3    H250003   3.263   1.147   4.415  0.6426  0.7630  3.0173
 9530TIP3   OH250004   4.535   1.893  13.358  0.0613  0.5434  0.0370
 9530TIP3    H150005   4.552   1.805  13.322 -2.5215  0.1462 -0.3105
 9530TIP3    H250006   4.588   1.896  13.437  1.3486 -0.7742 -0.7368
 9531TIP3   OH250007   1.601   6.731  13.004  0.4653 -0.3455 -0.0901
 9531TIP3    H150008   1.577   6.733  13.096 -0.3973 -1.4709 -0.2704
 9531TIP3    H250009   1.518   6.722  12.958  1.1034 -3.1266 -0.8001
 9532TIP3   OH250010   1.657   6.131  15.457  0.8999  0.2179  0.1873
 9532TIP3    H150011   1.682   6.039  15.464 -1.1012 -0.1923  3.3534
 9532TIP3    H250012   1.574   6.130  15.409  1.2492  0.4398 -0.4223
 9533TIP3   OH250013   2.480   4.315  14.479  0.1898 -0.3732  0.2538
 9533TIP3    H150014   2.482   4.224  14.508 -0.2542 -0.9715 -1.5750
 9533TIP3    H250015   2.388   4.336  14.469  0.3357 -0.1825 -0.7421
 9534TIP3   OH250016   6.146   5.650   1.994 -0.0916 -0.0666  0.1774
 9534TIP3    H150017   6.170   5.557   2.005  4.3258  1.1484  1.9452
 9534TIP3    H250018   6.161   5.668   1.902 -0.9781 -1.0702 -0.1762
 9535TIP3   OH250019   3.797   4.547  15.228  0.0633 -0.1760 -0.0048
 9535TIP3    H150020   3.718   4.519  15.275 -0.2926  0.7618 -0.0221
 9535TIP3    H250021   3.782   4.640  15.212  1.2720  0.0550  0.1870
 9536TIP3   OH250022   6.684   2.389   3.451 -0.0413 -1.0385  0.8740
 9536TIP3    H150023   6.726   2.460   3.499  0.8016 -1.2345  0.4472
 9536TIP3    H250024   6.737   2.380   3.371 -0.9048 -1.2849  0.3207
 9537TIP3   OH250025   0.811   2.353  11.377  0.9129 -0.0631 -0.0339
 9537TIP3    H150026   0.813   2.434  11.326  1.7947  1.7204  2.7131
 9537TIP3    H250027   0.729   2.358  11.427  0.5115 -1.3252 -0.5526
 9538TIP3   OH250028   0.580   3.828   2.562 -0.2082 -0.4015  0.5347
 9538TIP3    H150029   0.583   3.888   2.636 -0.4900 -1.7066  1.6249
 9538TIP3    H250030   0.620   3.877   2.490 -0.9479  1.2998  1.2395
 9539TIP3   OH250031   4.998   0.015  12.006 -0.0565  0.6344  0.0413
 9539TIP3    H150032   5.084  -0.013  11.976  0.1575 -0.8592  1.9009
 9539TIP3    H250033   5.015   0.059  12.089 -0.8900  2.1306 -0.5741
 9540TIP3   OH250034   5.146   3.056   5.462 -0.4848 -0.0353  0.3297
 9540TIP3    H150035   5.155   3.075   5.369 -1.5230 -0.9526  0.0298
 9540TIP3    H250036   5.223   3.095   5.503  0.7247 -0.9024 -1.1069
 9541TIP3   OH250037   2.545   2.168  15.064 -0.2501 -0.7757  0.1075
 9541TIP3    H150038   2.595   2.090  15.040  1.4962 -0.1933  1.7328
 9541TIP3    H250039   2.610   2.237  15.073 -1.4267  0.1987  1.5038
 9542TIP3   OH250040   3.092   3.934  12.818  0.3366  0.4175  0.4319
 9542TIP3    H150041   3.066   3.952  12.728 -0.3008  0.0210  0.5376
 9542TIP3    H250042   3.103   4.021  12.858  3.5802  0.6689 -0.8554
 9543TIP3   OH250043   6.135   1.973   3.073 -0.0025 -0.0833  0.3936
 9543TIP3    H150044   6.062   2.001   3.128 -0.2360  1.4507 -0.6776
 9543TIP3    H250045   6.126   2.024   2.992  0.5738 -1.9953 -0.9219
 9544TIP3   OH250046   5.559   5.232  11.723  0.0298 -0.0332 -0.0318
 9544TIP3    H150047   5.585   5.314  11.765  0.5418 -0.1734 -0.0668
 9544TIP3    H250048   5.573   5.165  11.791  1.3358 -0.3301 -0.5719
 9545TIP3   OH250049   2.302   1.048   6.538 -0.2369 -0.3699  0.3631
 9545TIP3    H150050   2.367   1.116   6.522  1.7834 -2.7132 -2.0128
 9545TIP3    H250051   2.306   1.032   6.632  2.2298 -0.0619  0.3422
 9546TIP3   OH250052   0.195   2.676   2.492  0.0514  0.8253  0.1473
 9546TIP3    H150053   0.252   2.732   2.439  0.3372  0.1333 -0.2819
 9546TIP3    H250054   0.187   2.595   2.442 -0.1413  0.3765  0.8897
 9547TIP3   OH250055   1.836   1.456  11.133  0.5055 -0.3390 -0.6489
 9547TIP3    H150056   1.742   1.453  11.116  0.4782 -1.3987 -0.3609
 9547TIP3    H250057   1.876   1.460  11.046  0.1557  2.1141 -0.7373
 9548TIP3   OH250058   1.599   0.837   2.400 -0.1384 -0.4353 -0.0962
 9548TIP3    H150059   1.560   0.863   2.317 -1.7936  0.2294  0.8709
 9548TIP3    H250060   1.654   0.911   2.425  0.2422 -0.5731 -0.5140
 9549TIP3   OH250061   0.872   4.113  15.611 -0.0073  0.3864 -0.4650
 9549TIP3    H150062   0.798   4.162  15.647  0.4514  0.5634  0.2510
 9549TIP3    H250063   0.837   4.070  15.533 -1.4693 -1.3615  1.1181
 9550TIP3   OH250064   2.491   6.203   4.097 -0.4286 -0.1211  0.1332
 9550TIP3    H150065   2.555   6.246   4.154 -0.2096  1.2231 -1.1101
 9550TIP3    H250066   2.464   6.271   4.036 -1.9656 -1.0810 -0.2743
 9551TIP3   OH250067   1.250   5.906   3.972  0.1145 -0.2588 -0.0958
 9551TIP3    H150068   1.156   5.922   3.966  0.3333  0.8516 -0.6141
 9551TIP3    H250069   1.266   5.891   4.065 -0.3697  0.8435  0.1657
 9552TIP3   OH250070   5.726   4.960   3.956 -0.1129 -0.1053 -0.2400
 9552TIP3    H150071   5.666   4.956   3.882 -0.5591  1.0736  0.0435
 9552TIP3    H250072   5.670   4.957   4.033  0.1835  0.9252  0.0261
 9553TIP3   OH250073   1.983   1.758   6.510 -0.2065  0.0145  0.3186
 9553TIP3    H150074   2.052   1.692   6.515  2.3591  2.5131 -0.5781
 9553TIP3    H250075   2.008   1.824   6.575 -2.2813  0.4755  0.6759
 9554TIP3   OH250076   0.308   0.717  11.228  0.1455 -0.0574 -0.3065
 9554TIP3    H150077   0.292   0.652  11.159  0.5245  2.3178 -2.7603
 9554TIP3    H250078   0.231   0.774  11.225  0.0254 -0.1231  1.4905
 9555TIP3   OH250079   3.882   6.080  11.782 -0.6472 -0.2934 -1.1611
 9555TIP3    H150080   3.846   6.074  11.870 -0.0573  1.2899 -0.7924
 9555TIP3    H250081   3.849   6.163  11.748  1.7165  0.6517 -1.2257
 9556TIP3   OH250082   1.137   1.886  15.235 -0.2240 -0.6441 -0.1315
 9556TIP3    H150083   1.119   1.889  15.329  1.6576 -1.6597  0.2922
 9556TIP3    H250084   1.166   1.796  15.219  1.0652 -0.0274 -1.3543
 9557TIP3   OH250085   1.074   3.197  14.822  0.2813  0.3418  0.0296
 9557TIP3    H150086   0.978   3.198  14.813  0.2026 -0.5931  0.7232
 9557TIP3    H250087   1.089   3.209  14.916  0.7767 -1.6648  0.2244
 9558TIP3   OH250088   2.075   6.189   2.004 -0.2809 -0.0430 -0.3213
 9558TIP3    H150089   2.167   6.210   1.997 -0.0368 -0.8462  0.3091
 9558TIP3    H250090   2.045   6.237   2.082 -0.5675  0.7828 -0.9348
 9559TIP3   OH250091   1.333   0.036   4.704 -0.5616 -0.3044 -0.2481
 9559TIP3    H150092   1.330  -0.053   4.671 -0.7543 -0.5031  0.2946
 9559TIP3    H250093   1.249   0.047   4.750  0.7002 -0.8803  2.3083
 9560TIP3   OH250094   2.133   0.450   5.879 -0.1870  0.4995 -0.1043
 9560TIP3    H150095   2.120   0.465   5.972  1.0146  2.0542 -0.1531
 9560TIP3    H250096   2.085   0.521   5.836  0.1263  0.4074 -0.6209
 9561TIP3   OH250097   0.033   6.760   3.177 -0.2641  0.2268 -0.0861
 9561TIP3    H150098  -0.044   6.764   3.119  0.6710 -0.1743 -1.3813
 9561TIP3    H250099   0.002   6.713   3.255 -1.5654  0.8326 -0.2180
 9562TIP3   OH250100   4.371   1.684  15.356  0.1408 -0.0314  0.0180
 9562TIP3    H150101   4.292   1.684  15.303  0.0021 -2.6127  0.1410
 9562TIP3    H250102   4.340   1.675  15.446  0.5000  1.0206  0.2521
 9563TIP3   OH250103   0.343   0.001  14.886  0.4693  0.3094 -0.6363
 9563TIP3    H150104   0.351   0.081  14.834  0.0603  0.2490 -0.7986
 9563TIP3    H250105   0.360  -0.070  14.824  0.7369  0.2674 -0.5158
 9564TIP3   OH250106   4.137   6.233  16.087  0.5969 -0.2139  0.6071
 9564TIP3    H150107   4.045   6.254  16.074  0.5387 -0.5469  0.4669
 9564TIP3    H250108   4.165   6.288  16.160  0.5758  0.6962 -0.0518
 9565TIP3   OH250109   1.404   6.349  14.299  0.4256 -0.4787 -1.0056
 9565TIP3    H150110   1.319   6.306  14.288  1.8577 -3.8069  0.3031
 9565TIP3    H250111   1.460   6.308  14.234  1.9173 -0.8389  0.4708
 9566TIP3   OH250112   3.608   3.074   0.695 -0.0191 -0.3206 -0.4745
 9566TIP3    H150113   3.519   3.084   0.661 -0.6963  0.9455  1.5995
 9566TIP3    H250114   3.656   3.148   0.657 -0.0451 -0.5287 -0.9220
 9567TIP3   OH250115   5.776   1.496  12.426 -0.1347  0.0220 -0.5597
 9567TIP3    H150116   5.727   1.425  12.469  0.3850 -0.0597 -0.0878
 9567TIP3    H250117   5.829   1.452  12.360  0.1347 -0.0300 -0.3147
 9568TIP3   OH250118   6.431   1.480  12.612  0.0204  0.2102  0.1745
 9568TIP3    H150119   6.368   1.409  12.631  1.0416 -0.7142  0.1779
 9568TIP3    H250120   6.478   1.492  12.694  0.0013  0.7483  0.1079
 9569TIP3   OH250121   5.056   0.159   6.440  0.7484 -0.0217 -0.3165
 9569TIP3    H150122   5.049   0.066   6.417  2.1965  0.3149 -2.2414
 9569TIP3    H250123   5.028   0.205   6.361  2.6494  1.1769 -0.3232
 9570TIP3   OH250124   3.366   0.931   5.905 -0.2465  0.3117  0.1408
 9570TIP3    H150125   3.309   0.997   5.945  0.6306  0.6033  0.9397
 9570TIP3    H250126   3.348   0.936   5.812  0.0452  1.9121  0.1607
 9571TIP3   OH250127   1.692   4.915   1.716 -0.4654 -0.3755 -0.3798
 9571TIP3    H150128   1.691   4.843   1.654 -1.3819 -0.4026 -0.3455
 9571TIP3    H250129   1.703   4.874   1.802  2.4787 -0.2297 -0.6325
 9572TIP3   OH250130   0.515   5.434  15.745 -0.2872  0.2842  0.4020
 9572TIP3    H150131   0.580   5.432  15.675 -0.4924  0.6342  0.1981
 9572TIP3    H250132   0.511   5.526  15.771  1.4794 -0.1969  2.4687
 9573TIP3   OH250133   0.343   2.645   5.551  0.6145  0.0602 -0.6906
 9573TIP3    H150134   0.284   2.586   5.506  1.5813 -1.4493 -0.0238
 9573TIP3    H250135   0.364   2.601   5.633  0.1002  2.0642  0.5565
 9574TIP3   OH250136   3.329   0.732  13.240  0.2908  0.2705 -0.2648
 9574TIP3    H150137   3.400   0.695  13.294 -0.1897 -0.6362 -0.2567
 9574TIP3    H250138   3.374   0.793  13.181  1.0863 -0.3339 -0.2920
 9575TIP3   OH250139   0.438   5.038   0.337  0.2181 -0.2098  0.2328
 9575TIP3    H150140   0.493   5.015   0.412  2.1748 -0.2141 -1.1551
 9575TIP3    H250141   0.389   5.115   0.365  2.8185  1.3379  0.6443
 9576TIP3   OH250142   6.763   3.854  12.646  0.1587  0.5430  0.0542
 9576TIP3    H150143   6.709   3.926  12.678 -0.9572  0.1522 -0.9139
 9576TIP3    H250144   6.716   3.821  12.569  0.6559 -1.2153  0.4863
 9577TIP3   OH250145   2.777   1.695   6.526  0.1338  0.1910  0.5676
 9577TIP3    H150146   2.761   1.784   6.559  0.0104  0.4932 -0.2968
 9577TIP3    H250147   2.694   1.670   6.484 -0.0219 -0.5543  1.2865
 9578TIP3   OH250148   5.216   6.776   6.205  0.2856  0.1785  0.7751
 9578TIP3    H150149   5.144   6.825   6.165 -1.7369 -1.7326  1.9394
 9578TIP3    H250150   5.172   6.711   6.260  2.9299 -1.1575  1.3572
 9579TIP3   OH250151   2.161   0.596   5.013 -0.4333  0.1331  0.2827
 9579TIP3    H150152   2.143   0.689   5.002 -0.8426  0.0425  0.1525
 9579TIP3    H250153   2.209   0.590   5.095 -0.1590  0.4884  0.1495
 9580TIP3   OH250154   6.181   5.375  16.183  0.4819 -0.3646  0.1386
 9580TIP3    H150155   6.112   5.438  16.204  0.1116 -0.1476 -1.7211
 9580TIP3    H250156   6.196   5.328  16.266 -0.3023  1.1098  1.1352
 9581TIP3   OH250157   4.268   1.712  11.142 -0.2006  0.1887 -0.2328
 9581TIP3    H150158   4.175   1.701  11.166 -0.3320 -0.0630 -0.8343
 9581TIP3    H250159   4.306   1.626  11.158 -0.4524 -0.1869 -1.6190
 9582TIP3   OH250160   1.446   6.615   1.186  0.8743 -0.1802  0.0494
 9582TIP3    H150161   1.454   6.708   1.170 -1.0850 -0.3811 -2.2890
 9582TIP3    H250162   1.356   6.604   1.219  1.0937 -1.2367  0.3159
 9583TIP3   OH250163   4.427   2.972  15.481 -0.0310 -0.0771 -0.3218
 9583TIP3    H150164   4.497   2.996  15.421 -0.0769  0.4782 -0.1582
 9583TIP3    H250165   4.471   2.932  15.556  0.1072  0.1881 -0.2595
 9584TIP3   OH250166   0.015   4.156   6.156 -0.5779  0.0640 -0.2640
 9584TIP3    H150167  -0.051   4.112   6.103 -2.2533  1.4415  0.6093
 9584TIP3    H250168  -0.034   4.192   6.230  0.8678  2.4807 -0.4194
 9585TIP3   OH250169   1.510   4.306   3.967  0.6075  0.5041  0.4027
 9585TIP3    H150170   1.557   4.224   3.980  1.4660  1.1540  1.5067
 9585TIP3    H250171   1.418   4.285   3.984  0.4453 -0.8328 -2.0124
 9586TIP3   OH250172   1.518   3.005  14.630 -0.1585 -0.3076  0.2995
 9586TIP3    H150173   1.487   3.095  14.618 -3.0666 -1.4438 -1.1155
 9586TIP3    H250174   1.497   2.984  14.721 -2.6348 -0.6735 -0.3236
 9587TIP3   OH250175   0.733   1.717  16.406  0.0999  0.1520  0.0555
 9587TIP3    H150176   0.722   1.668  16.488  3.3232  0.1328  0.5389
 9587TIP3    H250177   0.766   1.651  16.344 -0.0255  0.6951 -0.5861
 9588TIP3   OH250178   5.846   0.883  14.306  0.2257 -0.2722  0.4416
 9588TIP3    H150179   5.841   0.929  14.223 -0.0718 -1.8372 -0.4333
 9588TIP3    H250180   5.923   0.827  14.297 -0.2724 -1.0391  0.9033
 9589TIP3   OH250181   4.928   3.057   3.545 -0.7891  0.5698  0.2023
 9589TIP3    H150182   4.945   3.037   3.453 -1.4626 -2.3193  0.6742
 9589TIP3    H250183   4.833   3.063   3.551 -0.8427 -0.8767  1.0080
 9590TIP3   OH250184   3.358   1.542   2.207 -0.6481 -0.0955 -0.4266
 9590TIP3    H150185   3.367   1.516   2.299  3.4698 -0.3866 -0.8254
 9590TIP3    H250186   3.407   1.477   2.158 -0.1128  1.8068 -2.5242
 9591TIP3   OH250187   0.007   2.982  16.679  0.0544  0.0020 -0.2738
 9591TIP3    H150188  -0.035   3.068  16.672 -1.2796 -0.3207  2.8867
 9591TIP3    H250189  -0.062   2.921  16.653  0.8222 -0.1678 -1.9521
 9592TIP3   OH250190   2.698   1.099   2.367 -0.0994 -0.1713  0.1253
 9592TIP3    H150191   2.673   1.051   2.446  0.2066 -1.7678 -0.7391
 9592TIP3    H250192   2.785   1.134   2.388 -0.4720  0.3105  0.8884
 9593TIP3   OH250193   0.855   4.799   5.486  0.0649  0.0686  0.8908
 9593TIP3    H150194   0.775   4.828   5.530  0.3838  0.2521  1.3568
 9593TIP3    H250195   0.897   4.741   5.549  1.3856  1.6697  1.5281
 9594TIP3   OH250196   0.703   0.307   0.169 -0.2660  0.2940  0.1654
 9594TIP3    H150197   0.768   0.354   0.222 -0.3260 -0.6267  1.0847
 9594TIP3    H250198   0.744   0.297   0.084  0.5390  0.2911  0.5466
 9595TIP3   OH250199   4.665   0.073   3.546 -0.0315  0.2142  0.3895
 9595TIP3    H150200   4.610   0.115   3.612 -0.0701 -0.8337  1.0355
 9595TIP3    H250201   4.692   0.145   3.488 -0.4731  1.0469  1.2026
 9596TIP3   OH250202   2.371   0.513  12.006  0.0270  0.8186  0.1251
 9596TIP3    H150203   2.376   0.417  12.012 -1.2347  0.7485  0.0810
 9596TIP3    H250204   2.460   0.540  11.981  0.6005 -0.2736  0.9619
 9597TIP3   OH250205   0.005   2.712   3.933  0.5444 -0.1563 -0.4216
 9597TIP3    H150206   0.079   2.761   3.967  0.4084 -0.6518  0.6172
 9597TIP3    H250207  -0.032   2.668   4.009 -1.7940  1.3541 -0.6345
 9598TIP3   OH250208   6.512   4.982  12.611  0.2967  0.1084 -0.3781
 9598TIP3    H150209   6.592   4.998  12.660 -1.5086  4.0713  1.5420
 9598TIP3    H250210   6.476   4.902  12.650  1.9778 -0.2332  0.5404
 9599TIP3   OH250211   2.823   2.622   4.210 -0.1834  0.1227 -0.3706
 9599TIP3    H150212   2.845   2.681   4.281 -1.9714 -0.6863  0.8949
 9599TIP3    H250213   2.727   2.616   4.212 -0.1786 -1.0106 -1.9422
 9600TIP3   OH250214   0.566   4.026  17.071  0.4136  0.5726 -0.2362
 9600TIP3    H150215   0.613   4.000  17.150 -0.4358  0.7712  0.3564
 9600TIP3    H250216   0.566   3.948  17.015  3.1169  1.1552 -1.1007
 9601TIP3   OH250217   1.397   0.957  16.340  0.1011 -0.2050  0.2401
 9601TIP3    H150218   1.385   0.914  16.255 -0.3667 -1.9958  1.1696
 9601TIP3    H250219   1.346   1.038  16.334  0.3683 -0.1440 -1.3000
 9602TIP3   OH250220   0.691   2.037  12.800  0.0816  0.2541 -0.3365
 9602TIP3    H150221   0.612   2.081  12.768 -0.3752  1.0841  1.8116
 9602TIP3    H250222   0.762   2.072  12.746 -0.7683  0.9166 -1.0404
 9603TIP3   OH250223   3.104   6.212  13.127 -0.3090  0.0510  0.5720
 9603TIP3    H150224   3.161   6.279  13.090 -0.2819 -0.2784  0.0121
 9603TIP3    H250225   3.022   6.220  13.077  1.0342 -3.0133 -2.3306
 9604TIP3   OH250226   3.055   4.188   3.177 -0.0238  0.2440  0.3005
 9604TIP3    H150227   2.980   4.247   3.183 -1.2866 -1.2489 -0.3696
 9604TIP3    H250228   3.100   4.198   3.261  0.5284  3.0937 -0.2948
 9605TIP3   OH250229   0.086   5.767  13.002 -0.0560 -0.2258  0.1847
 9605TIP3    H150230   0.015   5.744  13.062  1.3433  0.8157  2.3129
 9605TIP3    H250231   0.160   5.716  13.032  0.2972 -0.7813 -1.5948
 9606TIP3   OH250232   0.348   4.088  15.894 -0.0539 -0.1435 -0.6153
 9606TIP3    H150233   0.276   4.117  15.837  0.6181  0.9256 -0.9352
 9606TIP3    H250234   0.311   4.091  15.982 -0.6510 -0.3855 -0.8524
 9607TIP3   OH250235   5.565   4.026   1.154  0.2983 -0.0010 -0.8858
 9607TIP3    H150236   5.489   4.066   1.111  0.9422  1.4700 -0.7111
 9607TIP3    H250237   5.633   4.093   1.148  1.1319 -0.7311  0.2586
 9608TIP3   OH250238   5.500   5.220  15.932 -0.4711 -0.1799 -0.0593
 9608TIP3    H150239   5.522   5.216  16.025 -0.1131 -0.6500 -0.1632
 9608TIP3    H250240   5.530   5.306  15.904 -1.2918  0.2828  0.4373
 9609TIP3   OH250241   4.770   4.233   3.428 -0.7113  0.3711  0.0571
 9609TIP3    H150242   4.738   4.144   3.416 -1.6373  0.8879 -1.3386
 9609TIP3    H250243   4.765   4.273   3.341 -1.0489  2.0320  0.8196
 9610TIP3   OH250244   0.658   5.144  11.336  0.6035 -0.3129 -0.0669
 9610TIP3    H150245   0.589   5.141  11.269 -0.6030  1.9186  1.0091
 9610TIP3    H250246   0.648   5.061  11.384 -1.6360  0.1656  0.3448
 9611TIP3   OH250247   1.216   1.322   3.166  0.3343  0.3092 -0.3583
 9611TIP3    H150248   1.237   1.384   3.235 -1.8894 -0.8613  1.4275
 9611TIP3    H250249   1.287   1.258   3.169  0.7717  0.8126  0.1699
 9612TIP3   OH250250   1.582   2.260   1.837 -0.1531  0.3258  0.2285
 9612TIP3    H150251   1.581   2.346   1.878 -1.9516 -0.1628  1.2606
 9612TIP3    H250252   1.593   2.199   1.910 -1.7514 -0.4749 -0.1801
 9613TIP3   OH250253   1.961   0.315  14.844 -0.1947  0.2895  0.2034
 9613TIP3    H150254   1.884   0.316  14.900 -0.6290 -0.3378 -0.3756
 9613TIP3    H250255   1.989   0.223  14.844 -0.6381  0.1479 -1.2051
 9614TIP3   OH250256   2.060   1.154   2.978  0.1736 -0.5388 -0.0725
 9614TIP3    H150257   2.041   1.081   2.919  0.6911 -1.3636  0.7560
 9614TIP3    H250258   2.048   1.232   2.925 -0.7622 -1.2147 -0.8726
 9615TIP3   OH250259   2.899   0.808   2.303  0.3646 -0.3188 -0.5794
 9615TIP3    H150260   2.820   0.844   2.261  0.2791 -1.6112 -1.5434
 9615TIP3    H250261   2.871   0.725   2.341  0.3890  0.9549  2.3048
 9616TIP3   OH250262   1.640   5.883   4.240 -0.1836 -0.2750  0.1543
 9616TIP3    H150263   1.663   5.972   4.267 -4.5178  0.3063  2.3150
 9616TIP3    H250264   1.591   5.896   4.158 -1.9252 -0.5241  1.1428
 9617TIP3   OH250265   4.597   4.411  13.670 -0.3143 -0.2160 -0.1219
 9617TIP3    H150266   4.672   4.376  13.623  0.5898 -0.7956  1.6873
 9617TIP3    H250267   4.522   4.390  13.616  0.7819 -0.0592 -1.7240
 9618TIP3   OH250268   2.445   5.014  12.863 -0.0422 -0.2996 -0.5034
 9618TIP3    H150269   2.463   5.108  12.858 -0.5159 -0.1142  1.1477
 9618TIP3    H250270   2.453   4.983  12.772  0.5249  1.2497 -0.9866
 9619TIP3   OH250271   3.745   0.112   3.742 -0.4202  0.4048  0.1039
 9619TIP3    H150272   3.840   0.101   3.744 -0.4143  0.3050 -0.5682
 9619TIP3    H250273   3.731   0.191   3.689 -0.6851  0.8007  0.7519
 9620TIP3   OH250274   5.551   2.983   0.513  0.1164 -0.0263  0.8913
 9620TIP3    H150275   5.615   2.965   0.582 -1.4665  0.4861  2.5499
 9620TIP3    H250276   5.471   2.940   0.544 -0.7855  0.7586 -0.3239
 9621TIP3   OH250277   3.282   2.743  12.939 -0.5386  0.2147 -0.6203
 9621TIP3    H150278   3.200   2.786  12.916 -1.3792 -0.9465  0.1540
 9621TIP3    H250279   3.324   2.725  12.855 -1.2516  0.4865 -1.0373
 9622TIP3   OH250280   6.687   0.679  13.501 -0.0485  0.3017  0.0390
 9622TIP3    H150281   6.750   0.688  13.430  0.0642  2.0734  0.3538
 9622TIP3    H250282   6.729   0.719  13.577 -0.5132 -0.8070  0.9130
 9623TIP3   OH250283   0.501   2.158  12.232  0.0261  0.1192 -0.3016
 9623TIP3    H150284   0.549   2.163  12.314 -1.6003 -1.6093  0.7759
 9623TIP3    H250285   0.453   2.241  12.227 -0.1422  0.0776  0.6562
 9624TIP3   OH250286   0.333   5.698   1.569  0.5142  0.1967 -0.2103
 9624TIP3    H150287   0.309   5.642   1.643 -0.5468  0.5572 -0.2761
 9624TIP3    H250288   0.429   5.693   1.565  0.5033 -0.6411  0.5433
 9625TIP3   OH250289   2.461   0.593  14.086 -0.2397  0.3658 -0.5436
 9625TIP3    H150290   2.453   0.633  14.172 -0.1755  0.8707 -0.7691
 9625TIP3    H250291   2.514   0.655  14.035 -0.9847  0.4764 -1.1950
 9626TIP3   OH250292   2.423   3.626   5.281 -0.1339  0.6042 -0.0613
 9626TIP3    H150293   2.388   3.626   5.370  2.2424  0.8032  0.9372
 9626TIP3    H250294   2.442   3.718   5.263  0.2852  0.4562 -0.3878
 9627TIP3   OH250295   1.819   4.499  15.869 -0.2759  0.3381 -0.1532
 9627TIP3    H150296   1.829   4.453  15.952  0.1185 -1.8348 -1.3692
 9627TIP3    H250297   1.899   4.479  15.820  0.2554  2.9487 -0.4472
 9628TIP3   OH250298   6.631   6.635  11.821 -0.2417 -0.1513  0.2914
 9628TIP3    H150299   6.707   6.630  11.880  0.5024  1.2399 -0.4965
 9628TIP3    H250300   6.562   6.672  11.875  0.1637  0.2513  0.5435
 9629TIP3   OH250301   5.891   5.738  15.357  0.0329 -0.2479  0.4664
 9629TIP3    H150302   5.932   5.653  15.341  0.7642  0.1274  0.3599
 9629TIP3    H250303   5.964   5.798  15.372 -0.3937  0.7676 -1.3542
 9630TIP3   OH250304   4.716   2.734   0.352 -0.1505  0.1214  0.6486
 9630TIP3    H150305   4.696   2.646   0.385  0.8961  1.1187  4.1859
 9630TIP3    H250306   4.810   2.745   0.368  0.5480  0.5328 -3.2484
 9631TIP3   OH250307   5.614   1.515  16.659 -0.2831 -0.4584 -0.2292
 9631TIP3    H150308   5.524   1.539  16.634 -0.2986 -0.6112 -0.3197
 9631TIP3    H250309   5.606   1.481  16.747 -0.2595 -0.1207 -0.0954
 9632TIP3   OH250310   1.767   4.272   5.669 -0.3895  0.1032 -0.0491
 9632TIP3    H150311   1.709   4.280   5.744 -2.1458 -1.4740 -1.1717
 9632TIP3    H250312   1.714   4.304   5.595  0.8661  0.4767 -0.7943
 9633TIP3   OH250313   6.766   4.084   4.919 -0.7571 -0.4015 -0.1000
 9633TIP3    H150314   6.823   4.102   4.844 -0.6517 -0.8101 -0.1151
 9633TIP3    H250315   6.678   4.095   4.885 -0.7555 -1.8986 -0.6276
 9634TIP3   OH250316   0.615   4.466   0.549 -0.6520 -0.2681 -0.2459
 9634TIP3    H150317   0.606   4.374   0.573  1.1346  0.1619  2.3628
 9634TIP3    H250318   0.704   4.473   0.513 -0.5602  0.5348  0.1265
 9635TIP3   OH250319   6.186   3.992  11.927 -0.2525  0.0833 -0.1794
 9635TIP3    H150320   6.092   4.010  11.932  0.0985  1.6212  1.5053
 9635TIP3    H250321   6.227   4.066  11.973  1.7366 -0.9884 -0.1661
 9636TIP3   OH250322   6.678   1.187   1.441 -0.2532 -0.3074  0.0249
 9636TIP3    H150323   6.725   1.251   1.494  1.2131 -1.1917 -0.1829
 9636TIP3    H250324   6.643   1.237   1.367  0.2512  0.3890  0.2617
 9637TIP3   OH250325   5.328   6.106  13.678  0.1676  0.4462 -0.0070
 9637TIP3    H150326   5.281   6.180  13.639  0.6249  1.0010  0.4786
 9637TIP3    H250327   5.260   6.055  13.723  0.1004  1.5906  1.2348
 9638TIP3   OH250328   6.578   3.879  14.614 -0.3607  0.0017 -0.0409
 9638TIP3    H150329   6.539   3.918  14.536 -1.7134 -0.3818  0.4356
 9638TIP3    H250330   6.575   3.785  14.598  0.8146 -0.0257 -0.1936
 9639TIP3   OH250331   2.134   5.250   4.699 -0.5441  0.3886 -0.3675
 9639TIP3    H150332   2.064   5.312   4.719 -1.5321 -0.4875 -1.0509
 9639TIP3    H250333   2.134   5.244   4.604 -0.5732 -0.7735 -0.3071
 9640TIP3   OH250334   4.199   3.589   3.140 -0.3473  0.5151  0.2690
 9640TIP3    H150335   4.266   3.647   3.105 -0.8194  0.0520 -1.4291
 9640TIP3    H250336   4.191   3.614   3.232  1.0626  1.5960  0.1065
 9641TIP3   OH250337   4.269   2.219  13.554  0.1258  0.0092 -0.3151
 9641TIP3    H150338   4.180   2.188  13.542  0.7161 -0.7114 -3.3826
 9641TIP3    H250339   4.315   2.191  13.475  3.2803 -0.3031  1.5147
 9642TIP3   OH250340   3.088   5.972  12.536  0.0393 -0.4420  0.4922
 9642TIP3    H150341   3.046   6.025  12.468  0.7233  0.4549  0.7609
 9642TIP3    H250342   3.169   6.019  12.556 -0.2981 -0.5547  2.1396
 9643TIP3   OH250343   1.257   4.142   4.956 -0.2614  0.5974  0.7458
 9643TIP3    H150344   1.195   4.070   4.940  0.2690  0.4096 -0.5405
 9643TIP3    H250345   1.233   4.175   5.043  0.4737 -2.1580  2.0947
 9644TIP3   OH250346   2.916   2.961   1.851 -0.1868  0.4347  0.4480
 9644TIP3    H150347   2.906   2.893   1.918  0.2928  0.3671  0.4527
 9644TIP3    H250348   2.972   3.027   1.892 -1.9284  1.5961  1.0138
 9645TIP3   OH250349   5.320   2.979  13.861 -0.2951 -0.0345 -0.2276
 9645TIP3    H150350   5.293   2.897  13.820  1.4475 -0.4663 -0.5425
 9645TIP3    H250351   5.310   3.045  13.793  2.4663 -0.7292 -1.3583
 9646TIP3   OH250352   3.871   4.119  13.059  0.0678  0.0584  0.2444
 9646TIP3    H150353   3.873   4.097  13.152  0.9928 -3.1691 -0.4619
 9646TIP3    H250354   3.963   4.132  13.036  0.1716 -2.4058 -0.8810
 9647TIP3   OH250355   0.887   6.606  17.181 -0.4909  0.0532 -0.1732
 9647TIP3    H150356   0.948   6.535  17.204  1.0426  0.1388 -3.7051
 9647TIP3    H250357   0.936   6.686  17.199 -1.0710  0.1935  0.8143
 9648TIP3   OH250358   2.184   6.302  15.457  0.1051  0.2337 -0.2117
 9648TIP3    H150359   2.199   6.389  15.420  1.8361 -0.6895 -1.7828
 9648TIP3    H250360   2.098   6.276  15.422 -0.5485  1.4118  0.5025
 9649TIP3   OH250361   0.664   0.593  12.613 -0.1570 -0.2398  0.6460
 9649TIP3    H150362   0.583   0.544  12.604 -0.0381 -0.7766  2.3189
 9649TIP3    H250363   0.729   0.528  12.640  0.9091  0.1257 -1.0170
 9650TIP3   OH250364   1.246   0.147   3.346  0.1181  0.3328 -0.5094
 9650TIP3    H150365   1.341   0.132   3.351  0.1911  0.8445 -0.2753
 9650TIP3    H250366   1.226   0.201   3.423 -0.9683 -2.6699  1.3915
 9651TIP3   OH250367   5.243   3.167  11.639 -0.1264  0.4120  0.2189
 9651TIP3    H150368   5.157   3.141  11.671  0.1106 -1.1783 -0.4268
 9651TIP3    H250369   5.302   3.154  11.713 -0.3222  0.9421  0.4761
 9652TIP3   OH250370   1.181   2.574   1.000 -0.0183 -0.2950  0.9003
 9652TIP3    H150371   1.196   2.564   0.906  0.0754 -0.0681  0.8914
 9652TIP3    H250372   1.135   2.493   1.025 -1.7103  0.4398  0.2944
 9653TIP3   OH250373   2.990   3.606   0.083 -0.5134 -0.4364  0.1776
 9653TIP3    H150374   3.056   3.630   0.148 -0.7812 -2.1611  1.1098
 9653TIP3    H250375   2.914   3.661   0.103  0.1318  0.5272 -0.0046
 9654TIP3   OH250376   1.077   2.497   3.311 -0.0015  0.1687  0.7245
 9654TIP3    H150377   1.078   2.582   3.356 -0.0063 -0.4539  1.9320
 9654TIP3    H250378   0.986   2.469   3.316  0.3703 -0.8654  2.2253
 9655TIP3   OH250379   6.098   3.666  15.776  0.3183  0.3196  0.1466
 9655TIP3    H150380   6.084   3.653  15.682 -0.2417  0.1628  0.2523
 9655TIP3    H250381   6.159   3.740  15.780 -0.4330  0.9695 -0.3142
 9656TIP3   OH250382   4.626   3.137  14.918  0.0915 -0.0267  0.0331
 9656TIP3    H150383   4.563   3.080  14.874  0.8030 -1.4406  0.8244
 9656TIP3    H250384   4.586   3.224  14.914 -1.1423 -0.6200 -0.9191
 9657TIP3   OH250385   4.602   4.469   2.454  0.5841  0.6019  0.1723
 9657TIP3    H150386   4.549   4.434   2.382 -0.0285 -0.9898  1.3641
 9657TIP3    H250387   4.690   4.437   2.437  0.3261 -0.2628  0.4245
 9658TIP3   OH250388   0.542   3.196  10.351 -0.7990  0.6395 -0.3801
 9658TIP3    H150389   0.525   3.267  10.414 -0.2948  1.2254 -0.8941
 9658TIP3    H250390   0.513   3.232  10.267 -0.2333  0.3567 -0.6951
 9659TIP3   OH250391   3.147   0.997  17.198 -0.1686 -0.8358 -0.0042
 9659TIP3    H150392   3.085   1.037  17.259  1.6517  0.6602  0.9338
 9659TIP3    H250393   3.228   1.046  17.211  0.4654 -0.9610 -3.1477
 9660TIP3   OH250394   4.862   6.547   4.970  0.1513  0.3755  0.2694
 9660TIP3    H150395   4.907   6.470   5.004  0.4047  0.0794 -0.7007
 9660TIP3    H250396   4.916   6.621   4.998  2.3730 -0.0971 -2.5022
 9661TIP3   OH250397   3.860   6.136  12.349  0.1898 -0.1870  0.4216
 9661TIP3    H150398   3.908   6.218  12.362 -1.5698  1.1304 -1.0061
 9661TIP3    H250399   3.889   6.105  12.263  1.0864 -1.2532  1.0956
 9662TIP3   OH250400   2.143   3.377   5.835 -0.3991  0.4561  0.0293
 9662TIP3    H150401   2.092   3.418   5.764 -0.6941 -0.3858 -0.2485
 9662TIP3    H250402   2.085   3.310   5.870  0.8661 -1.1972 -0.9491
 9663TIP3   OH250403   3.487   1.160  15.281  0.1661  0.0671  0.0082
 9663TIP3    H150404   3.580   1.137  15.283  0.3773  0.9673  1.4531
 9663TIP3    H250405   3.485   1.250  15.246 -0.1773 -0.0049 -0.1604
 9664TIP3   OH250406   5.133   4.873   3.160 -0.3599 -0.1468 -0.6280
 9664TIP3    H150407   5.136   4.924   3.079  1.1737 -0.4864 -0.8031
 9664TIP3    H250408   5.126   4.938   3.230 -0.3032  0.2076 -0.9543
 9665TIP3   OH250409   1.506   1.080   0.992 -0.3024 -0.0224 -0.2374
 9665TIP3    H150410   1.592   1.044   1.011  0.6602  1.8904 -0.7770
 9665TIP3    H250411   1.473   1.027   0.920  1.1176  0.2048 -1.0791
 9666TIP3   OH250412   2.961   3.281  11.893 -0.5957  0.0705  0.1537
 9666TIP3    H150413   3.005   3.366  11.880 -1.4906  0.6976  1.1136
 9666TIP3    H250414   2.898   3.276  11.821 -0.1986 -0.0154 -0.1928
 9667TIP3   OH250415   0.838   1.527  16.926  0.4746 -0.2126 -0.8260
 9667TIP3    H150416   0.752   1.490  16.910  0.6694 -0.7765 -0.5720
 9667TIP3    H250417   0.896   1.482  16.864  0.8975 -1.0731  0.1861
 9668TIP3   OH250418   1.051   2.725  16.459  0.5343  0.3818  0.5867
 9668TIP3    H150419   1.010   2.646  16.423 -0.9826  0.9531  1.0155
 9668TIP3    H250420   1.131   2.693  16.500  0.9378 -0.6520 -0.9430
 9669TIP3   OH250421   5.416   1.535  15.361  0.2111 -0.2461  0.2552
 9669TIP3    H150422   5.337   1.491  15.330 -0.9482  2.2595 -0.4794
 9669TIP3    H250423   5.383   1.616  15.401  2.4481  1.0768 -0.5334
 9670TIP3   OH250424   1.733   1.120   3.493 -0.3023 -0.3235  0.8595
 9670TIP3    H150425   1.666   1.095   3.557  0.5054 -1.7303  1.1607
 9670TIP3    H250426   1.739   1.045   3.434 -0.0742  0.4216 -0.0653
 9671TIP3   OH250427   3.539   0.143   3.008 -1.0260  0.5521 -0.4410
 9671TIP3    H150428   3.606   0.163   2.943  0.3073 -0.2877  0.6418
 9671TIP3    H250429   3.456   0.146   2.960 -0.3563  2.9048 -1.5235
 9672TIP3   OH250430   0.621   4.955   4.966 -0.1018  0.3594  0.2272
 9672TIP3    H150431   0.562   5.025   4.994  0.1186  1.8412 -2.8733
 9672TIP3    H250432   0.709   4.993   4.971  0.0883  0.0477 -0.6434
 9673TIP3   OH250433   5.068   1.066   2.320  0.3254  0.2725 -0.4596
 9673TIP3    H150434   5.007   1.016   2.374  0.0361  0.5731 -0.5062
 9673TIP3    H250435   5.092   1.007   2.249  0.2190  0.0953 -0.3486
 9674TIP3   OH250436   4.913   4.720   5.443  0.0032  0.2055 -0.1157
 9674TIP3    H150437   4.981   4.660   5.413 -1.0336 -0.8386 -0.4139
 9674TIP3    H250438   4.840   4.705   5.383 -2.0987 -1.8575  2.7972
 9675TIP3   OH250439   2.304   5.586  15.757 -0.4844  0.0844 -0.5317
 9675TIP3    H150440   2.238   5.567  15.823  0.1817 -0.7813 -0.1118
 9675TIP3    H250441   2.315   5.681  15.761 -1.4158  0.1825 -0.3299
 9676TIP3   OH250442   6.446   1.944  15.889 -0.5229 -0.3007  0.0475
 9676TIP3    H150443   6.486   1.885  15.825 -1.5396  1.3771 -2.2057
 9676TIP3    H250444   6.375   1.988  15.841 -1.5920  0.7040  2.4461
 9677TIP3   OH250445   1.409   3.142   0.487  0.1822 -0.5172  0.6682
 9677TIP3    H150446   1.488   3.183   0.451  0.5859 -1.3181  0.6290
 9677TIP3    H250447   1.369   3.210   0.541 -1.2802  1.3026 -2.5054
 9678TIP3   OH250448   5.445   5.014  11.925 -0.0176  0.4869  0.1898
 9678TIP3    H150449   5.489   5.029  12.009 -1.0723 -0.3408  0.9082
 9678TIP3    H250450   5.359   4.979  11.949  0.1563 -1.0201 -1.2704
 9679TIP3   OH250451   0.340   6.741   2.494 -0.2284 -0.2619 -0.2041
 9679TIP3    H150452   0.289   6.815   2.528  1.6164  0.8341  0.2807
 9679TIP3    H250453   0.308   6.665   2.541 -0.0096  0.7255  1.5817
 9680TIP3   OH250454   2.038   1.182  16.869 -0.0705 -0.4172  0.2750
 9680TIP3    H150455   2.100   1.238  16.917  1.0545 -2.2814  1.0436
 9680TIP3    H250456   1.955   1.194  16.915 -0.0874  1.4046 -0.2082
 9681TIP3   OH250457   3.266   2.476   2.329  0.0697  0.5751 -0.5571
 9681TIP3    H150458   3.332   2.511   2.269 -0.7523  0.7700 -1.3695
 9681TIP3    H250459   3.279   2.381   2.325  1.5422  0.7085  0.7603
 9682TIP3   OH250460   3.456   2.386   1.831  0.2875 -0.3827 -0.2805
 9682TIP3    H150461   3.417   2.305   1.865  0.6149  0.1673  1.4481
 9682TIP3    H250462   3.386   2.451   1.839 -0.1891 -0.6021 -2.2614
 9683TIP3   OH250463   6.252   0.381   0.995  0.4704  0.5803  0.4063
 9683TIP3    H150464   6.198   0.456   0.972 -1.3952 -0.1163  2.3483
 9683TIP3    H250465   6.297   0.406   1.076  0.5627 -0.0470  0.5591
 9684TIP3   OH250466   3.883   6.259  15.102 -0.2841 -0.1333  0.1937
 9684TIP3    H150467   3.854   6.191  15.042  0.6400 -1.1057  0.8277
 9684TIP3    H250468   3.926   6.324  15.046 -2.1950  0.5321 -0.5470
 9685TIP3   OH250469   1.130   2.809  16.073  0.1879  0.1144  0.5530
 9685TIP3    H150470   1.214   2.785  16.112 -0.6337 -1.2642  1.5261
 9685TIP3    H250471   1.073   2.825  16.148 -0.7969 -0.3288 -0.0914
 9686TIP3   OH250472   2.252   5.000  13.511  0.0983  0.0415  0.0222
 9686TIP3    H150473   2.191   5.021  13.582 -0.0449  0.1225 -0.1240
 9686TIP3    H250474   2.212   4.925  13.466  1.0112 -1.0742  1.0385
 9687TIP3   OH250475   6.735   1.844  11.507  0.0212 -0.2239 -0.1922
 9687TIP3    H150476   6.653   1.795  11.496  0.8476 -1.7205  0.1300
 9687TIP3    H250477   6.726   1.888  11.591 -0.5551 -0.1662 -0.2785
 9688TIP3   OH250478   2.567   2.442  13.616  0.1287 -0.6049 -0.4486
 9688TIP3    H150479   2.487   2.392  13.634 -0.5466  0.7658  0.4191
 9688TIP3    H250480   2.565   2.456  13.521 -1.7536  1.1829 -0.1877
 9689TIP3   OH250481   4.695   0.486  12.219  0.1513  0.5781 -0.0952
 9689TIP3    H150482   4.727   0.515  12.134 -1.2887  1.5862 -0.3266
 9689TIP3    H250483   4.658   0.565  12.259  0.6952  0.0915  1.4150
 9690TIP3   OH250484   4.315   1.313  11.539 -0.0838  0.2744 -0.6958
 9690TIP3    H150485   4.368   1.246  11.496  2.0516  0.8536  0.9776
 9690TIP3    H250486   4.227   1.274  11.543  0.0069 -0.4161 -4.1128
 9691TIP3   OH250487   2.732   3.088   2.324 -0.7831  0.2852  0.5042
 9691TIP3    H150488   2.675   3.088   2.400  1.2118  0.2146  2.0348
 9691TIP3    H250489   2.719   3.002   2.284  2.2158 -1.9017  3.9485
 9692TIP3   OH250490   0.466   6.446  10.438  0.2359 -0.0777 -0.0319
 9692TIP3    H150491   0.486   6.515  10.374  0.7226 -0.4734 -0.3127
 9692TIP3    H250492   0.371   6.451  10.449  0.1010 -0.2031 -1.0230
 9693TIP3   OH250493   5.482   6.546   3.589 -0.3397  0.0458  0.1693
 9693TIP3    H150494   5.554   6.603   3.615  0.5008 -1.3946  1.0870
 9693TIP3    H250495   5.493   6.468   3.643 -2.2759 -0.4133 -0.0761
 9694TIP3   OH250496   6.110   6.693   3.869 -0.5331 -0.7380 -0.0092
 9694TIP3    H150497   6.180   6.683   3.934 -1.1245 -1.4432  0.5228
 9694TIP3    H250498   6.067   6.608   3.866 -1.2371 -0.3700 -0.4931
 9695TIP3   OH250499   6.433   6.484   4.469  0.4592 -0.3187  0.6559
 9695TIP3    H150500   6.443   6.416   4.536 -0.9490 -0.3509  0.8487
 9695TIP3    H250501   6.355   6.533   4.496  0.4181  0.2475 -0.4612
 9696TIP3   OH250502   6.162   0.289  16.117 -0.1063  0.6077  0.3028
 9696TIP3    H150503   6.158   0.233  16.195  0.4700 -0.2515 -0.2639
 9696TIP3    H250504   6.101   0.360  16.135 -1.3610 -0.5575  0.7771
 9697TIP3   OH250505   6.564   6.020  16.995 -0.6266 -0.5186  0.2153
 9697TIP3    H150506   6.570   6.018  16.900 -2.6050 -0.0804  0.0665
 9697TIP3    H250507   6.599   5.935  17.022 -0.3327 -0.7727 -0.9254
 9698TIP3   OH250508   3.568   4.922  14.295 -0.0318 -0.3736 -0.4632
 9698TIP3    H150509   3.662   4.938  14.303  0.3280 -0.9548 -3.1770
 9698TIP3    H250510   3.529   4.977  14.363  2.2720 -0.4675  1.0161
 9699TIP3   OH250511   6.231   2.129  16.795 -0.0340 -0.0943 -0.3911
 9699TIP3    H150512   6.313   2.178  16.797 -0.2129  0.1812  0.7182
 9699TIP3    H250513   6.227   2.086  16.881 -1.5600  0.7463 -0.0197
 9700TIP3   OH250514   2.893   1.074   4.185  0.3923  0.2573  0.1041
 9700TIP3    H150515   2.847   1.067   4.269 -0.8947  0.5253 -0.5680
 9700TIP3    H250516   2.858   1.154   4.146 -4.1585 -3.3127 -3.7246
 9701TIP3   OH250517   5.965   4.254   5.468 -0.5718  0.5758 -0.2263
 9701TIP3    H150518   5.926   4.173   5.501 -0.1356  0.5807  0.3138
 9701TIP3    H250519   5.928   4.323   5.524  0.7303  0.5043  0.7540
 9702TIP3   OH250520   6.709   1.737   2.276  0.5435 -0.0131 -0.2639
 9702TIP3    H150521   6.731   1.825   2.307 -1.4332  0.7725 -1.0135
 9702TIP3    H250522   6.730   1.738   2.183  0.8372 -0.4401 -0.2016
 9703TIP3   OH250523   5.330   0.930  13.994 -0.2643 -0.5662 -0.1440
 9703TIP3    H150524   5.342   0.971  13.908 -0.1642  0.2119  0.2398
 9703TIP3    H250525   5.380   0.985  14.054 -1.2215 -0.4863  0.5852
 9704TIP3   OH250526   3.973   0.132   4.647 -0.0670 -0.8575  0.5717
 9704TIP3    H150527   4.010   0.119   4.734 -2.1144 -1.0484  1.4577
 9704TIP3    H250528   3.914   0.057   4.635 -0.7508 -0.1708 -0.4486
 9705TIP3   OH250529   5.065   2.788  14.131  0.0251  0.3794  0.4569
 9705TIP3    H150530   5.148   2.781  14.178 -0.1914  1.9349  1.1232
 9705TIP3    H250531   5.032   2.698  14.126  1.5003 -0.1811  0.6303
 9706TIP3   OH250532   5.922   6.722   0.136 -0.0002 -0.2749  0.1098
 9706TIP3    H150533   5.853   6.756   0.192  0.2239  1.5208 -0.6787
 9706TIP3    H250534   5.889   6.637   0.106 -0.1976 -1.1913  2.7561
 9707TIP3   OH250535   1.360   5.132  15.402 -0.1535 -0.0135 -0.2311
 9707TIP3    H150536   1.363   5.220  15.366 -2.0290 -0.3260 -1.2027
 9707TIP3    H250537   1.430   5.085  15.356  1.6458  1.2239  1.1297
 9708TIP3   OH250538   6.422   3.925   4.491  0.2200 -0.1524  0.0686
 9708TIP3    H150539   6.355   3.990   4.473  0.4496 -0.3107 -1.3520
 9708TIP3    H250540   6.418   3.865   4.418  1.3235 -0.6515  0.4114
 9709TIP3   OH250541   0.491   6.064  14.639 -0.6086  0.1934 -0.3397
 9709TIP3    H150542   0.551   6.112  14.581 -1.1462 -0.0031 -1.0592
 9709TIP3    H250543   0.542   5.989  14.668  1.2579  2.6506  3.0661
 9710TIP3   OH250544   1.721   4.646   5.012  0.1254 -0.6723 -0.0066
 9710TIP3    H150545   1.765   4.562   5.006  0.4977 -0.7409  3.1537
 9710TIP3    H250546   1.630   4.624   5.030 -0.1587 -0.4237 -1.1169
 9711TIP3   OH250547   5.442   1.040  16.177  0.5265 -0.1034 -0.1560
 9711TIP3    H150548   5.458   1.132  16.200 -0.0139 -0.2753  0.9361
 9711TIP3    H250549   5.349   1.038  16.152  1.0167  0.0126 -2.0567
 9712TIP3   OH250550   1.632   2.391  14.180  0.6686 -0.0506  0.6501
 9712TIP3    H150551   1.667   2.312  14.222 -1.2254 -0.8654  0.7145
 9712TIP3    H250552   1.582   2.435  14.248  1.5218  1.1048  0.5483
 9713TIP3   OH250553   3.690   1.528  13.802 -0.0390 -0.1734 -0.1760
 9713TIP3    H150554   3.713   1.610  13.845 -0.1366  0.1206 -0.6842
 9713TIP3    H250555   3.624   1.489  13.859  0.0521  0.0710  0.0991
 9714TIP3   OH250556   4.710   1.238   5.043  0.0802  0.2303 -0.0629
 9714TIP3    H150557   4.802   1.224   5.023  0.1271  0.8533 -0.2882
 9714TIP3    H250558   4.702   1.332   5.059 -0.3434  0.0366  0.8730
 9715TIP3   OH250559   2.533   0.039   3.791 -0.1735 -0.1567 -0.3282
 9715TIP3    H150560   2.567   0.129   3.794  2.1811 -0.9589 -1.7508
 9715TIP3    H250561   2.491   0.027   3.875  1.8771  1.3898  0.9717
 9716TIP3   OH250562   2.607   0.372   5.582 -0.1031 -0.0635  0.2743
 9716TIP3    H150563   2.672   0.430   5.541 -0.9528 -0.6968 -1.9905
 9716TIP3    H250564   2.529   0.427   5.592 -0.3526 -0.3118 -0.2859
 9717TIP3   OH250565   2.977   0.497   1.736 -0.0514  0.3869  0.0579
 9717TIP3    H150566   2.974   0.411   1.696 -1.5199  0.7936 -0.7302
 9717TIP3    H250567   2.968   0.481   1.830  1.5850 -0.4419  0.0831
 9718TIP3   OH250568   0.570   2.350  11.981  0.1987 -0.2328 -0.3235
 9718TIP3    H150569   0.525   2.277  12.024  1.7176 -0.7580  0.4089
 9718TIP3    H250570   0.499   2.401  11.942 -1.0621 -0.9022  1.0048
 9719TIP3   OH250571   6.449   0.420   1.998  0.6346  0.3244 -0.1353
 9719TIP3    H150572   6.525   0.472   2.026  0.9344  0.8908 -1.8844
 9719TIP3    H250573   6.483   0.366   1.927 -0.4977  0.2506 -0.6221
 9720TIP3   OH250574   0.203   0.838   1.349 -0.1268  0.1905  0.4074
 9720TIP3    H150575   0.171   0.823   1.260  0.7232 -0.3694  0.1986
 9720TIP3    H250576   0.145   0.786   1.404 -0.4156  0.2348  0.1479
 9721TIP3   OH250577   5.898   1.387  10.920  0.2043 -0.3183  0.3614
 9721TIP3    H150578   5.970   1.434  10.964  0.5563 -0.6971  0.1957
 9721TIP3    H250579   5.827   1.451  10.916  0.5772  0.1053  0.4147
 9722TIP3   OH250580   6.308   5.440   5.935  0.1477 -0.0403  0.3152
 9722TIP3    H150581   6.382   5.403   5.984  0.8863 -0.7155 -1.2741
 9722TIP3    H250582   6.348   5.506   5.878 -0.3064 -1.1594 -1.3382
 9723TIP3   OH250583   6.121   2.407  14.064 -0.0089 -0.0378  0.2164
 9723TIP3    H150584   6.150   2.437  14.150 -0.6911  0.3561  0.3122
 9723TIP3    H250585   6.059   2.337  14.082 -0.2103  0.0961  0.0434
 9724TIP3   OH250586   3.741   2.636  14.422 -0.2062 -0.1177 -0.6841
 9724TIP3    H150587   3.659   2.631  14.371 -1.1348  1.3485  0.6012
 9724TIP3    H250588   3.725   2.708  14.484  1.8223 -0.2719  0.0263
 9725TIP3   OH250589   2.735   1.023  15.353  0.1862 -0.2142 -0.3628
 9725TIP3    H150590   2.729   0.974  15.436 -0.8279  1.1746  0.3913
 9725TIP3    H250591   2.677   0.976  15.294  0.4796 -0.8833 -0.1342
 9726TIP3   OH250592   1.812   3.214   4.417 -0.1941 -0.3227 -0.1678
 9726TIP3    H150593   1.876   3.143   4.417 -0.5134 -0.6193  1.1478
 9726TIP3    H250594   1.864   3.294   4.416  0.1721 -0.5479 -1.8460
 9727TIP3   OH250595   3.033   2.596   3.186 -0.0467  0.2656 -0.2304
 9727TIP3    H150596   2.957   2.538   3.195 -0.8333  1.1379 -1.2127
 9727TIP3    H250597   3.000   2.682   3.209  0.5142  0.7435 -1.1907
 9728TIP3   OH250598   0.839   5.812   5.195 -0.2499  0.1723  0.0336
 9728TIP3    H150599   0.874   5.851   5.275  0.5317  3.0864 -1.6592
 9728TIP3    H250600   0.744   5.823   5.202 -0.3388 -1.2311  1.3378
 9729TIP3   OH250601   3.956   1.388  11.201  0.0858 -0.1778 -0.1107
 9729TIP3    H150602   3.913   1.321  11.255 -0.9453 -1.0568 -1.9736
 9729TIP3    H250603   4.005   1.339  11.136  0.6101  0.8757 -0.5243
 9730TIP3   OH250604   2.829   2.061  10.538  0.1583 -0.4238  0.1789
 9730TIP3    H150605   2.869   1.989  10.489  1.8275  0.4615  0.2034
 9730TIP3    H250606   2.844   2.040  10.630  0.8165  0.0507  0.1803
 9731TIP3   OH250607   0.637   6.244  16.776  0.2496  0.5419 -0.0756
 9731TIP3    H150608   0.574   6.233  16.847 -0.8758 -0.1540 -1.1633
 9731TIP3    H250609   0.694   6.167  16.783 -1.2738 -0.7144 -1.3268
 9732TIP3   OH250610   0.219   3.924  17.098  0.3049 -0.1673 -0.0339
 9732TIP3    H150611   0.204   4.003  17.046 -0.4888  0.5533  1.2648
 9732TIP3    H250612   0.311   3.930  17.124 -0.1679  1.2162  1.4576
 9733TIP3   OH250613   2.596   2.223  13.888  0.4780  0.1000  0.7811
 9733TIP3    H150614   2.533   2.295  13.876  2.3626  1.3071 -2.8457
 9733TIP3    H250615   2.662   2.258  13.947  2.2962  2.1256 -2.2938
 9734TIP3   OH250616   3.380   0.033  14.022 -0.2422  0.1278  0.0472
 9734TIP3    H150617   3.323  -0.038  13.996 -1.2988  1.3546 -1.0224
 9734TIP3    H250618   3.331   0.080  14.090  0.2866  0.0716  0.4731
 9735TIP3   OH250619   1.479   1.125  14.040  0.4747 -1.0541 -0.3184
 9735TIP3    H150620   1.429   1.103  13.961  0.6140 -0.8132 -0.4757
 9735TIP3    H250621   1.484   1.220  14.039 -0.7801 -0.9605  0.7657
 9736TIP3   OH250622   2.980   4.577   6.613  0.1816  0.0244  0.1781
 9736TIP3    H150623   3.000   4.522   6.688  1.4527 -0.1065 -0.2536
 9736TIP3    H250624   3.065   4.610   6.583  0.0127 -2.2362 -2.9907
 9737TIP3   OH250625   5.421   3.221  14.092  0.5611  0.0193 -0.5523
 9737TIP3    H150626   5.437   3.127  14.086  0.1759 -0.0648 -0.2738
 9737TIP3    H250627   5.346   3.237  14.034 -0.5964 -0.1567  0.8638
 9738TIP3   OH250628   1.033   1.855   2.849 -0.8601 -0.1114  0.0198
 9738TIP3    H150629   0.971   1.863   2.777 -0.7223  0.3254 -0.0541
 9738TIP3    H250630   1.107   1.807   2.811 -0.3789  0.9389 -0.4084
 9739TIP3   OH250631   0.427   3.296  15.346  0.0293 -0.1770  0.3171
 9739TIP3    H150632   0.514   3.331  15.365  0.6697 -1.1153 -0.8214
 9739TIP3    H250633   0.413   3.230  15.414  0.4806 -0.4701  0.1289
 9740TIP3   OH250634   3.460   3.185   5.861 -0.4159  0.6684 -0.6209
 9740TIP3    H150635   3.480   3.208   5.952  0.4638  1.8026 -1.0887
 9740TIP3    H250636   3.399   3.253   5.832 -2.9070 -1.2423 -0.0507
 9741TIP3   OH250637   5.122   0.927  15.591  0.1040 -0.9956 -0.4405
 9741TIP3    H150638   5.048   0.974  15.629 -0.4906 -2.3375  0.0808
 9741TIP3    H250639   5.161   0.989  15.529 -1.4704 -0.3182 -0.7561
 9742TIP3   OH250640   0.525   5.585   0.908  0.4623 -0.1382 -0.3313
 9742TIP3    H150641   0.431   5.575   0.920  0.5646 -0.9413 -0.1591
 9742TIP3    H250642   0.564   5.523   0.969  1.1063  0.2703 -0.3232
 9743TIP3   OH250643   4.043   0.171   3.752  0.9034  0.2918  0.4689
 9743TIP3    H150644   4.100   0.241   3.718  1.8926 -0.4306  0.6105
 9743TIP3    H250645   4.054   0.099   3.690 -0.2128  0.3031  0.2551
 9744TIP3   OH250646   5.606   3.003  13.136  0.3563  0.0805 -0.3481
 9744TIP3    H150647   5.669   2.979  13.205  0.3928  1.5142  0.1287
 9744TIP3    H250648   5.656   3.061  13.078 -1.0389  2.7345  1.0486
 9745TIP3   OH250649   6.780   6.712  16.215  0.2401  0.2509 -0.1517
 9745TIP3    H150650   6.829   6.772  16.272  1.3721 -1.3634  0.6100
 9745TIP3    H250651   6.785   6.627  16.260  0.1846 -0.7970 -2.1041
 9746TIP3   OH250652   2.770   5.809   3.309 -0.4669  0.4092  0.4548
 9746TIP3    H150653   2.852   5.857   3.323 -1.2520  1.8048  0.3400
 9746TIP3    H250654   2.737   5.843   3.226 -1.7688  0.7153  1.0961
 9747TIP3   OH250655   3.118   3.512  11.370 -0.2978 -0.0417  0.6855
 9747TIP3    H150656   3.149   3.573  11.302 -1.5817  0.8144  0.8476
 9747TIP3    H250657   3.123   3.562  11.451 -0.5087 -0.4532  0.9536
 9748TIP3   OH250658   2.542   1.859   6.704  0.3804  0.9488 -0.1622
 9748TIP3    H150659   2.576   1.932   6.755  0.3887  0.5938  0.3352
 9748TIP3    H250660   2.575   1.781   6.748  0.4078  0.6456 -0.7199
 9749TIP3   OH250661   4.075   3.956   1.923 -0.2776 -0.3168 -0.9031
 9749TIP3    H150662   4.102   4.010   1.997 -0.5931 -1.8644  0.3584
 9749TIP3    H250663   4.127   3.989   1.849 -1.3861  2.5466 -0.4832
 9750TIP3   OH250664   0.721   1.231  12.101  0.0669 -0.4519 -0.0843
 9750TIP3    H150665   0.640   1.273  12.129  0.0463 -0.4241 -0.1867
 9750TIP3    H250666   0.695   1.172  12.030 -0.3811 -2.7710  1.9286
 9751TIP3   OH250667   3.907   4.884  13.864 -0.0612  0.4070  0.3482
 9751TIP3    H150668   3.995   4.873  13.826 -0.5000  0.8498 -0.8155
 9751TIP3    H250669   3.916   4.957  13.925  0.1444  1.1143 -0.5232
 9752TIP3   OH250670   2.781   1.411   4.942 -0.4792  0.3503 -0.0425
 9752TIP3    H150671   2.691   1.439   4.961 -0.8517 -1.2711  0.6758
 9752TIP3    H250672   2.835   1.485   4.971 -1.5166  0.9261  0.4730
 9753TIP3   OH250673   6.080   0.035  11.415  0.3213  0.2812 -0.6336
 9753TIP3    H150674   6.052  -0.005  11.332 -0.9785  1.4939 -0.7934
 9753TIP3    H250675   6.025  -0.007  11.481 -0.5229  1.2534 -0.7128
 9754TIP3   OH250676   5.006   5.935  13.258  0.3951 -0.1833 -0.0284
 9754TIP3    H150677   5.044   5.850  13.234  0.2467 -0.0207 -0.8567
 9754TIP3    H250678   5.081   5.994  13.266  0.3553  0.0540 -1.3173
 9755TIP3   OH250679   3.249   5.127  17.028  0.4182  0.3799  0.4319
 9755TIP3    H150680   3.266   5.218  17.004 -1.4306  0.5262 -0.4277
 9755TIP3    H250681   3.191   5.133  17.104 -0.2206 -0.0613 -0.0128
 9756TIP3   OH250682   2.660   6.232   5.846  0.4775  0.0723 -0.1049
 9756TIP3    H150683   2.566   6.215   5.847  0.0999  2.0061 -0.9849
 9756TIP3    H250684   2.670   6.315   5.800  2.6826 -0.4246 -0.6193
 9757TIP3   OH250685   5.866   1.531   4.327 -0.2436 -0.1936 -0.0771
 9757TIP3    H150686   5.887   1.450   4.374  0.2190 -0.4961 -0.8091
 9757TIP3    H250687   5.771   1.541   4.340 -0.1904 -0.4752  0.5995
 9758TIP3   OH250688   6.780   5.819   5.111  0.1596  0.2499  0.6299
 9758TIP3    H150689   6.875   5.807   5.105  0.1095  0.1823 -0.1271
 9758TIP3    H250690   6.743   5.744   5.065 -0.1991  1.6345 -1.4599
 9759TIP3   OH250691   3.475   3.393  13.111  0.4979 -0.1356  0.3064
 9759TIP3    H150692   3.500   3.327  13.176  1.0522 -0.6140 -0.3892
 9759TIP3    H250693   3.558   3.426  13.077  0.2122 -0.6015 -0.8683
 9760TIP3   OH250694   0.232   3.865  13.922 -0.0241 -0.1102  0.1380
 9760TIP3    H150695   0.260   3.955  13.933  0.7749 -0.4314  0.7337
 9760TIP3    H250696   0.243   3.825  14.008 -2.1142 -0.2977  0.3530
 9761TIP3   OH250697   4.025   4.513   1.889 -0.1617 -0.1721 -0.3051
 9761TIP3    H150698   4.074   4.518   1.806  0.4048  1.0579  0.0992
 9761TIP3    H250699   3.944   4.561   1.872 -0.4907 -0.7559 -0.4345
 9762TIP3   OH250700   1.121   3.480   2.936  0.3714 -0.1143  0.1657
 9762TIP3    H150701   1.049   3.417   2.927 -0.7945  0.9700  1.7790
 9762TIP3    H250702   1.146   3.475   3.028 -0.5239  2.6203  0.5934
 9763TIP3   OH250703   5.031   5.996  15.964 -0.2177 -0.0110 -0.3965
 9763TIP3    H150704   5.112   5.946  15.968 -0.4703 -0.4750 -0.9502
 9763TIP3    H250705   5.005   5.992  15.872 -0.2008  1.2058 -0.4731
 9764TIP3   OH250706   3.781   5.159  13.011 -0.0509  0.1838  0.9613
 9764TIP3    H150707   3.800   5.074  12.971 -0.6294  0.5741 -0.1598
 9764TIP3    H250708   3.784   5.142  13.106  0.6481 -0.8994  0.7578
 9765TIP3   OH250709   4.742   5.455   3.821 -0.1037 -0.5531  0.6588
 9765TIP3    H150710   4.825   5.498   3.844 -0.5283  2.0041 -2.2014
 9765TIP3    H250711   4.677   5.526   3.821 -1.8942 -2.1488  0.8849
 9766TIP3   OH250712   2.949   3.548  12.747  0.0203 -0.5132  0.4579
 9766TIP3    H150713   2.953   3.585  12.835 -3.0916 -0.0797  0.4896
 9766TIP3    H250714   2.912   3.618  12.693  0.1012 -1.4158 -0.7999
 9767TIP3   OH250715   5.925   1.908   3.646 -0.4859 -0.0788  0.4665
 9767TIP3    H150716   5.875   1.835   3.609 -0.6382  0.4977 -0.4849
 9767TIP3    H250717   6.005   1.867   3.680 -1.7711 -1.0637  2.3662
 9768TIP3   OH250718   3.094   2.775   5.156 -0.1755 -0.5657 -0.2156
 9768TIP3    H150719   3.029   2.715   5.119  1.2053 -1.6564 -0.9458
 9768TIP3    H250720   3.119   2.832   5.083  0.1910 -0.6058 -0.1252
 9769TIP3   OH250721   6.111   6.039  12.104  0.3525 -0.2568  0.2192
 9769TIP3    H150722   6.056   6.005  12.175 -0.2549  1.3116  0.5234
 9769TIP3    H250723   6.048   6.073  12.039  0.9233 -0.5850 -0.5089
 9770TIP3   OH250724   4.087   2.981   0.106 -0.7931  0.1676  0.7239
 9770TIP3    H150725   4.109   2.923   0.033 -0.5540 -0.0858  0.9951
 9770TIP3    H250726   4.101   3.069   0.072  3.0642 -0.0260  1.6368
 9771TIP3   OH250727   1.710   0.091   3.064 -0.2758 -0.2868 -0.1724
 9771TIP3    H150728   1.734  -0.000   3.050  0.5951  0.1258 -1.4897
 9771TIP3    H250729   1.650   0.089   3.139 -2.1585 -2.2316 -1.6452
 9772TIP3   OH250730   2.983   1.416   1.761 -0.1975  0.0319  0.3438
 9772TIP3    H150731   3.037   1.336   1.766  2.1906  1.5185 -0.8131
 9772TIP3    H250732   2.961   1.435   1.852  3.0494  0.5520  1.0748
 9773TIP3   OH250733   6.086   2.497  15.043  0.0745 -0.3967  0.2110
 9773TIP3    H150734   6.111   2.582  15.079  0.9992 -1.0588  1.1533
 9773TIP3    H250735   6.169   2.456  15.020 -0.4411 -0.4001 -1.7818
 9774TIP3   OH250736   3.355   2.063  13.369  0.4062  0.4524  0.2119
 9774TIP3    H150737   3.430   2.097  13.320  1.0758 -1.3516 -0.0542
 9774TIP3    H250738   3.322   2.138  13.418  2.3508  1.2910  0.2666
 9775TIP3   OH250739   0.820   3.224  13.258 -0.2001  0.5266 -0.0127
 9775TIP3    H150740   0.823   3.304  13.311 -0.5765  0.0950  0.6567
 9775TIP3    H250741   0.769   3.162  13.310  1.0162 -0.5167 -0.0401
 9776TIP3   OH250742   4.100   2.213   0.411  0.6317 -0.1190 -0.4158
 9776TIP3    H150743   4.024   2.271   0.410  1.1412  0.6434  1.8166
 9776TIP3    H250744   4.064   2.125   0.407 -0.4139  0.2125  1.3452
 9777TIP3   OH250745   3.646   2.566  11.574 -0.1729  0.0661  0.2103
 9777TIP3    H150746   3.624   2.514  11.652 -2.2639  0.3274 -0.1860
 9777TIP3    H250747   3.693   2.504  11.517  1.6230 -0.0517  1.7559
 9778TIP3   OH250748   4.149   5.110   1.173  0.0068 -0.1869 -0.8719
 9778TIP3    H150749   4.066   5.066   1.157 -0.7796  0.9793 -0.0499
 9778TIP3    H250750   4.164   5.163   1.094  0.4156 -1.0511 -1.3894
 9779TIP3   OH250751   3.401   1.012  14.678  0.0247  0.1530 -0.1610
 9779TIP3    H150752   3.386   0.966  14.760 -0.5351  2.3346  0.9938
 9779TIP3    H250753   3.366   0.953  14.611 -0.1529 -1.3378  1.2108
 9780TIP3   OH250754   1.902   3.498  12.237  0.1485 -0.6539 -0.7360
 9780TIP3    H150755   1.854   3.416  12.247 -0.5507 -0.2730 -0.9345
 9780TIP3    H250756   1.973   3.493  12.300 -0.5194 -0.9561 -0.0084
 9781TIP3   OH250757   1.054   3.021   3.498  0.2821  0.3150 -0.5363
 9781TIP3    H150758   1.142   2.987   3.480  0.1744  1.1368 -2.7681
 9781TIP3    H250759   1.049   3.103   3.448 -1.1908  1.1000  0.8591
 9782TIP3   OH250760   6.095   4.953  12.707  0.8607 -0.1695 -0.0869
 9782TIP3    H150761   6.076   4.943  12.800 -1.2097  1.5707 -0.2698
 9782TIP3    H250762   6.138   5.038  12.701  1.9097 -0.7270 -0.6236
 9783TIP3   OH250763   5.527   2.447   2.748 -0.5207 -0.5851  0.2249
 9783TIP3    H150764   5.591   2.458   2.678 -2.3668 -0.1286 -1.4182
 9783TIP3    H250765   5.519   2.534   2.786 -0.6927 -0.4933 -0.0230
 9784TIP3   OH250766   2.002   1.461  17.223  0.6117  0.1792 -0.8288
 9784TIP3    H150767   2.075   1.414  17.263  1.5891  0.7516 -1.8875
 9784TIP3    H250768   2.037   1.549  17.205 -1.0153  1.1529  0.6339
 9785TIP3   OH250769   4.164   2.560   4.161  0.3152 -0.0295 -0.1198
 9785TIP3    H150770   4.123   2.580   4.245 -1.4700  0.7433 -1.1376
 9785TIP3    H250771   4.158   2.641   4.111  1.6599 -0.3834 -0.8805
 9786TIP3   OH250772   2.416   1.502  12.775  0.0567 -0.7871 -0.6764
 9786TIP3    H150773   2.344   1.562  12.753  1.3396  0.6746 -0.9485
 9786TIP3    H250774   2.403   1.484  12.868  0.3259  0.8716 -0.2904
 9787TIP3   OH250775   1.237   4.280  12.996 -0.4399 -0.5124  0.3609
 9787TIP3    H150776   1.170   4.346  13.015  1.1889  1.2458  0.1688
 9787TIP3    H250777   1.311   4.304  13.052  0.9033 -0.9751 -1.1619
 9788TIP3   OH250778   1.836   1.095  13.942 -0.8215 -0.0204 -0.1189
 9788TIP3    H150779   1.864   1.063  13.856 -0.6500  0.4342 -0.2309
 9788TIP3    H250780   1.780   1.170  13.923 -0.0873  0.6183  0.1987
 9789TIP3   OH250781   0.225   2.990   6.003  0.3434 -0.0157  0.3803
 9789TIP3    H150782   0.180   3.072   5.982  0.0767  0.1390  1.5274
 9789TIP3    H250783   0.269   3.008   6.087 -0.4690 -1.3296  1.0929
 9790TIP3   OH250784   6.367   1.952   6.100 -0.3318 -0.6953 -0.4538
 9790TIP3    H150785   6.345   1.928   6.190  1.7483  0.2362  0.3340
 9790TIP3    H250786   6.337   1.878   6.047 -0.6610 -1.6990  1.1030
 9791TIP3   OH250787   3.286   2.074  11.019  0.0446  0.2485  0.1268
 9791TIP3    H150788   3.333   2.129  11.082 -0.3508  1.4725 -0.6198
 9791TIP3    H250789   3.270   2.132  10.944  0.1342 -1.0527 -0.9274
 9792TIP3   OH250790   5.911   4.968   2.049  0.0344 -0.0096  0.0556
 9792TIP3    H150791   5.852   4.970   2.125  1.3205 -0.2255  1.0715
 9792TIP3    H250792   5.853   4.980   1.974 -1.2166  0.5951  1.0906
 9793TIP3   OH250793   5.356   3.882   5.516  0.0552 -0.0391 -0.0995
 9793TIP3    H150794   5.283   3.845   5.466  1.3598 -1.8597 -0.7068
 9793TIP3    H250795   5.336   3.860   5.607 -1.8496  2.4571  0.1389
 9794TIP3   OH250796   4.312   3.260  12.600  0.2539 -0.3363 -0.2601
 9794TIP3    H150797   4.367   3.312  12.541 -0.1993 -0.4007 -0.7432
 9794TIP3    H250798   4.328   3.298  12.686  1.4040 -0.6500 -0.3273
 9795TIP3   OH250799   0.565   3.343  11.045 -0.3416 -0.0522  0.8064
 9795TIP3    H150800   0.474   3.373  11.036 -0.6609 -0.9093  1.1067
 9795TIP3    H250801   0.569   3.305  11.133  0.0373 -0.9210  0.4228
 9796TIP3   OH250802   6.262   0.036   4.986  0.2659  0.1373 -0.1197
 9796TIP3    H150803   6.245  -0.016   5.065  1.0763 -0.5172 -0.3608
 9796TIP3    H250804   6.255   0.127   5.014  0.5854 -0.0944  0.7207
 9797TIP3   OH250805   1.891   4.539  10.755 -0.1993  0.5850 -0.1825
 9797TIP3    H150806   1.909   4.579  10.840 -1.2095 -2.0003  1.3098
 9797TIP3    H250807   1.977   4.525  10.716  0.2588  2.0028  0.2946
 9798TIP3   OH250808   4.490   0.359   5.643  0.1135  0.0812  0.6980
 9798TIP3    H150809   4.495   0.370   5.738  1.1376  0.0274  0.6587
 9798TIP3    H250810   4.441   0.436   5.613  1.0906  0.8903  1.1233
 9799TIP3   OH250811   1.666   1.715  14.119  0.1723  0.4115  0.2841
 9799TIP3    H150812   1.611   1.669  14.056  1.5977 -1.1851  0.1887
 9799TIP3    H250813   1.606   1.736  14.192 -0.5406 -1.3713  0.2217
 9800TIP3   OH250814   0.898   4.480  17.021 -0.6288 -0.5041  0.1185
 9800TIP3    H150815   0.915   4.470  16.927  0.0289  0.8278  0.0824
 9800TIP3    H250816   0.964   4.424  17.063  3.0029  3.4157 -0.0693
 9801TIP3   OH250817   1.433   4.831   3.653  0.4166 -0.9743  0.0040
 9801TIP3    H150818   1.339   4.820   3.637  0.5617 -1.0918 -0.7823
 9801TIP3    H250819   1.438   4.857   3.746 -0.5428  1.0795 -0.4716
 9802TIP3   OH250820   5.708   1.478   1.605 -0.3168 -0.2248 -0.0247
 9802TIP3    H150821   5.759   1.547   1.649 -0.2703  0.3583 -0.9829
 9802TIP3    H250822   5.706   1.505   1.513  0.9718 -2.2727 -0.6845
 9803TIP3   OH250823   0.136   3.311  13.618 -0.4007 -0.0615  0.3921
 9803TIP3    H150824   0.199   3.253  13.660 -0.6739  0.2586  1.2675
 9803TIP3    H250825   0.122   3.274  13.531 -0.4319 -1.2013  0.8770
 9804TIP3   OH250826   1.383   4.580  14.587  0.1659 -0.2040  0.0925
 9804TIP3    H150827   1.440   4.560  14.513 -1.7416 -0.2046 -1.4118
 9804TIP3    H250828   1.308   4.625  14.548 -0.6004  0.3266  2.1049
 9805TIP3   OH250829   3.732   3.182  11.434  0.2108  0.2367  0.0367
 9805TIP3    H150830   3.664   3.237  11.396 -1.8599 -1.0335  1.7640
 9805TIP3    H250831   3.795   3.244  11.471 -0.4964  1.4442 -0.7677
 9806TIP3   OH250832   4.933   4.756   0.359  0.1349 -0.1233  0.5585
 9806TIP3    H150833   5.007   4.698   0.377  0.4588  0.6330  1.7390
 9806TIP3    H250834   4.883   4.758   0.441  1.5379  3.2547  1.4069
 9807TIP3   OH250835   5.379   1.465   4.906  0.1178 -0.4352 -0.4107
 9807TIP3    H150836   5.362   1.459   5.000 -2.2616  1.6402 -0.6874
 9807TIP3    H250837   5.459   1.517   4.900  2.6583 -4.0301  0.5783
 9808TIP3   OH250838   6.605   0.154   1.387 -0.4805 -0.2222  0.0585
 9808TIP3    H150839   6.694   0.118   1.378 -0.7080 -0.9915  0.8108
 9808TIP3    H250840   6.614   0.246   1.365  0.4797 -0.3302 -0.0294
 9809TIP3   OH250841   2.197   0.319   0.235 -0.2507 -0.4327 -0.3952
 9809TIP3    H150842   2.150   0.395   0.271 -1.4132 -1.3578  0.0684
 9809TIP3    H250843   2.129   0.266   0.194  0.5911 -1.1189 -0.9071
 9810TIP3   OH250844   1.473   3.809  14.399 -0.4214  0.4517 -0.0560
 9810TIP3    H150845   1.489   3.762  14.481 -0.0964 -1.1443 -1.0191
 9810TIP3    H250846   1.403   3.760  14.356  0.5047  0.3492 -1.4744
 9811TIP3   OH250847   2.387   5.123  11.520 -0.1974  0.3037  0.7304
 9811TIP3    H150848   2.422   5.055  11.462 -0.5294  0.3443  0.4784
 9811TIP3    H250849   2.305   5.087  11.552 -0.3349  0.5546  0.6613
 9812TIP3   OH250850   6.581   5.686   3.657  0.1645  0.7469 -0.1778
 9812TIP3    H150851   6.566   5.762   3.600  0.0553  1.2847  0.5571
 9812TIP3    H250852   6.532   5.706   3.736  0.7418  0.2423  0.3108
 9813TIP3   OH250853   2.377   4.419  13.648 -0.6649  0.2643 -0.0922
 9813TIP3    H150854   2.416   4.503  13.673 -0.6556  0.6258 -1.3176
 9813TIP3    H250855   2.366   4.424  13.553 -1.6337 -0.7146 -0.0440
 9814TIP3   OH250856   4.127   6.359  13.292 -0.0616  0.1069  0.0990
 9814TIP3    H150857   4.113   6.439  13.343  1.3000 -0.5135  1.4745
 9814TIP3    H250858   4.217   6.366  13.260 -0.7396  0.2495 -1.8410
 9815TIP3   OH250859   3.719   4.530   5.159  0.8425  0.0657  0.1832
 9815TIP3    H150860   3.782   4.538   5.231 -1.5692 -0.4226  2.4545
 9815TIP3    H250861   3.645   4.484   5.199 -1.1391  1.0681 -2.2706
 9816TIP3   OH250862   3.687   0.868  11.572  0.4635 -0.2666  0.1002
 9816TIP3    H150863   3.776   0.898  11.556  0.0349  1.1842  0.3572
 9816TIP3    H250864   3.637   0.898  11.496  0.0410 -0.4106  0.3174
 9817TIP3   OH250865   1.014   5.394   4.713 -0.4837  0.3116  0.3418
 9817TIP3    H150866   1.027   5.334   4.787 -0.7420  0.3732  0.4375
 9817TIP3    H250867   1.052   5.476   4.743 -0.5610  0.3283  0.3960
 9818TIP3   OH250868   5.871   3.840   5.198 -0.0926  0.2518 -0.1707
 9818TIP3    H150869   5.819   3.904   5.246  0.2119  0.6043 -0.3009
 9818TIP3    H250870   5.951   3.829   5.250  0.2524  0.6590 -0.6038
 9819TIP3   OH250871   1.712   3.247  13.958 -0.0964  0.4878 -0.0100
 9819TIP3    H150872   1.623   3.274  13.979  0.3012  2.7823 -1.0797
 9819TIP3    H250873   1.766   3.283  14.029  0.0554 -0.3639  0.3114
 9820TIP3   OH250874   3.382   4.758  10.966  0.4789 -0.2275 -0.2673
 9820TIP3    H150875   3.468   4.799  10.956  0.8158 -0.6204  0.8826
 9820TIP3    H250876   3.319   4.829  10.956  0.9228 -0.0205 -1.5713
 9821TIP3   OH250877   0.154   5.483  11.270 -0.0915 -0.8206  0.1077
 9821TIP3    H150878   0.204   5.431  11.332  0.3514 -0.0456  0.4092
 9821TIP3    H250879   0.146   5.428  11.192  2.2472 -0.5036 -0.3873
 9822TIP3   OH250880   6.307   6.500  14.617  0.3666  0.3098  0.1241
 9822TIP3    H150881   6.299   6.415  14.574  1.1120  0.0501  0.4832
 9822TIP3    H250882   6.228   6.507  14.671 -0.9052  0.9412 -1.7824
 9823TIP3   OH250883   1.056   4.194  11.762  0.5083  0.5367  0.3345
 9823TIP3    H150884   0.977   4.140  11.760  0.3106  0.8604 -1.9388
 9823TIP3    H250885   1.033   4.268  11.818 -0.3432 -0.0166  0.7337
 9824TIP3   OH250886   2.313   3.188  16.634  0.3415  0.1903  0.0843
 9824TIP3    H150887   2.271   3.179  16.719 -0.0502  1.0305 -0.0156
 9824TIP3    H250888   2.242   3.203  16.573  0.6257 -0.3777 -0.3968
 9825TIP3   OH250889   6.586   0.144   2.229  0.4137  0.1379  0.0676
 9825TIP3    H150890   6.520   0.194   2.279 -1.1122  0.3625 -2.1144
 9825TIP3    H250891   6.553   0.054   2.231  1.2935 -0.1712  0.9566
 9826TIP3   OH250892   0.309   5.259  15.721 -0.3239 -0.1472  0.3012
 9826TIP3    H150893   0.281   5.237  15.810 -0.3270 -0.5952  0.1903
 9826TIP3    H250894   0.384   5.318  15.734  1.7811 -2.7912  0.6411
 9827TIP3   OH250895   3.131   3.891   3.687 -0.3294  0.7173 -0.4159
 9827TIP3    H150896   3.199   3.919   3.626 -1.2726  0.3411 -1.6639
 9827TIP3    H250897   3.120   3.797   3.670 -1.0264  0.7328 -0.1003
 9828TIP3   OH250898   6.520   4.874  10.848 -0.1913 -0.1625  0.3868
 9828TIP3    H150899   6.592   4.812  10.857 -1.2372 -1.1350  2.3908
 9828TIP3    H250900   6.526   4.929  10.927 -1.2815  0.1357  0.2684
 9829TIP3   OH250901   1.769   5.280  14.272 -0.2783  0.3713 -0.6648
 9829TIP3    H150902   1.741   5.371  14.278  0.4364  0.4502  1.8787
 9829TIP3    H250903   1.707   5.240  14.210 -1.5216  2.2318 -0.6568
 9830TIP3   OH250904   0.687   2.333  14.481 -0.1313 -0.0946  0.1878
 9830TIP3    H150905   0.724   2.295  14.401 -1.4059  1.0571 -0.9838
 9830TIP3    H250906   0.747   2.403  14.504  0.2393 -0.4249  0.2256
 9831TIP3   OH250907   0.425   5.851  16.263  0.0128 -0.2803 -0.2461
 9831TIP3    H150908   0.366   5.855  16.338 -0.5328 -2.3490 -0.5214
 9831TIP3    H250909   0.505   5.893  16.293 -0.7109  0.2085  1.0173
 9832TIP3   OH250910   2.969   1.202   2.454 -0.0410  0.9170 -0.1741
 9832TIP3    H150911   3.031   1.237   2.391 -1.6312  0.3046 -2.1128
 9832TIP3    H250912   3.009   1.120   2.484  1.0708  1.5891  0.2304
 9833TIP3   OH250913   1.518   2.469   3.655  0.6457 -0.2907 -0.7326
 9833TIP3    H150914   1.551   2.480   3.565  1.5651  1.5992 -0.1821
 9833TIP3    H250915   1.522   2.374   3.670 -1.5899 -0.8825 -3.4430
 9834TIP3   OH250916   5.403   5.166   1.639 -0.7763 -0.1614 -0.1163
 9834TIP3    H150917   5.492   5.138   1.617 -1.6405 -2.5310 -0.7248
 9834TIP3    H250918   5.396   5.150   1.734  0.0924  1.9586  0.3348
 9835TIP3   OH250919   1.392   2.633   4.573  0.8860  0.2599  0.7489
 9835TIP3    H150920   1.442   2.585   4.639  2.0256  0.1783 -0.1690
 9835TIP3    H250921   1.453   2.698   4.539  0.4228  0.0391 -0.5117
 9836TIP3   OH250922   4.105   5.076  14.023  0.7718 -0.1209  0.4061
 9836TIP3    H150923   4.063   5.079  14.109  0.6451 -1.9885  0.4210
 9836TIP3    H250924   4.055   5.139  13.971  0.0544  0.1157  1.3524
 9837TIP3   OH250925   2.265   5.408   1.278  0.3088 -0.1278 -0.6775
 9837TIP3    H150926   2.275   5.332   1.220  0.1386  0.3154 -1.2900
 9837TIP3    H250927   2.185   5.390   1.327  1.3481 -1.3016  0.6405
 9838TIP3   OH250928   4.065   0.316   3.135  0.1428 -0.2111  0.2498
 9838TIP3    H150929   4.065   0.266   3.216  0.9858  0.3612  0.6061
 9838TIP3    H250930   4.064   0.250   3.066 -2.3694 -0.7138  0.7005
 9839TIP3   OH250931   3.281   4.543   2.722 -0.4580 -0.0766  0.2902
 9839TIP3    H150932   3.203   4.568   2.772 -0.1471  1.7377 -0.1082
 9839TIP3    H250933   3.300   4.454   2.752 -1.1220  0.4329  2.3413
 9840TIP3   OH250934   5.061   3.327  16.863  0.3497  0.5422 -0.2961
 9840TIP3    H150935   5.069   3.391  16.934  1.4963  0.0116  0.0576
 9840TIP3    H250936   5.075   3.242  16.905  1.3957  0.2467 -1.2184
 9841TIP3   OH250937   1.194   2.574   4.381  0.2356  0.6003 -0.3585
 9841TIP3    H150938   1.255   2.584   4.454  0.3768 -1.9046 -0.0768
 9841TIP3    H250939   1.171   2.663   4.356  3.1290  1.5967  0.2806
 9842TIP3   OH250940   6.279   5.828  12.103  0.0356 -0.5161  0.9262
 9842TIP3    H150941   6.227   5.748  12.117 -0.7714  0.0849  1.4367
 9842TIP3    H250942   6.216   5.899  12.113  1.1694  0.2926  2.6675
 9843TIP3   OH250943   0.864   1.801  14.174 -0.1554  0.4963 -0.9158
 9843TIP3    H150944   0.768   1.805  14.169 -0.2176  0.1132 -0.0184
 9843TIP3    H250945   0.882   1.716  14.215  0.4547  2.3866  2.9059
 9844TIP3   OH250946   5.227   2.151  12.863 -0.1304  0.0632 -0.2939
 9844TIP3    H150947   5.272   2.110  12.789  0.7340 -1.7040  1.1886
 9844TIP3    H250948   5.134   2.137  12.846  0.1078 -1.2945 -0.4909
 9845TIP3   OH250949   0.955   1.379   4.212 -0.3884 -0.7347 -0.3833
 9845TIP3    H150950   1.022   1.368   4.146  0.9788  1.7563  0.5303
 9845TIP3    H250951   0.889   1.434   4.171 -0.5328 -0.8813 -0.3506
 9846TIP3   OH250952   3.613   4.145  16.082  0.5106 -0.3980 -0.6925
 9846TIP3    H150953   3.689   4.129  16.028 -0.1260  0.2998 -1.8187
 9846TIP3    H250954   3.581   4.058  16.107  1.9653 -0.6802  0.2313
 9847TIP3   OH250955   1.570   1.214  14.913 -0.5157 -0.7663  0.0720
 9847TIP3    H150956   1.615   1.134  14.886  0.0212 -0.5440  0.3109
 9847TIP3    H250957   1.640   1.274  14.937 -0.9647 -1.1975  2.6463
 9848TIP3   OH250958   4.515   4.783  12.666  0.1456 -0.5367 -0.1117
 9848TIP3    H150959   4.523   4.828  12.582 -2.8286 -3.4319 -2.0786
 9848TIP3    H250960   4.525   4.690  12.644  0.3335 -1.2744  2.9111
 9849TIP3   OH250961   1.546   2.538   1.952  0.5164 -0.1807 -0.3487
 9849TIP3    H150962   1.599   2.617   1.942  0.0839  0.1249 -0.2045
 9849TIP3    H250963   1.470   2.565   2.003 -0.1876 -0.4372 -1.2354
 9850TIP3   OH250964   0.374   6.064   1.327 -0.3717  0.4014  0.0192
 9850TIP3    H150965   0.315   6.121   1.377  1.7527  2.1373  0.6343
 9850TIP3    H250966   0.396   6.115   1.249  0.7384  0.0187  0.0664
 9851TIP3   OH250967   0.856   2.807   5.834  0.0504 -0.1446  0.0666
 9851TIP3    H150968   0.872   2.715   5.851  0.0590 -0.0274  0.7161
 9851TIP3    H250969   0.787   2.832   5.896 -0.5644  0.0789 -0.6891
 9852TIP3   OH250970   3.945   3.840   0.773  0.3084  0.2572  0.0190
 9852TIP3    H150971   3.903   3.916   0.812  1.9973  0.7320  0.9613
 9852TIP3    H250972   4.029   3.833   0.818  0.2508 -2.0871 -0.1460
 9853TIP3   OH250973   4.798   0.791  16.879 -0.3383  0.0190  0.0965
 9853TIP3    H150974   4.888   0.814  16.902 -0.4457 -0.8624  1.4896
 9853TIP3    H250975   4.744   0.840  16.940 -0.7410 -0.5319  0.1928
 9854TIP3   OH250976   2.432   3.798  16.930  0.0044  0.7756 -1.0468
 9854TIP3    H150977   2.376   3.721  16.940 -1.6793  2.0793 -0.2888
 9854TIP3    H250978   2.499   3.770  16.868  1.9669 -2.6970  2.3851
 9855TIP3   OH250979   3.104   1.309   0.527 -0.1115 -0.2045  0.0668
 9855TIP3    H150980   3.193   1.328   0.497 -0.1693 -0.2303 -0.1199
 9855TIP3    H250981   3.104   1.334   0.619 -0.1061  0.4485 -0.1094
 9856TIP3   OH250982   5.930   5.456  12.693 -0.4781 -0.2683  0.3611
 9856TIP3    H150983   5.994   5.520  12.726 -1.2695  0.0437  1.3322
 9856TIP3    H250984   5.932   5.385  12.758 -0.7451 -0.4961  0.1214
 9857TIP3   OH250985   5.446   3.500  11.088 -0.2573  0.2163  0.3496
 9857TIP3    H150986   5.353   3.503  11.065 -0.1893  1.8161  0.2446
 9857TIP3    H250987   5.470   3.592  11.105  0.7529 -0.4055  2.5234
 9858TIP3   OH250988   4.069   4.507  16.532 -0.3438  0.5096  0.0784
 9858TIP3    H150989   4.159   4.539  16.526  0.4938 -1.7392 -0.0410
 9858TIP3    H250990   4.069   4.426  16.481 -1.9645 -0.5231  1.6692
 9859TIP3   OH250991   0.047   4.537  16.441 -0.1649 -0.2805  0.2956
 9859TIP3    H150992   0.124   4.511  16.491 -0.2500 -1.3984 -0.1510
 9859TIP3    H250993   0.025   4.460  16.389 -1.3011  0.1960  0.0674
 9860TIP3   OH250994   3.991   4.662   4.363 -0.1396  0.4694  0.1706
 9860TIP3    H150995   4.017   4.753   4.374  0.5575  0.4008 -0.8555
 9860TIP3    H250996   4.070   4.612   4.383  0.3774  0.2326 -2.3477
 9861TIP3   OH250997   6.128   3.493  13.653  0.3697  0.0629 -0.2772
 9861TIP3    H150998   6.090   3.581  13.657  0.3054  0.1160 -1.8428
 9861TIP3    H250999   6.160   3.477  13.742 -0.7954  1.1374  0.3587
 9862TIP3   OH251000   5.455   5.654  16.080  0.2517 -0.3681 -0.5867
 9862TIP3    H151001   5.541   5.696  16.081 -0.4534  1.0716  0.4409
 9862TIP3    H251002   5.434   5.640  16.173 -0.9822  0.0468 -0.7934
 9863TIP3   OH251003   3.660   1.738   2.538  0.0783 -0.2387 -0.5910
 9863TIP3    H151004   3.635   1.830   2.526  0.1246  0.0077  1.0176
 9863TIP3    H251005   3.743   1.730   2.492 -0.3357  0.3080 -1.4551
 9864TIP3   OH251006   3.040   0.824  16.147 -0.7328  0.3944  0.6395
 9864TIP3    H151007   2.988   0.896  16.113 -0.9895 -0.6478 -1.2291
 9864TIP3    H251008   3.085   0.861  16.223 -1.1400  2.3946 -0.0668
 9865TIP3   OH251009   6.073   0.126   0.902  0.2852  0.2934 -0.9729
 9865TIP3    H151010   6.099   0.161   0.987  1.5768  1.0048 -1.6343
 9865TIP3    H251011   5.993   0.076   0.919 -0.6182  2.1029  0.3096
 9866TIP3   OH251012   0.705   1.015   5.106 -0.1728  0.1065  0.0891
 9866TIP3    H151013   0.671   1.085   5.162 -0.2002  0.5462 -0.4690
 9866TIP3    H251014   0.735   0.947   5.167 -0.1054  0.6244  0.6343
 9867TIP3   OH251015   3.499   4.932  16.662 -0.1395  0.0747  0.2166
 9867TIP3    H151016   3.573   4.970  16.615  0.4976  0.6520  1.6478
 9867TIP3    H251017   3.499   4.840  16.636 -0.3430  0.5539 -1.5648
 9868TIP3   OH251018   0.169   3.578  15.176 -0.1141  0.0697  0.7758
 9868TIP3    H151019   0.098   3.540  15.123 -0.3779  2.8142 -0.9525
 9868TIP3    H251020   0.124   3.615  15.252 -0.2408 -0.2290  0.8486
 9869TIP3   OH251021   4.149   1.663   0.649 -0.2753  0.4223  0.6144
 9869TIP3    H151022   4.102   1.617   0.580  0.4589 -0.3541  0.6360
 9869TIP3    H251023   4.083   1.675   0.718 -1.0183  1.2299 -0.2098
 9870TIP3   OH251024   6.052   2.193  11.497 -0.4984  0.0959  0.3048
 9870TIP3    H151025   5.957   2.196  11.484 -0.3183  0.9029 -0.8978
 9870TIP3    H251026   6.070   2.264  11.559 -0.5891  0.5391 -0.1646
 9871TIP3   OH251027   4.823   4.014   0.953 -0.3363 -0.1506  0.5510
 9871TIP3    H151028   4.771   4.034   0.875  0.9351  0.6168 -0.1199
 9871TIP3    H251029   4.759   4.003   1.023 -1.3526  1.7990 -0.0344
 9872TIP3   OH251030   0.960   1.266   0.158  0.1281 -0.4196  0.8046
 9872TIP3    H151031   0.919   1.342   0.116  0.6551 -0.6172 -0.0887
 9872TIP3    H251032   0.892   1.199   0.158  0.7457 -1.1058 -1.6671
 9873TIP3   OH251033   5.877   4.981  14.429  0.0106 -0.4753 -0.4230
 9873TIP3    H151034   5.811   4.975  14.497  0.7144 -0.3600  0.2765
 9873TIP3    H251035   5.840   4.934  14.355  0.1087 -2.3836  0.7173
 9874TIP3   OH251036   6.693   4.358  13.327  0.2332  0.3321 -0.0059
 9874TIP3    H151037   6.721   4.448  13.311 -0.2327  0.5720  0.5323
 9874TIP3    H251038   6.722   4.310  13.249  3.0439  0.3819  0.9508
 9875TIP3   OH251039   1.652   6.273  16.046 -0.4101  0.6874 -0.5150
 9875TIP3    H151040   1.641   6.367  16.038 -1.2147  0.6353 -0.1220
 9875TIP3    H251041   1.570   6.236  16.014 -0.6087  0.1839  0.5471
 9876TIP3   OH251042   0.416   5.002  13.778 -0.7019  0.5422  0.0225
 9876TIP3    H151043   0.375   5.022  13.694 -1.1048 -0.0848  0.0731
 9876TIP3    H251044   0.459   5.084  13.804  0.3555  0.4365 -1.3260
 9877TIP3   OH251045   5.786   3.236  17.191 -0.1532  0.0817 -0.2103
 9877TIP3    H151046   5.704   3.285  17.180 -0.9195 -0.4195  2.9424
 9877TIP3    H251047   5.802   3.197  17.105 -2.8181  0.8012 -1.0802
 9878TIP3   OH251048   2.890   3.326  11.441  0.2984 -0.4587  0.4701
 9878TIP3    H151049   2.947   3.381  11.387  0.5008  0.6810  1.7913
 9878TIP3    H251050   2.834   3.280  11.378 -1.7552  3.3388 -0.6435
 9879TIP3   OH251051   0.827   3.976   3.088 -0.4097 -0.5276  0.1385
 9879TIP3    H151052   0.824   4.051   3.148 -0.2023  0.1557 -0.6984
 9879TIP3    H251053   0.920   3.959   3.075 -0.4575 -0.9506  0.3551
 9880TIP3   OH251054   5.930   1.360  10.600 -0.1121 -0.6075  0.9626
 9880TIP3    H151055   5.871   1.414  10.547 -0.6275 -0.6827  1.4524
 9880TIP3    H251056   5.989   1.423  10.641 -1.9593 -0.1989  3.0974
 9881TIP3   OH251057   0.868   2.540  10.899  0.6980  0.0942  0.0170
 9881TIP3    H151058   0.860   2.466  10.838 -0.2162 -1.0552  1.4951
 9881TIP3    H251059   0.816   2.610  10.859 -0.2253 -0.7844 -0.3388
 9882TIP3   OH251060   0.473   4.487   2.161 -0.5897 -0.0947  0.2492
 9882TIP3    H151061   0.402   4.537   2.202  0.5040  1.0487  0.7862
 9882TIP3    H251062   0.465   4.506   2.068 -1.0448 -0.0466  0.2958
 9883TIP3   OH251063   2.128   5.669   2.292 -0.1842  0.4957  0.7766
 9883TIP3    H151064   2.058   5.610   2.264  0.3025  0.0138  0.5664
 9883TIP3    H251065   2.124   5.742   2.231 -0.6246  0.5602  0.8795
 9884TIP3   OH251066   2.538   4.548   0.531  0.4660 -0.0573 -0.6426
 9884TIP3    H151067   2.589   4.467   0.534  0.4252 -0.0540  0.9596
 9884TIP3    H251068   2.594   4.613   0.575 -0.9807 -0.1085  1.3296
 9885TIP3   OH251069   4.148   5.362   5.441  0.4706 -0.1213  0.4219
 9885TIP3    H151070   4.195   5.362   5.357 -1.2625 -0.7231 -0.5773
 9885TIP3    H251071   4.209   5.405   5.502  1.9794 -0.1569 -1.0026
 9886TIP3   OH251072   1.055   4.248  11.225  0.1911 -0.0484 -0.2033
 9886TIP3    H151073   0.994   4.321  11.226 -0.9174 -0.9717  0.2519
 9886TIP3    H251074   1.092   4.246  11.313 -0.1661 -0.3584 -0.0600
 9887TIP3   OH251075   0.510   3.768   4.287  0.2457 -0.2703  0.1511
 9887TIP3    H151076   0.420   3.788   4.309  0.2722 -0.0803  0.0850
 9887TIP3    H251077   0.511   3.765   4.191  0.9171  2.5690  0.0233
 9888TIP3   OH251078   2.715   2.342  14.731  0.1925  0.4106 -0.6761
 9888TIP3    H151079   2.774   2.289  14.785 -0.2380 -0.7574 -1.3203
 9888TIP3    H251080   2.769   2.373  14.659  0.0022 -0.8296 -1.3778
 9889TIP3   OH251081   2.459   4.295  16.057  0.1973  0.4853  0.1652
 9889TIP3    H151082   2.410   4.231  16.107  2.0674 -0.0278  1.3936
 9889TIP3    H251083   2.534   4.317  16.112  2.1724  0.1074 -2.2621
 9890TIP3   OH251084   1.884   0.651   4.618  0.4651  0.4497  0.4217
 9890TIP3    H151085   1.926   0.729   4.583  2.8872 -0.6004  0.8305
 9890TIP3    H251086   1.920   0.579   4.566 -0.3050 -0.5432  1.2423
 9891TIP3   OH251087   0.303   0.831   4.911  0.1204  0.3637  0.4003
 9891TIP3    H151088   0.389   0.840   4.869  0.1605  1.5205  0.7033
 9891TIP3    H251089   0.244   0.882   4.855 -0.3728 -0.4399  0.1873
 9892TIP3   OH251090   0.053   4.146  12.146 -0.0502  0.1192 -0.3208
 9892TIP3    H151091   0.132   4.095  12.130 -0.0975 -0.4385  1.1219
 9892TIP3    H251092  -0.019   4.085  12.126 -0.1115  0.1066 -0.0598
 9893TIP3   OH251093   0.795   3.068   0.443 -0.4807 -0.0100  0.2574
 9893TIP3    H151094   0.889   3.065   0.461 -0.2972 -1.3107 -0.8920
 9893TIP3    H251095   0.785   3.020   0.361 -1.7080  3.1072 -1.4927
 9894TIP3   OH251096   2.357   6.362   5.052 -1.1469  0.1458 -0.5114
 9894TIP3    H151097   2.429   6.385   5.110 -1.7245  1.0607 -0.1441
 9894TIP3    H251098   2.287   6.422   5.076 -0.8642  1.6975 -3.2703
 9895TIP3   OH251099   3.078   3.846   3.124  0.0104  0.0242  0.0678
 9895TIP3    H151100   3.107   3.896   3.048  1.8481 -1.1054 -0.0065
 9895TIP3    H251101   3.108   3.896   3.199 -0.2074  0.2197  0.0238
 9896TIP3   OH251102   2.910   6.476  13.444 -0.2367  0.6083 -0.6579
 9896TIP3    H151103   2.916   6.504  13.535  0.5165 -0.1670 -0.4603
 9896TIP3    H251104   2.928   6.382  13.447  0.5003  0.7096 -1.6956
 9897TIP3   OH251105   4.623   0.445   3.226  0.1238 -0.3079 -0.1099
 9897TIP3    H151106   4.672   0.516   3.267 -0.0664  0.0541 -0.5090
 9897TIP3    H251107   4.538   0.482   3.206  0.6415 -0.0703 -2.0294
 9898TIP3   OH251108   6.280   5.524  14.366 -0.3184 -0.4245  0.3882
 9898TIP3    H151109   6.346   5.575  14.415 -0.2626  0.8591 -1.0010
 9898TIP3    H251110   6.331   5.457  14.321 -0.0844 -0.0633  0.1176
 9899TIP3   OH251111   1.492   4.580   5.290 -0.1863  0.0726 -0.6312
 9899TIP3    H151112   1.478   4.595   5.196  0.1180 -0.0555 -0.6974
 9899TIP3    H251113   1.519   4.488   5.295  0.7777  0.3529 -0.5217
 9900TIP3   OH251114   1.838   4.355  13.213 -0.1421 -0.2004 -0.7687
 9900TIP3    H151115   1.917   4.389  13.255  0.4397 -1.1228 -1.0892
 9900TIP3    H251116   1.865   4.336  13.123 -0.3535 -1.8144 -0.5114
 9901TIP3   OH251117   1.274   3.651  15.964  0.1487 -0.4306  0.3086
 9901TIP3    H151118   1.240   3.676  16.050 -1.2650  2.0804 -0.9107
 9901TIP3    H251119   1.266   3.556  15.961 -0.3695 -0.4915  2.6964
 9902TIP3   OH251120   0.414   3.300   0.787 -0.2234  0.0268 -0.1790
 9902TIP3    H151121   0.411   3.205   0.799 -1.2116  0.2408  1.5010
 9902TIP3    H251122   0.363   3.315   0.707 -2.3222 -0.6699  0.9814
 9903TIP3   OH251123   4.946   2.933  12.837  0.0976  0.5978  0.3751
 9903TIP3    H151124   5.013   3.000  12.822 -0.1365  1.0952  1.4970
 9903TIP3    H251125   4.924   2.942  12.929 -0.5968 -0.4289  0.3117
 9904TIP3   OH251126   1.102   6.168  14.503  0.1561 -0.1602  0.3444
 9904TIP3    H151127   1.157   6.243  14.523 -1.1194  0.9096 -0.0814
 9904TIP3    H251128   1.059   6.147  14.586 -1.7704  1.4969 -0.1928
 9905TIP3   OH251129   0.671   3.029   0.675 -0.5430 -0.1760  0.0787
 9905TIP3    H151130   0.737   3.060   0.737  1.0669 -1.2527 -1.0523
 9905TIP3    H251131   0.714   3.035   0.590 -1.9125 -0.9066 -0.6704
 9906TIP3   OH251132   4.170   3.182  13.109 -0.2484 -0.6532  0.0569
 9906TIP3    H151133   4.093   3.187  13.051  0.2957 -2.0903 -0.8035
 9906TIP3    H251134   4.152   3.110  13.168  0.0563 -0.4302  0.4259
 9907TIP3   OH251135   3.195   6.564   1.766  0.6746  0.1000  0.1093
 9907TIP3    H151136   3.244   6.508   1.706  1.1970  1.0045 -0.3120
 9907TIP3    H251137   3.207   6.523   1.851 -1.8981 -2.4705 -0.6795
 9908TIP3   OH251138   6.522   5.756  11.058  0.2976 -0.3553  0.2813
 9908TIP3    H151139   6.471   5.733  11.136 -0.5797  3.3909  0.9046
 9908TIP3    H251140   6.612   5.765  11.090  0.0932  0.2986  0.6695
 9909TIP3   OH251141   4.070   1.595   4.085  0.6866 -0.1901  0.0734
 9909TIP3    H151142   4.095   1.677   4.044 -1.2714  0.2802 -0.2602
 9909TIP3    H251143   4.087   1.608   4.179 -2.0523  1.6021  0.3858
 9910TIP3   OH251144   0.249   0.791   5.818 -0.6859 -0.2018 -0.3828
 9910TIP3    H151145   0.284   0.753   5.899  0.8733  0.6076 -0.6574
 9910TIP3    H251146   0.155   0.796   5.833 -0.4730 -0.5421  1.1813
 9911TIP3   OH251147   5.451   2.566  16.018  0.8329  0.2333  0.2109
 9911TIP3    H151148   5.382   2.615  15.972  0.6536 -0.2848 -0.0709
 9911TIP3    H251149   5.419   2.476  16.020  0.5823  0.3505  1.8463
 9912TIP3   OH251150   5.543   4.494   1.762  0.2019 -0.6001 -0.1429
 9912TIP3    H151151   5.531   4.410   1.718  1.1807 -0.0345 -1.5510
 9912TIP3    H251152   5.615   4.480   1.823 -0.2823 -1.0377  0.3286
 9913TIP3   OH251153   0.623   4.854   2.825 -0.2840  0.1266  0.4283
 9913TIP3    H151154   0.710   4.878   2.856  0.9688 -1.2526 -1.9318
 9913TIP3    H251155   0.590   4.934   2.782  0.0830  0.4292  0.7043
 9914TIP3   OH251156   4.169   5.667   5.654 -0.6701  0.4020  0.1415
 9914TIP3    H151157   4.147   5.597   5.716 -1.3517 -0.4583 -1.0398
 9914TIP3    H251158   4.264   5.661   5.644 -0.8713 -1.2003 -0.9248
 9915TIP3   OH251159   6.576   6.632  16.533 -0.3618  0.0602  0.0935
 9915TIP3    H151160   6.500   6.690  16.521  1.2235  2.6131  1.9646
 9915TIP3    H251161   6.561   6.591  16.618  0.1560  0.2548  0.2764
 9916TIP3   OH251162   1.750   5.585  16.111 -0.5163 -0.1891  0.1193
 9916TIP3    H151163   1.809   5.515  16.139 -0.9699  0.2125  2.1579
 9916TIP3    H251164   1.663   5.555  16.138 -0.5772  1.6676  2.1470
 9917TIP3   OH251165   3.928   3.196   1.277  0.3116  0.1869  0.2142
 9917TIP3    H151166   3.842   3.230   1.301 -0.3011 -1.1770 -0.0167
 9917TIP3    H251167   3.965   3.262   1.218 -2.0785 -0.9023 -2.6319
 9918TIP3   OH251168   2.026   2.028  14.780 -0.2100 -0.7228 -0.4055
 9918TIP3    H151169   1.970   1.989  14.712 -0.0458 -1.1244 -0.3077
 9918TIP3    H251170   2.092   2.076  14.730  0.8097 -2.2581 -0.5530
 9919TIP3   OH251171   3.253   2.965   3.756 -0.1000 -0.2690  0.2073
 9919TIP3    H151172   3.161   2.966   3.780 -0.1341 -0.5046  0.0887
 9919TIP3    H251173   3.261   3.031   3.686 -0.1158 -0.0146  0.4469
 9920TIP3   OH251174   6.255   3.656   0.451 -0.5270 -0.4281  0.7393
 9920TIP3    H151175   6.161   3.650   0.465 -1.4044  3.5394 -2.3133
 9920TIP3    H251176   6.274   3.595   0.380 -1.7877  2.2767 -2.0249
 9921TIP3   OH251177   6.749   3.434   3.112 -0.2291  0.4264 -0.2368
 9921TIP3    H151178   6.783   3.373   3.177 -2.2562  2.0618  2.4385
 9921TIP3    H251179   6.729   3.513   3.161 -1.6135  1.7864 -2.8989
 9922TIP3   OH251180   5.060   1.494   2.431 -0.0528 -0.6209  0.0495
 9922TIP3    H151181   5.070   1.571   2.487  0.7110 -0.4799 -0.2697
 9922TIP3    H251182   4.969   1.467   2.443  0.6386 -1.9172  3.1334
 9923TIP3   OH251183   6.650   3.667   4.144  0.0998  0.0514  0.3113
 9923TIP3    H151184   6.670   3.590   4.197 -1.0768 -0.5023 -0.0247
 9923TIP3    H251185   6.555   3.680   4.156 -0.1971 -0.1673 -1.7701
 9924TIP3   OH251186   3.131   1.713   5.839  0.0180 -0.1644  0.0932
 9924TIP3    H151187   3.110   1.621   5.857  0.6217 -0.0838  1.2871
 9924TIP3    H251188   3.069   1.739   5.771 -0.3160 -1.3917 -0.0830
 9925TIP3   OH251189   3.633   3.222   6.073  0.5711  0.3783 -0.4765
 9925TIP3    H151190   3.690   3.297   6.060 -0.1922  1.2291  0.9519
 9925TIP3    H251191   3.677   3.169   6.140 -1.1825  2.0224  2.0834
 9926TIP3   OH251192   5.628   6.315  16.601  0.3461 -0.6612 -0.1163
 9926TIP3    H151193   5.619   6.316  16.506  0.8302 -1.7975 -0.1760
 9926TIP3    H251194   5.722   6.330  16.616  0.2425 -0.3037  0.1905
 9927TIP3   OH251195   1.635   5.859  15.896  0.7457 -0.1258  0.1012
 9927TIP3    H151196   1.655   5.947  15.863  1.9436  0.5876  2.5936
 9927TIP3    H251197   1.546   5.868  15.932  0.5550 -0.1482 -0.3617
 9928TIP3   OH251198   2.716   3.574  17.025 -0.2144  0.2546 -0.2916
 9928TIP3    H151199   2.792   3.526  17.057  1.3418  2.5476 -0.4530
 9928TIP3    H251200   2.752   3.637  16.962 -2.3239  0.9518 -0.8501
 9929TIP3   OH251201   3.705   5.657  15.841  0.2680 -0.0891 -0.3004
 9929TIP3    H151202   3.785   5.688  15.797  1.0658 -1.4264  0.1719
 9929TIP3    H251203   3.677   5.583  15.788 -0.1456 -0.1966  0.0743
 9930TIP3   OH251204   4.857   6.051   4.477 -0.0895 -0.0464 -0.4789
 9930TIP3    H151205   4.804   6.005   4.541  1.2843  0.7116  1.2313
 9930TIP3    H251206   4.831   6.143   4.485  1.5249  0.3495  0.4500
 9931TIP3   OH251207   5.172   4.172   1.564 -0.2515 -0.6836 -0.0875
 9931TIP3    H151208   5.209   4.226   1.634 -2.8590  1.4872 -0.2882
 9931TIP3    H251209   5.121   4.106   1.609  1.1132 -1.6207  0.1114
 9932TIP3   OH251210   4.654   4.432   4.768  0.4472  0.2798 -0.2084
 9932TIP3    H151211   4.595   4.367   4.805  0.3764 -0.0893 -0.9647
 9932TIP3    H251212   4.654   4.414   4.674 -0.1160  1.8098 -0.5160
 9933TIP3   OH251213   3.081   2.727  16.373  0.4843 -0.4931 -0.2299
 9933TIP3    H151214   3.040   2.730  16.286  1.0972 -0.8414 -0.5304
 9933TIP3    H251215   3.009   2.745  16.433  0.5055  2.1411 -0.9292
 9934TIP3   OH251216   4.814   3.662  10.631 -0.0558  0.0669 -0.1648
 9934TIP3    H151217   4.763   3.689  10.555 -1.6503  0.2393  0.9462
 9934TIP3    H251218   4.904   3.657  10.598 -0.3797  2.2550 -1.5111
 9935TIP3   OH251219   5.420   6.221   5.633  0.2586 -0.3207 -0.6564
 9935TIP3    H151220   5.500   6.228   5.685  0.4264  0.1920 -0.9823
 9935TIP3    H251221   5.450   6.191   5.547 -0.1300 -2.1859 -0.1594
 9936TIP3   OH251222   2.198   1.349   0.129 -0.7762 -0.2008  0.5694
 9936TIP3    H151223   2.237   1.265   0.153  1.0304  0.7258  0.8927
 9936TIP3    H251224   2.271   1.410   0.126 -2.0436  1.3227  0.0944
 9937TIP3   OH251225   5.636   5.702   1.213 -0.7087 -0.0315  0.4394
 9937TIP3    H151226   5.571   5.761   1.176  0.0921  0.6696  0.1510
 9937TIP3    H251227   5.716   5.720   1.165 -0.2976 -0.9088  0.7790
 9938TIP3   OH251228   5.413   0.855  14.342  0.2309  0.2211  0.1635
 9938TIP3    H151229   5.338   0.899  14.381  3.4676  3.5600  3.0163
 9938TIP3    H251230   5.488   0.885  14.394  3.4683 -3.5844 -2.0342
 9939TIP3   OH251231   0.650   1.906   4.465 -0.0898 -0.2810  0.0513
 9939TIP3    H151232   0.578   1.854   4.502 -0.3343 -0.8753 -1.2313
 9939TIP3    H251233   0.661   1.979   4.527 -1.2028 -0.6662  0.7209
 9940TIP3   OH251234   4.460   2.140  12.152 -0.4100 -0.1882 -0.2243
 9940TIP3    H151235   4.527   2.173  12.212 -1.4408 -1.2442  1.5321
 9940TIP3    H251236   4.490   2.053  12.127 -1.6436 -1.0771  1.3819
 9941TIP3   OH251237   3.408   6.019   2.871  0.1364  0.2835 -0.9396
 9941TIP3    H151238   3.454   6.077   2.810  1.9449  0.9013  0.9331
 9941TIP3    H251239   3.385   6.076   2.945 -1.3286 -0.6061 -0.6974
 9942TIP3   OH251240   0.636   4.553   5.312 -0.1517  0.0369 -0.1441
 9942TIP3    H151241   0.681   4.545   5.396  0.8193  1.7484 -0.4728
 9942TIP3    H251242   0.705   4.579   5.250 -1.2556  0.9577 -1.0087
 9943TIP3   OH251243   4.323   6.250  15.260 -0.1011 -0.1817  0.1212
 9943TIP3    H151244   4.360   6.332  15.292  0.8070 -0.3505 -0.4680
 9943TIP3    H251245   4.373   6.230  15.181  2.4180 -3.3396  2.3681
 9944TIP3   OH251246   2.706   1.546  14.847  0.1734 -0.2857 -0.1391
 9944TIP3    H151247   2.739   1.480  14.787  1.1580 -0.7500  0.8990
 9944TIP3    H251248   2.784   1.582  14.889 -0.6405 -2.4654  3.4669
 9945TIP3   OH251249   5.518   5.384  14.962 -0.5541 -0.0480  0.0811
 9945TIP3    H151250   5.558   5.468  14.983 -1.3717  0.4905 -0.4997
 9945TIP3    H251251   5.537   5.329  15.038 -0.1026  0.6861  0.5085
 9946TIP3   OH251252   4.839   0.450   3.636  0.5801 -0.2616  0.4699
 9946TIP3    H151253   4.783   0.401   3.696 -1.6229 -0.1224 -1.3841
 9946TIP3    H251254   4.877   0.384   3.579 -2.9182  0.0484 -2.4677
 9947TIP3   OH251255   5.656   0.853   5.697 -0.1775  0.2141 -0.7833
 9947TIP3    H151256   5.643   0.946   5.714  1.4921  0.6842 -1.9449
 9947TIP3    H251257   5.577   0.811   5.732 -0.4144  1.9242  0.8539
 9948TIP3   OH251258   3.703   6.625   2.857  0.3145  0.2563  0.4668
 9948TIP3    H151259   3.749   6.708   2.874 -0.2357  0.7804 -0.5676
 9948TIP3    H251260   3.635   6.648   2.793 -0.4896 -0.7922  0.9342
 9949TIP3   OH251261   4.838   3.915  14.481  0.3490 -0.4135 -0.0640
 9949TIP3    H151262   4.861   3.860  14.406 -2.3737  1.9079 -2.7100
 9949TIP3    H251263   4.914   3.973  14.492  1.8035 -2.3789  0.6352
 9950TIP3   OH251264   5.341   5.034   1.246  0.0841  0.0925  0.7953
 9950TIP3    H151265   5.353   5.012   1.338  1.4541  1.5423  0.9756
 9950TIP3    H251266   5.316   5.127   1.247 -0.4823 -0.0407 -0.2656
 9951TIP3   OH251267   4.257   4.200   5.544 -0.6836 -0.0459 -0.0438
 9951TIP3    H151268   4.344   4.161   5.555 -0.7193  0.1639  1.1014
 9951TIP3    H251269   4.259   4.279   5.599 -1.0040  0.9301 -1.4223
 9952TIP3   OH251270   1.895   3.101   5.061 -0.3162  0.4767 -0.3851
 9952TIP3    H151271   1.863   3.187   5.088  0.8322  0.9948 -0.6235
 9952TIP3    H251272   1.874   3.044   5.135 -0.4290  1.1174  0.0903
 9953TIP3   OH251273   2.291   1.812   1.788  0.0278 -0.4697  0.1055
 9953TIP3    H151274   2.384   1.823   1.767 -0.5148 -0.7087 -2.5467
 9953TIP3    H251275   2.291   1.761   1.870  2.2228  0.0159  0.4373
 9954TIP3   OH251276   2.133   0.002  13.892 -0.8299 -0.1121 -0.1947
 9954TIP3    H151277   2.207  -0.028  13.944 -0.7664 -0.3203 -0.4056
 9954TIP3    H251278   2.094  -0.078  13.857 -0.6424  0.0462 -0.7819
 9955TIP3   OH251279   3.394   3.082   2.557  0.0558 -0.0203 -0.0107
 9955TIP3    H151280   3.428   3.010   2.504 -0.4109  0.0108 -0.3492
 9955TIP3    H251281   3.409   3.054   2.648  1.5956  0.2791 -0.1609
 9956TIP3   OH251282   6.027   4.556  11.265 -0.0303  0.2881 -0.1442
 9956TIP3    H151283   6.043   4.620  11.334 -0.4001  0.9666 -0.6802
 9956TIP3    H251284   6.094   4.575  11.199 -0.1386  0.1224 -0.3016
 9957TIP3   OH251285   3.777   1.887   5.300  0.2369  0.7110 -0.6637
 9957TIP3    H151286   3.853   1.940   5.274  0.2680  0.4040 -1.2144
 9957TIP3    H251287   3.737   1.936   5.372 -0.5562  2.2151 -2.0817
 9958TIP3   OH251288   2.039   3.259   4.002  0.3950  0.2495  0.7912
 9958TIP3    H151289   2.016   3.344   4.039 -1.0165  0.4228 -0.4349
 9958TIP3    H251290   2.130   3.269   3.975  0.1410  1.5048  0.3362
 9959TIP3   OH251291   3.953   2.805  15.732  0.3894 -0.1761 -0.3959
 9959TIP3    H151292   4.020   2.767  15.788  0.4812  0.0801 -0.3276
 9959TIP3    H251293   3.997   2.822  15.649  0.1400 -0.9474 -0.6824
 9960TIP3   OH251294   1.936   1.340  12.193 -0.3360 -0.2199 -0.2686
 9960TIP3    H151295   1.949   1.257  12.239  1.1948 -0.0024 -0.2554
 9960TIP3    H251296   1.843   1.342  12.170 -0.0414 -2.7944 -1.9021
 9961TIP3   OH251297   5.024   5.205   5.744 -0.2800  0.0091 -0.4390
 9961TIP3    H151298   5.104   5.186   5.794 -0.6288  1.7491  0.8443
 9961TIP3    H251299   5.034   5.157   5.662  2.5873  1.1102 -0.7595
 9962TIP3   OH251300   6.675   1.524   4.100  0.0053  0.0737  0.0310
 9962TIP3    H151301   6.744   1.532   4.034  0.0395 -1.5095 -0.1306
 9962TIP3    H251302   6.695   1.442   4.146 -1.3159  0.0102  0.5131
 9963TIP3   OH251303   0.177   5.865   1.715  0.3727  0.7473  0.9111
 9963TIP3    H151304   0.230   5.944   1.717 -1.1297  1.7996 -0.4580
 9963TIP3    H251305   0.227   5.804   1.661  1.7099  0.6035  2.2718
 9964TIP3   OH251306   3.437   6.169  15.250 -0.0563 -0.0077 -0.7605
 9964TIP3    H151307   3.502   6.214  15.196 -0.1369 -1.8566 -2.4447
 9964TIP3    H251308   3.480   6.088  15.278 -1.5427 -1.1565 -1.7182
 9965TIP3   OH251309   2.358   1.363   3.855 -0.1773  0.4146 -0.2564
 9965TIP3    H151310   2.363   1.313   3.773  0.2510 -0.5918  0.3886
 9965TIP3    H251311   2.380   1.453   3.828  0.5872 -0.0263 -1.1403
 9966TIP3   OH251312   4.441   4.382   3.747 -0.2152 -0.4582  0.2708
 9966TIP3    H151313   4.377   4.324   3.706  1.5196 -1.1050 -1.6582
 9966TIP3    H251314   4.392   4.461   3.769 -1.9471 -1.4611  0.0411
 9967TIP3   OH251315   5.161   1.265  15.499 -0.1157 -0.6273 -0.1784
 9967TIP3    H151316   5.083   1.210  15.497 -1.6237  1.4402 -0.3609
 9967TIP3    H251317   5.194   1.257  15.589 -1.4788 -0.2548  0.3665
 9968TIP3   OH251318   3.967   5.950   5.090  0.2223  0.5459  0.8990
 9968TIP3    H151319   3.978   5.926   4.998  1.5710 -0.2512  1.2503
 9968TIP3    H251320   3.893   5.897   5.121 -1.0217  1.7176 -0.0313
 9969TIP3   OH251321   6.669   1.479  16.964  0.3052  0.2616  0.7426
 9969TIP3    H151322   6.637   1.410  16.906 -1.5086  1.4945  0.2484
 9969TIP3    H251323   6.763   1.460  16.974  0.6470 -0.0153 -2.4973
 9970TIP3   OH251324   2.502   0.908   4.819  0.0570 -0.2612  0.1074
 9970TIP3    H151325   2.567   0.865   4.762 -0.4710 -1.4778  0.4031
 9970TIP3    H251326   2.420   0.901   4.770 -0.3936 -1.2833  0.9811
 9971TIP3   OH251327   6.209   3.787   0.834  0.3560 -0.0201 -0.3876
 9971TIP3    H151328   6.259   3.853   0.786  1.9276  0.2038  1.5308
 9971TIP3    H251329   6.123   3.788   0.792  1.9691 -0.5798 -3.8867
 9972TIP3   OH251330   4.864   5.929  16.174 -0.4172  0.1555 -0.2116
 9972TIP3    H151331   4.852   5.886  16.089  0.9137 -0.8027  0.0651
 9972TIP3    H251332   4.944   5.980  16.164 -0.5100  0.4015  0.3176
 9973TIP3   OH251333   5.591   3.906  16.180 -0.0842 -0.3092 -0.6166
 9973TIP3    H151334   5.563   3.839  16.243  1.3848 -0.8041 -0.4622
 9973TIP3    H251335   5.682   3.882  16.159  0.3294  1.4182 -0.8495
 9974TIP3   OH251336   0.566   3.616  10.733 -0.2695  0.3181  0.3792
 9974TIP3    H151337   0.478   3.624  10.769 -1.1013 -0.3911 -1.4185
 9974TIP3    H251338   0.597   3.706  10.723 -0.3246  0.5408  2.0632
 9975TIP3   OH251339   3.712   2.166  14.016 -0.3518 -0.2504  0.3686
 9975TIP3    H151340   3.770   2.177  14.091  1.3587 -1.2546 -0.7670
 9975TIP3    H251341   3.672   2.252  14.003  0.8616  0.4446  1.1935
 9976TIP3   OH251342   1.198   3.581  12.207 -0.5460 -0.8340  0.3732
 9976TIP3    H151343   1.116   3.539  12.232 -0.9211 -0.4892 -0.2447
 9976TIP3    H251344   1.232   3.527  12.136 -0.6131 -0.5620  0.1323
 9977TIP3   OH251345   1.956   2.053   0.139 -0.1054 -0.3989  0.0264
 9977TIP3    H151346   1.959   2.127   0.078  2.0615 -0.3988  0.1080
 9977TIP3    H251347   1.918   2.090   0.219 -2.6113 -0.3094 -1.1531
 9978TIP3   OH251348   0.810   5.215  10.343 -0.1201  0.7563 -0.5278
 9978TIP3    H151349   0.841   5.134  10.384 -0.8071 -0.2977 -2.0851
 9978TIP3    H251350   0.887   5.249  10.298 -0.3082 -0.0140 -1.4393
 9979TIP3   OH251351   4.587   0.581   1.905  0.1918 -0.1568 -0.3266
 9979TIP3    H151352   4.542   0.577   1.820 -1.2688  3.3479  0.1802
 9979TIP3    H251353   4.671   0.622   1.886 -0.2797  0.9542 -0.0570
 9980TIP3   OH251354   2.123   3.087   1.987  0.5266  0.2958  0.1562
 9980TIP3    H151355   2.139   3.120   1.898  0.8236 -1.7967 -0.5993
 9980TIP3    H251356   2.027   3.080   1.992  0.5198  0.1078 -0.1431
 9981TIP3   OH251357   3.208   6.426   2.231 -0.0481 -0.3058  0.1201
 9981TIP3    H151358   3.221   6.399   2.140  0.6927 -1.1525  0.4729
 9981TIP3    H251359   3.136   6.372   2.262 -0.1150 -0.2167  0.1209
 9982TIP3   OH251360   6.133   2.792   1.648  0.3761  0.3375 -0.2619
 9982TIP3    H151361   6.056   2.765   1.699  0.2665 -1.1552 -1.1879
 9982TIP3    H251362   6.098   2.815   1.562  0.9599 -0.2492 -0.6541
 9983TIP3   OH251363   5.379   2.326   2.192 -0.0922 -0.6773  0.9363
 9983TIP3    H151364   5.353   2.258   2.255  0.5319 -0.4098  1.5000
 9983TIP3    H251365   5.472   2.340   2.210 -0.0047 -0.3116  0.2141
 9984TIP3   OH251366   0.684   5.048  16.298 -0.3915 -0.7136  0.2466
 9984TIP3    H151367   0.678   5.092  16.214 -0.0996 -1.2516 -0.0609
 9984TIP3    H251368   0.620   4.977  16.293 -0.1975 -0.9004  0.3781
 9985TIP3   OH251369   4.786   3.190   4.457  0.1460 -0.0844 -0.4007
 9985TIP3    H151370   4.778   3.101   4.423 -0.5401 -0.2975  0.3162
 9985TIP3    H251371   4.881   3.203   4.466  0.2213 -1.0195  0.2165
 9986TIP3   OH251372   3.809   4.708   1.455  0.0412  0.4253 -0.5417
 9986TIP3    H151373   3.897   4.736   1.430 -0.4093  0.4904 -2.0969
 9986TIP3    H251374   3.751   4.778   1.423 -0.6279  0.0890 -0.0759
 9987TIP3   OH251375   5.693   3.479   4.440 -0.3502  0.1019 -0.3186
 9987TIP3    H151376   5.704   3.384   4.447 -1.0614  0.0469  0.0849
 9987TIP3    H251377   5.623   3.499   4.502  0.7575  1.0799  0.6358
 9988TIP3   OH251378   4.808   6.225   3.026  0.1501 -0.1608  0.1140
 9988TIP3    H151379   4.893   6.255   3.060 -0.9323  0.4035  2.4275
 9988TIP3    H251380   4.803   6.264   2.939  1.2373  1.8447  0.8957
 9989TIP3   OH251381   3.115   6.156  17.176  0.4820  0.1367 -0.2989
 9989TIP3    H151382   3.163   6.082  17.213  2.4634  0.8087 -1.3995
 9989TIP3    H251383   3.147   6.162  17.086 -1.7206  0.6157 -1.0614
 9990TIP3   OH251384   5.100   3.052  15.188  0.3290 -0.1929 -0.6011
 9990TIP3    H151385   5.011   3.017  15.183  0.8390 -1.8155  0.9936
 9990TIP3    H251386   5.093   3.126  15.248  0.3785 -1.5941  1.1961
 9991TIP3   OH251387   5.561   4.191  15.708 -0.5783  0.2421  0.3270
 9991TIP3    H151388   5.573   4.187  15.613  1.1621 -1.6837  0.6149
 9991TIP3    H251389   5.605   4.272  15.734 -0.4850  0.4314 -0.4125
 9992TIP3   OH251390   0.430   4.377   3.206 -0.1786 -0.3810  0.2340
 9992TIP3    H151391   0.470   4.292   3.228 -0.1474  0.0671  1.9716
 9992TIP3    H251392   0.350   4.380   3.257  0.1694  0.9391  0.7212
 9993TIP3   OH251393   5.064   4.505   0.750 -0.0532  0.3698 -0.0090
 9993TIP3    H151394   5.100   4.569   0.811  0.4580  1.3967 -1.3467
 9993TIP3    H251395   5.142   4.463   0.712 -0.3855 -1.1439  0.9475
 9994TIP3   OH251396   6.514   6.095   3.959  0.2910  0.0059  0.1763
 9994TIP3    H151397   6.449   6.102   3.889  0.9339  3.1124 -0.1981
 9994TIP3    H251398   6.462   6.090   4.040 -0.4555 -3.6719 -0.4541
 9995TIP3   OH251399   4.493   5.334   2.312 -0.3025  0.3855 -0.4900
 9995TIP3    H151400   4.556   5.335   2.384 -0.8529 -0.3962  0.0070
 9995TIP3    H251401   4.413   5.370   2.349 -0.5558  0.0833 -0.7414
 9996TIP3   OH251402   2.828   1.084   3.857 -0.4723  0.0932  0.9504
 9996TIP3    H151403   2.859   1.004   3.900  0.1329  0.4081  1.1174
 9996TIP3    H251404   2.904   1.115   3.808 -0.7982  0.3989  0.6348
 9997TIP3   OH251405   5.960   0.274  14.722  0.9351  0.3138 -0.7332
 9997TIP3    H151406   5.998   0.187  14.730  2.7216  0.7410 -4.0033
 9997TIP3    H251407   5.867   0.258  14.704  0.8408 -0.8281  0.6554
 9998TIP3   OH251408   2.358   3.529  13.043  0.1398  0.0743  0.1707
 9998TIP3    H151409   2.399   3.449  13.078 -0.9924 -0.6704 -0.1766
 9998TIP3    H251410   2.338   3.581  13.120  1.7614  0.4656  0.3457
 9999TIP3   OH251411   5.946   2.328  17.219  0.2009 -0.4471  0.1992
 9999TIP3    H151412   5.923   2.244  17.180 -2.5510 -0.3410  1.5492
 9999TIP3    H251413   5.874   2.387  17.195  1.5103  1.2421  0.2610
10000TIP3   OH251414   0.136   1.817  15.940 -0.4156  0.5245  0.3246
10000TIP3    H151415   0.105   1.762  15.868  3.8621 -1.7530  0.0339
10000TIP3    H251416   0.154   1.901  15.900  0.5134 -0.2801 -0.9787
10001TIP3   OH251417   3.022   5.927   3.325  0.2158  0.1814 -0.2951
10001TIP3    H151418   3.094   5.864   3.325 -0.2205 -0.3546 -1.8731
10001TIP3    H251419   3.062   6.009   3.295  0.2326 -0.0628 -0.9633
10002TIP3   OH251420   0.837   4.741   1.242 -0.4491  0.4036  0.0819
10002TIP3    H151421   0.898   4.743   1.316  0.2154  0.2874 -0.4499
10002TIP3    H251422   0.875   4.677   1.182 -1.8841 -0.7626  0.3992
10003TIP3   OH251423   5.433   1.051   2.986 -0.6846  0.2619  0.0844
10003TIP3    H151424   5.427   1.112   2.913 -1.3010  0.8011  0.5867
10003TIP3    H251425   5.357   1.070   3.041  0.8597  1.2642  1.9433
10004TIP3   OH251426   2.743   1.716  13.926  0.0138 -0.3714  0.3994
10004TIP3    H151427   2.811   1.726  13.992  0.8260  1.3997 -0.6720
10004TIP3    H251428   2.784   1.747  13.845 -1.0708 -2.1655 -0.8718
10005TIP3   OH251429   1.727   5.666  13.067 -0.3625 -0.4003  0.1491
10005TIP3    H151430   1.725   5.760  13.083  2.4189 -0.2160 -0.3681
10005TIP3    H251431   1.754   5.627  13.150 -1.4546 -0.7708  0.3486
10006TIP3   OH251432   2.477   5.137   5.825 -0.1238  0.5245  0.1989
10006TIP3    H151433   2.488   5.063   5.766  0.7958  1.5102 -0.8997
10006TIP3    H251434   2.436   5.205   5.772  1.6722  1.7895  0.3516
10007TIP3   OH251435   3.091   5.998   1.411 -0.6207 -0.0321 -0.1902
10007TIP3    H151436   3.150   5.922   1.418  1.2017  1.2491 -1.2476
10007TIP3    H251437   3.078   6.027   1.501  0.3417 -0.3287  0.0455
10008TIP3   OH251438   0.756   4.209  13.308 -0.4881 -0.3502 -0.0356
10008TIP3    H151439   0.676   4.241  13.350 -2.1669 -1.8139 -2.0353
10008TIP3    H251440   0.758   4.116  13.329  1.6696 -0.0026  1.4672
10009TIP3   OH251441   5.957   5.355  15.112 -0.1300  0.2649  0.6196
10009TIP3    H151442   6.007   5.319  15.038 -1.2929 -0.1904  0.0456
10009TIP3    H251443   5.903   5.424  15.073  0.8203  1.4936  1.4260
10010TIP3   OH251444   6.745   5.254   3.239  0.0103  0.4419 -0.4114
10010TIP3    H151445   6.685   5.238   3.166  1.1608 -0.9054 -1.0903
10010TIP3    H251446   6.790   5.335   3.216 -1.4044  1.3487  0.0037
10011TIP3   OH251447   3.756   0.929   0.558  0.9755 -0.2559  0.1864
10011TIP3    H151448   3.749   0.834   0.570  0.2227 -0.0812  1.1905
10011TIP3    H251449   3.848   0.948   0.574  1.3131 -0.9254 -0.8833
10012TIP3   OH251450   3.801   2.990   0.217  0.2315 -0.8195  0.4245
10012TIP3    H151451   3.859   2.949   0.153 -0.4917  0.5387 -1.1311
10012TIP3    H251452   3.842   2.971   0.301  2.1113 -1.1831 -0.5396
10013TIP3   OH251453   2.763   6.001   1.894  0.5400 -0.2980  0.1941
10013TIP3    H151454   2.700   5.950   1.946 -0.3939  0.5144 -0.1284
10013TIP3    H251455   2.811   6.052   1.958  1.0131 -1.0595  0.4605
10014TIP3   OH251456   6.779   5.786  16.717 -0.3939 -0.2750 -0.0935
10014TIP3    H151457   6.769   5.850  16.647 -1.1135 -0.5503 -0.2410
10014TIP3    H251458   6.705   5.727  16.707 -0.1809 -0.6556  0.5439
10015TIP3   OH251459   2.888   3.364   3.071  0.0896  0.2525  0.1344
10015TIP3    H151460   2.857   3.380   2.982 -0.8385  0.6385  0.5182
10015TIP3    H251461   2.939   3.442   3.093  0.8799 -0.1377 -0.2966
10016TIP3   OH251462   5.319   3.814  15.982 -0.5991 -0.1359 -0.2063
10016TIP3    H151463   5.316   3.749  16.053 -1.7789  0.6598  0.4912
10016TIP3    H251464   5.350   3.765  15.906  2.0514 -0.6868  1.1727
10017TIP3   OH251465   0.807   1.009   5.437 -0.5005  0.3424  0.1706
10017TIP3    H151466   0.782   0.925   5.398  0.5166 -0.0020  0.2421
10017TIP3    H251467   0.726   1.041   5.478 -0.9934 -0.4152 -0.1874
10018TIP3   OH251468   1.395   6.743   3.192 -0.4025  0.2079  0.2195
10018TIP3    H151469   1.456   6.794   3.245  0.5724 -0.7743  0.0680
10018TIP3    H251470   1.310   6.783   3.208  0.0590  0.6819  1.5712
10019TIP3   OH251471   2.703   0.708   1.625 -0.4913  0.7902  0.9761
10019TIP3    H151472   2.669   0.771   1.689 -0.4023  1.1292  0.6876
10019TIP3    H251473   2.787   0.744   1.598 -1.3765  1.6358 -0.7487
10020TIP3   OH251474   4.281   2.824   0.291 -0.2405 -0.2973  0.3593
10020TIP3    H151475   4.306   2.776   0.212 -2.4644 -1.5521  0.3838
10020TIP3    H251476   4.210   2.881   0.262  0.3122  0.7354  1.0213
10021TIP3   OH251477   6.288   5.510   3.411  0.1962 -0.6864 -0.1125
10021TIP3    H151478   6.297   5.605   3.398 -3.6363 -0.1180  0.7468
10021TIP3    H251479   6.330   5.494   3.495  0.8519  0.2779 -0.2471
10022TIP3   OH251480   4.139   6.112   0.096 -0.0569  0.2662 -0.0389
10022TIP3    H151481   4.148   6.198   0.137  0.3429  0.6737 -0.9853
10022TIP3    H251482   4.207   6.110   0.029 -0.4513 -0.5652 -0.4140
10023TIP3   OH251483   6.344   1.897   3.718  0.3653 -0.4547 -0.2895
10023TIP3    H151484   6.399   1.894   3.797 -0.5233 -1.6609  0.3040
10023TIP3    H251485   6.291   1.976   3.729  0.2277 -0.6324  0.3358
10024TIP3   OH251486   2.910   6.205  14.479  0.0642  0.0777  0.2184
10024TIP3    H151487   2.889   6.241  14.565  0.2033  1.7053 -0.4107
10024TIP3    H251488   3.005   6.189  14.482  0.0279 -0.0937  0.4484
10025TIP3   OH251489   1.708   0.521   4.319  0.3403  0.4862  0.6205
10025TIP3    H151490   1.776   0.533   4.385 -0.6651  0.1914  1.7276
10025TIP3    H251491   1.628   0.505   4.369 -0.4580  0.3393 -0.6667
10026TIP3   OH251492   4.772   0.126  15.343  0.6420 -0.0065 -0.0443
10026TIP3    H151493   4.767   0.178  15.262 -1.6240 -2.1733 -1.3540
10026TIP3    H251494   4.855   0.079  15.335  0.4354 -0.2112 -1.1386
10027TIP3   OH251495   3.105   0.115   5.976  0.0331 -0.1930  1.0332
10027TIP3    H151496   3.164   0.128   6.051  1.4779  1.5934 -0.3580
10027TIP3    H251497   3.123   0.027   5.946 -1.4371 -1.3971  3.5005
10028TIP3   OH251498   1.482   6.123  13.170  0.1584  0.0993 -0.1736
10028TIP3    H151499   1.406   6.139  13.227  0.4723 -1.0132  0.5726
10028TIP3    H251500   1.535   6.202  13.178 -0.4108  0.4532  0.1182
10029TIP3   OH251501   5.133   1.044  14.422  0.2149  0.3602  0.2845
10029TIP3    H151502   5.083   1.119  14.453  2.1015  0.1553  4.1341
10029TIP3    H251503   5.076   0.969  14.440  0.1614  0.4897  0.6647
10030TIP3   OH251504   5.265   6.053  10.270  0.3872  0.0478  0.4657
10030TIP3    H151505   5.189   6.047  10.212 -0.2253  2.0308  0.9972
10030TIP3    H251506   5.230   6.027  10.356  0.5272  0.1291  0.5459
10031TIP3   OH251507   1.596   5.589   0.718  0.3940 -0.0886  0.6490
10031TIP3    H151508   1.523   5.539   0.756 -3.1607  1.2939 -3.8124
10031TIP3    H251509   1.659   5.522   0.691  0.0711 -1.4395  3.1115
10032TIP3   OH251510   3.762   6.367  14.504  0.6625 -0.5825  0.1668
10032TIP3    H151511   3.724   6.281  14.518  0.6126 -0.5634  0.1509
10032TIP3    H251512   3.753   6.411  14.589 -2.4096  0.6131 -0.7010
10033TIP3   OH251513   1.021   5.662  11.702  0.4029  0.2061  0.3776
10033TIP3    H151514   1.065   5.577  11.698 -1.7775 -1.0313  1.7909
10033TIP3    H251515   1.020   5.684  11.795 -0.4655  1.0053  0.1894
10034TIP3   OH251516   5.297   5.337   2.524  0.2955 -0.2533  0.3488
10034TIP3    H151517   5.207   5.303   2.528 -0.1455  1.0180  1.4467
10034TIP3    H251518   5.331   5.304   2.441 -1.2195 -0.6689 -0.1262
10035TIP3   OH251519   4.604   2.477   0.036 -0.4342 -0.3893  0.2247
10035TIP3    H151520   4.617   2.517  -0.050  0.4719 -2.2463 -0.5328
10035TIP3    H251521   4.574   2.388   0.017 -0.6783 -0.6758  1.8389
10036TIP3   OH251522   6.707   6.351  14.761  0.2888 -0.2066  0.5370
10036TIP3    H151523   6.669   6.367  14.674  0.5695  1.9931  0.7864
10036TIP3    H251524   6.634   6.361  14.821  0.4959  0.2634  0.7109
10037TIP3   OH251525   0.246   5.898  15.190  0.5179  0.4119 -0.4289
10037TIP3    H151526   0.211   5.955  15.122  1.3898  2.2648  0.6418
10037TIP3    H251527   0.304   5.838  15.144 -1.3205 -0.4365 -1.7291
10038TIP3   OH251528   5.438   2.740  12.084  0.6753  0.1031  0.0318
10038TIP3    H151529   5.494   2.791  12.025 -0.3355  0.6379 -0.4758
10038TIP3    H251530   5.366   2.799  12.106 -0.1893 -0.8973 -0.0690
10039TIP3   OH251531   1.839   5.957  11.291  0.6992  0.0009 -0.2635
10039TIP3    H151532   1.836   5.865  11.266  1.2752 -0.2569  0.6189
10039TIP3    H251533   1.857   5.956  11.385 -0.1425  0.9984 -0.0874
10040TIP3   OH251534   4.342   2.065   0.462  0.0141 -0.3537  0.0113
10040TIP3    H151535   4.252   2.096   0.465 -1.3324 -3.9821 -0.5416
10040TIP3    H251536   4.382   2.099   0.542 -1.3134  2.7415 -0.5847
10041TIP3   OH251537   6.110   1.514   1.730 -0.2936 -0.0963  0.4004
10041TIP3    H151538   6.094   1.429   1.689 -1.9775  0.7884 -0.8468
10041TIP3    H251539   6.178   1.554   1.676 -1.6602  0.5771 -0.8481
10042TIP3   OH251540   0.675   5.894  15.013 -0.8839 -0.0047  0.0172
10042TIP3    H151541   0.718   5.814  15.044 -1.8479 -1.4370 -2.2002
10042TIP3    H251542   0.745   5.959  15.008  0.4924 -1.5143 -0.8266
10043TIP3   OH251543   2.963   2.942   3.578 -0.3362 -0.1574 -0.2348
10043TIP3    H151544   2.880   2.969   3.538 -0.1314  0.6406 -0.1245
10043TIP3    H251545   2.946   2.944   3.672 -0.2505 -0.1862 -0.2193
10044TIP3   OH251546   6.737   4.914   1.870 -0.0136 -0.7014  0.0189
10044TIP3    H151547   6.661   4.871   1.907 -1.0404  1.4610  0.4959
10044TIP3    H251548   6.703   4.964   1.796  1.0967 -0.4872 -0.3673
10045TIP3   OH251549   2.432   0.798  17.196 -0.4752  0.1355 -0.1979
10045TIP3    H151550   2.443   0.744  17.117  0.4883 -0.3324  0.2560
10045TIP3    H251551   2.444   0.737  17.268 -0.1616  0.8063  0.3182
10046TIP3   OH251552   0.178   4.356  10.921 -0.8644  0.1002 -0.0949
10046TIP3    H151553   0.160   4.263  10.907 -0.1669  0.0905 -0.9280
10046TIP3    H251554   0.114   4.382  10.988 -1.8498 -0.7003 -0.6928
10047TIP3   OH251555   5.237   6.010  11.684  0.3580  0.3234 -0.0582
10047TIP3    H151556   5.148   6.018  11.649  0.4999  0.5142 -0.3756
10047TIP3    H251557   5.239   5.923  11.725 -0.0669  0.4449  0.2186
10048TIP3   OH251558   0.809   2.491  11.915  0.0770 -0.0690  0.3031
10048TIP3    H151559   0.743   2.451  11.972 -1.4535  0.6855 -0.8829
10048TIP3    H251560   0.866   2.419  11.890 -0.3850 -0.7717  1.2504
10049TIP3   OH251561   5.879   6.588   4.988 -0.1598 -0.1997 -0.1472
10049TIP3    H151562   5.947   6.558   5.049  0.2451 -0.8141 -0.8820
10049TIP3    H251563   5.818   6.637   5.043  0.9274  0.4485  0.5105
10050TIP3   OH251564   2.130   4.001   4.835  0.2604  0.7254 -0.0643
10050TIP3    H151565   2.176   3.975   4.915  0.2116 -0.3453 -0.3861
10050TIP3    H251566   2.175   4.081   4.807  1.6104 -0.0325 -0.0965
10051TIP3   OH251567   4.672   6.324  13.553 -0.4631 -0.0631  0.1105
10051TIP3    H151568   4.639   6.242  13.589 -1.9977  0.6830  0.4504
10051TIP3    H251569   4.595   6.367  13.517  0.6476  0.3758 -1.7729
10052TIP3   OH251570   1.497   4.414   1.327 -0.0835 -0.2381 -0.3772
10052TIP3    H151571   1.558   4.468   1.377 -1.1186 -1.1061  1.9300
10052TIP3    H251572   1.552   4.359   1.273  1.2134 -1.0077  1.6595
10053TIP3   OH251573   0.296   1.209   2.374  0.2374  0.5025 -0.2762
10053TIP3    H151574   0.391   1.198   2.368  0.3013 -0.5516  2.0548
10053TIP3    H251575   0.280   1.299   2.346  1.8624  0.5111 -1.2164
10054TIP3   OH251576   4.295   1.543   3.740  0.2483 -0.0711  0.4761
10054TIP3    H151577   4.271   1.476   3.805 -0.2510 -0.4255 -0.0671
10054TIP3    H251578   4.314   1.493   3.661 -0.6415  0.4634 -0.0832
10055TIP3   OH251579   3.325   4.848  11.914  0.2100 -0.3121  0.1784
10055TIP3    H151580   3.240   4.832  11.873 -0.5045  1.6154  0.8745
10055TIP3    H251581   3.307   4.846  12.008  0.8874  0.3232  0.3256
10056TIP3   OH251582   4.457   5.525  11.446  0.4284 -0.8033 -0.4271
10056TIP3    H151583   4.403   5.587  11.497  0.3360  0.4516 -2.0080
10056TIP3    H251584   4.404   5.446  11.442  0.4779 -0.9686  1.5103
10057TIP3   OH251585   4.269   4.116  11.176 -0.1384  0.2370 -0.0067
10057TIP3    H151586   4.329   4.191  11.181 -0.1937  0.4642 -2.2475
10057TIP3    H251587   4.213   4.135  11.100 -1.8128 -0.8784  0.9227
10058TIP3   OH251588   1.232   4.994   5.470 -0.7041  0.5481  0.6192
10058TIP3    H151589   1.313   4.953   5.441  0.0500  1.4846  1.3687
10058TIP3    H251590   1.215   5.063   5.406 -2.7694 -1.8081 -1.4973
10059TIP3   OH251591   2.664   6.572  11.350 -0.1402  0.3465  0.1595
10059TIP3    H151592   2.749   6.529  11.355 -0.6479 -0.7117 -0.3027
10059TIP3    H251593   2.605   6.507  11.313 -1.8887 -0.0488  3.4375
10060TIP3   OH251594   5.258   4.461  13.854 -0.4633  0.1808  0.0936
10060TIP3    H151595   5.222   4.514  13.782 -1.5683 -1.0969 -0.3105
10060TIP3    H251596   5.181   4.430  13.902  0.1675 -1.1651  0.2540
10061TIP3   OH251597   0.323   4.079   0.083  0.8243 -0.4173 -0.0388
10061TIP3    H151598   0.308   4.152   0.023  1.3646 -0.6906 -0.5071
10061TIP3    H251599   0.301   4.115   0.169 -0.9306 -0.3277 -0.5035
10062TIP3   OH251600   6.143   1.486  16.461  0.4281  0.0226  0.2345
10062TIP3    H151601   6.206   1.528  16.403  2.1125 -1.6502  0.8155
10062TIP3    H251602   6.069   1.547  16.464  0.4429  0.2897 -3.3488
10063TIP3   OH251603   4.182   3.239   3.509 -0.0164  0.0926  0.4925
10063TIP3    H151604   4.103   3.194   3.539 -1.1490  0.5911 -1.6383
10063TIP3    H251605   4.195   3.208   3.419  1.5563  0.9164  0.4084
10064TIP3   OH251606   6.454   4.723   2.417 -0.0673 -0.0876 -0.2362
10064TIP3    H151607   6.370   4.733   2.461 -0.8443 -0.5274 -1.5862
10064TIP3    H251608   6.504   4.665   2.474 -2.3129 -3.4697 -1.5357
10065TIP3   OH251609   0.492   0.997   4.255  0.3655  0.3514  0.4078
10065TIP3    H151610   0.425   0.958   4.312  0.2920  1.4834  1.1027
10065TIP3    H251611   0.554   1.039   4.316  1.8094 -0.8191 -0.2093
10066TIP3   OH251612   2.933   5.854  13.048 -0.0964  0.0912 -0.2982
10066TIP3    H151613   2.992   5.854  13.123  0.1743 -3.6357 -0.3875
10066TIP3    H251614   2.990   5.863  12.972 -0.0658  0.6691 -0.2093
10067TIP3   OH251615   2.876   5.649   5.444  0.1902  0.4603  0.1700
10067TIP3    H151616   2.893   5.713   5.513 -2.0088  1.4859 -0.1869
10067TIP3    H251617   2.922   5.684   5.368  0.1573  0.8904  0.3457
10068TIP3   OH251618   2.556   6.694   6.598  0.0989  0.1135 -0.1312
10068TIP3    H151619   2.554   6.605   6.633  0.5898  0.1851  0.0661
10068TIP3    H251620   2.504   6.688   6.517 -2.4615  0.3220  1.4476
10069TIP3   OH251621   2.994   3.768   1.925 -0.7319 -0.0288  0.4542
10069TIP3    H151622   3.040   3.684   1.926 -0.4359  0.0894 -1.3337
10069TIP3    H251623   2.902   3.745   1.937 -0.9267 -0.8485 -2.1766
10070TIP3   OH251624   4.145   1.912   5.740 -0.2445 -0.3612 -0.2959
10070TIP3    H151625   4.117   1.831   5.785 -1.1032 -0.2862 -0.6732
10070TIP3    H251626   4.099   1.982   5.787  0.3903 -0.1018 -0.0601
10071TIP3   OH251627   0.412   3.866  11.685  0.2138 -0.8995  0.1456
10071TIP3    H151628   0.465   3.838  11.760  1.9519  0.8589 -0.3920
10071TIP3    H251629   0.425   3.797  11.620  2.2788 -0.2551 -0.1700
10072TIP3   OH251630   6.158   2.117   0.410 -0.4046  0.3310 -0.0643
10072TIP3    H151631   6.145   2.027   0.382  1.6367  0.2235 -0.7524
10072TIP3    H251632   6.099   2.168   0.354 -3.4532 -0.7412  2.0134
10073TIP3   OH251633   3.471   5.394   0.430 -0.8752 -0.4267  0.1364
10073TIP3    H151634   3.543   5.361   0.376 -1.3650 -1.6896  0.2487
10073TIP3    H251635   3.512   5.418   0.513 -0.9214 -3.2428  1.0129
10074TIP3   OH251636   4.433   3.393  13.670  0.2377  0.1214  0.0097
10074TIP3    H151637   4.383   3.382  13.750  0.3287 -1.2691 -0.1138
10074TIP3    H251638   4.387   3.341  13.605  1.2681 -0.3465 -0.3598
10075TIP3   OH251639   2.190   0.753   1.553  0.2718  0.2166 -0.8244
10075TIP3    H151640   2.212   0.846   1.557  0.4170  0.1114  2.2574
10075TIP3    H251641   2.095   0.751   1.540  0.3084  0.7908 -1.1975
10076TIP3   OH251642   3.162   2.902   3.185 -0.2677 -0.5510 -0.2118
10076TIP3    H151643   3.173   2.974   3.246  0.2391  0.1939 -1.1658
10076TIP3    H251644   3.072   2.872   3.199 -0.5513  0.4071  0.0464
10077TIP3   OH251645   0.531   2.898  15.737 -0.1851  0.5294 -0.3945
10077TIP3    H151646   0.521   2.983  15.694 -1.3245  0.3251 -0.5357
10077TIP3    H251647   0.551   2.920  15.829 -1.7314  0.9518 -0.1458
10078TIP3   OH251648   2.627   4.860   1.268 -0.2931 -0.3404 -0.5780
10078TIP3    H151649   2.710   4.820   1.243 -0.4962 -1.3783  0.4026
10078TIP3    H251650   2.563   4.824   1.207 -0.4024 -1.1752  0.0358
10079TIP3   OH251651   2.604   2.970   0.629 -0.2162 -0.8529  0.4050
10079TIP3    H151652   2.544   2.998   0.559 -0.6131 -0.2688  0.9692
10079TIP3    H251653   2.679   3.029   0.621 -0.1705 -0.9188  0.3459
10080TIP3   OH251654   6.386   5.566   5.378  0.3812 -0.2989  0.0912
10080TIP3    H151655   6.298   5.538   5.404 -0.1509  0.5688 -0.7171
10080TIP3    H251656   6.397   5.531   5.290  0.9074 -0.5461  0.2580
10081TIP3   OH251657   4.952   1.623  12.381 -0.1530  0.2707 -0.0890
10081TIP3    H151658   4.898   1.606  12.304 -1.4954 -0.7461  1.0580
10081TIP3    H251659   5.041   1.599  12.354 -0.5205  0.4152 -1.4665
10082TIP3   OH251660   1.823   4.013  14.138  0.4681  0.3336 -0.2325
10082TIP3    H151661   1.810   3.939  14.198  0.3707 -0.3283 -1.0672
10082TIP3    H251662   1.843   3.972  14.054 -1.8755  1.1911 -1.2601
10083TIP3   OH251663   1.047   0.196  15.619 -0.1660  0.4459  0.1823
10083TIP3    H151664   1.025   0.139  15.545 -0.4465  1.5588 -0.5943
10083TIP3    H251665   0.964   0.234  15.646  0.1332  1.0674  0.2204
10084TIP3   OH251666   2.358   3.818  16.089 -0.2457 -0.6976  0.6003
10084TIP3    H151667   2.423   3.756  16.121  0.3430  1.6412  4.2484
10084TIP3    H251668   2.276   3.791  16.131 -0.6091 -0.7558 -0.1358
10085TIP3   OH251669   5.827   4.396   2.971  0.2750 -0.5050  0.2272
10085TIP3    H151670   5.837   4.303   2.951  2.2396  0.3070 -2.8314
10085TIP3    H251671   5.738   4.417   2.945  0.6882 -0.9622 -1.6343
10086TIP3   OH251672   3.856   4.042  11.648 -0.0936 -0.4932  0.6703
10086TIP3    H151673   3.762   4.041  11.633  0.0422 -0.2479 -0.2057
10086TIP3    H251674   3.866   4.008  11.737 -1.1389  1.4493  1.5503
10087TIP3   OH251675   3.293   1.014   4.145 -0.4342  0.3499  0.1697
10087TIP3    H151676   3.323   0.961   4.218  0.9288  1.4912  0.4510
10087TIP3    H251677   3.227   1.072   4.183 -2.8292 -1.9096 -0.3778
10088TIP3   OH251678   0.365   5.386  14.005  0.3295  0.1703  0.4396
10088TIP3    H151679   0.316   5.351  13.930  2.5569 -0.8153 -0.5866
10088TIP3    H251680   0.444   5.424  13.966  1.2738  0.1094  2.2476
10089TIP3   OH251681   5.477   5.704   3.323 -0.0648 -0.0260 -0.3583
10089TIP3    H151682   5.526   5.700   3.405  0.4061  1.2049 -0.5699
10089TIP3    H251683   5.511   5.631   3.272 -2.4238 -2.6303  1.6275
10090TIP3   OH251684   5.050   2.520   2.952 -0.0242  0.0624  0.4004
10090TIP3    H151685   5.104   2.493   2.879  0.5368  1.7387  0.1732
10090TIP3    H251686   5.112   2.553   3.017 -0.6752  0.7973  0.6567
10091TIP3   OH251687   2.523   4.139   2.310  0.4276  0.0977  0.2075
10091TIP3    H151688   2.463   4.152   2.384  1.2405 -1.4464  1.1703
10091TIP3    H251689   2.465   4.116   2.237 -0.2351 -0.5298  0.9134
10092TIP3   OH251690   4.782   1.767  13.777  0.1350 -0.3347 -0.0127
10092TIP3    H151691   4.833   1.759  13.696 -0.0174  1.2493 -0.2902
10092TIP3    H251692   4.759   1.677  13.800  1.8850 -0.9697 -0.6347
10093TIP3   OH251693   4.605   2.624   0.940  0.2711  0.5993  0.3513
10093TIP3    H151694   4.542   2.653   0.874 -0.0172  1.0291  0.8157
10093TIP3    H251695   4.588   2.679   1.016  1.2689  0.7737  0.4560
10094TIP3   OH251696   5.463   2.167   0.549  0.0481  0.3200 -0.2749
10094TIP3    H151697   5.450   2.233   0.617 -0.3285  1.5268 -1.4869
10094TIP3    H251698   5.517   2.211   0.483 -0.7504 -0.3623 -1.3949
10095TIP3   OH251699   2.281   2.855   3.463  0.1569 -0.0908 -0.2736
10095TIP3    H151700   2.286   2.872   3.558  0.8530 -2.6666  0.1874
10095TIP3    H251701   2.365   2.886   3.429  0.6885 -0.8905  0.2780
10096TIP3   OH251702   1.813   0.979   5.032 -0.4806  0.2598 -0.7166
10096TIP3    H151703   1.848   1.041   5.096 -0.2991  0.9022 -1.4292
10096TIP3    H251704   1.760   1.033   4.973 -1.4724 -0.4873 -0.5122
10097TIP3   OH251705   4.734   3.007   5.501 -0.0266  0.0333 -0.0497
10097TIP3    H151706   4.736   2.913   5.521  0.0205 -0.1794 -1.0004
10097TIP3    H251707   4.786   3.015   5.421 -3.1177  0.3131 -2.1259
10098TIP3   OH251708   2.133   0.602  11.901  0.2775 -0.3101  0.7870
10098TIP3    H151709   2.174   0.680  11.862  1.3517 -1.4883 -0.5020
10098TIP3    H251710   2.206   0.555  11.941 -0.3090 -0.8614  1.2039
10099TIP3   OH251711   1.505   3.290   1.839  0.2090 -0.1073 -0.5764
10099TIP3    H151712   1.550   3.233   1.777 -1.2270  0.3438 -2.0745
10099TIP3    H251713   1.557   3.370   1.841  1.2124 -0.7692  0.1307
10100TIP3   OH251714   3.798   6.262   2.176  0.9802 -0.5160 -0.0927
10100TIP3    H151715   3.892   6.250   2.163  1.1715  0.7462  0.0814
10100TIP3    H251716   3.791   6.337   2.235 -0.1315 -0.6884  0.0089
10101TIP3   OH251717   0.809   2.544   5.552 -0.1997  0.2001 -0.1347
10101TIP3    H151718   0.721   2.517   5.526 -0.1602  0.2366 -0.3083
10101TIP3    H251719   0.867   2.483   5.508 -0.1563 -0.1329  0.3779
10102TIP3   OH251720   0.247   6.303  14.463 -0.0772 -0.1797  0.0838
10102TIP3    H151721   0.152   6.298  14.465 -0.1120 -0.3055 -1.5651
10102TIP3    H251722   0.271   6.277  14.374  1.4769  0.1475  0.3935
10103TIP3   OH251723   6.284   5.823  10.698 -0.2809 -0.1417  0.3384
10103TIP3    H151724   6.353   5.758  10.687  0.1849  0.1999  1.1312
10103TIP3    H251725   6.331   5.903  10.722 -0.8922  0.3140  0.0201
10104TIP3   OH251726   1.813   4.786  11.717  0.4167 -0.0299 -0.2146
10104TIP3    H151727   1.745   4.721  11.736  1.0488 -0.6670 -0.1229
10104TIP3    H251728   1.830   4.828  11.800 -0.3664  0.6261 -0.3776
10105TIP3   OH251729   4.837   2.235  11.519  0.2792 -0.0961 -0.0553
10105TIP3    H151730   4.817   2.317  11.565  0.9208  0.3710 -0.5885
10105TIP3    H251731   4.866   2.264  11.432  3.8863 -0.7130  0.8870
10106TIP3   OH251732   5.047   6.601   6.348  0.0371  0.1189 -0.2141
10106TIP3    H151733   5.103   6.539   6.395 -0.5387 -1.6393 -1.7566
10106TIP3    H251734   4.959   6.580   6.378 -0.0356  1.1209  0.2751
10107TIP3   OH251735   1.387   4.020   5.929  0.3572  0.4272 -0.2142
10107TIP3    H151736   1.295   4.010   5.955  0.4488 -0.1712 -0.1127
10107TIP3    H251737   1.430   4.056   6.007  0.6423 -1.4195  0.5165
10108TIP3   OH251738   4.711   2.878  13.331  0.3772  0.2799 -0.1900
10108TIP3    H151739   4.775   2.919  13.273  1.6454 -0.6303  0.5378
10108TIP3    H251740   4.752   2.796  13.359 -0.4409  0.4071  1.5043
10109TIP3   OH251741   3.519   0.927  12.043  0.0970  0.6772  0.0209
10109TIP3    H151742   3.506   0.911  11.950 -0.6084  0.1357  0.1960
10109TIP3    H251743   3.520   0.839  12.082  0.5654  0.8918  0.4982
10110TIP3   OH251744   6.646   1.757   6.386 -0.5869 -0.0466 -0.2927
10110TIP3    H151745   6.733   1.717   6.394 -0.2611  0.8735  0.7677
10110TIP3    H251746   6.647   1.832   6.445 -2.8977 -1.3817  1.5220
10111TIP3   OH251747   5.167   6.392  12.513 -0.0548 -0.2092 -0.0027
10111TIP3    H151748   5.203   6.476  12.486  2.3963 -1.1517  0.2409
10111TIP3    H251749   5.207   6.328  12.454 -1.3694 -1.3035  0.2596
10112TIP3   OH251750   0.876   0.371  16.380 -0.1624 -0.2682  0.5585
10112TIP3    H151751   0.827   0.446  16.346 -1.4537 -1.0969  0.5658
10112TIP3    H251752   0.965   0.384  16.348 -0.9063  0.0207 -1.4546
10113TIP3   OH251753   2.302   5.351  16.619 -0.0837  0.2048  0.3824
10113TIP3    H151754   2.396   5.358  16.600 -0.1020  1.9756  0.8636
10113TIP3    H251755   2.293   5.269  16.667  1.5439  1.0395  2.1872
10114TIP3   OH251756   5.894   2.891   5.163 -0.0873  0.3642 -0.5143
10114TIP3    H151757   5.906   2.962   5.225  0.8273  1.0326 -1.4348
10114TIP3    H251758   5.863   2.934   5.083  0.4534 -0.2654 -1.0686
10115TIP3   OH251759   1.250   0.079  12.560 -0.3304  0.3687 -0.2409
10115TIP3    H151760   1.292   0.012  12.614 -0.9688 -0.2327 -0.4731
10115TIP3    H251761   1.214   0.030  12.485 -0.8373  0.9632 -0.3897
10116TIP3   OH251762   4.674   0.611  15.267  0.2237 -0.1399 -0.1335
10116TIP3    H151763   4.617   0.610  15.343  2.3565 -0.6117  1.5154
10116TIP3    H251764   4.702   0.519  15.257  1.6202  0.2815 -0.1866
10117TIP3   OH251765   5.109   2.415  12.969 -0.0600 -0.6327 -0.2228
10117TIP3    H151766   5.082   2.492  12.920  2.8480  0.2014 -0.5928
10117TIP3    H251767   5.070   2.341  12.922 -1.2208  0.4794 -1.0064
10118TIP3   OH251768   6.685   4.208  11.454  0.0670  0.5531 -0.0071
10118TIP3    H151769   6.746   4.211  11.380  0.0522  0.4248 -0.0258
10118TIP3    H251770   6.598   4.202  11.413 -0.2025  3.7308 -0.0596
10119TIP3   OH251771   4.727   3.405  17.104 -0.1113  0.6279  0.5504
10119TIP3    H151772   4.752   3.318  17.074  0.1935  1.3969 -1.4882
10119TIP3    H251773   4.699   3.392  17.195  1.6533 -1.2733  0.8494
10120TIP3   OH251774   2.101   0.890  16.115  0.6607 -0.4871 -0.1760
10120TIP3    H151775   2.078   0.928  16.199  0.8802  0.6448 -0.6149
10120TIP3    H251776   2.057   0.805  16.114 -1.7691  0.7398 -0.1566
10121TIP3   OH251777   1.693   2.143   4.719 -0.4104  0.2109 -0.4329
10121TIP3    H151778   1.745   2.113   4.644  0.9993 -0.1626  0.6693
10121TIP3    H251779   1.630   2.072   4.734  0.1376 -0.2894 -0.4734
10122TIP3   OH251780   2.402   4.749   2.297 -0.0364 -0.2805 -0.0457
10122TIP3    H151781   2.470   4.806   2.333  0.1026 -1.0566  0.9582
10122TIP3    H251782   2.355   4.804   2.234 -0.4105  1.1936  1.4763
10123TIP3   OH251783   5.127   5.034  11.233  0.8034  0.2516  0.2975
10123TIP3    H151784   5.161   5.017  11.145 -0.0835  0.1057 -0.0228
10123TIP3    H251785   5.179   4.978  11.290  0.4879 -0.6714 -0.3014
10124TIP3   OH251786   2.371   1.843  14.811  0.1780 -0.3451 -0.2763
10124TIP3    H151787   2.410   1.903  14.747  3.0823 -0.0650  1.6529
10124TIP3    H251788   2.361   1.895  14.890 -0.4659 -1.5141  0.4230
10125TIP3   OH251789   0.397   6.427  11.722  0.1348  0.0365  0.6310
10125TIP3    H151790   0.451   6.501  11.694  2.0842 -1.7771 -0.6478
10125TIP3    H251791   0.324   6.425  11.660  1.0461 -0.1805 -0.4457
10126TIP3   OH251792   1.601   6.299   1.428 -0.0465  0.2341 -0.3468
10126TIP3    H151793   1.686   6.262   1.404  0.0160  0.9675 -1.2727
10126TIP3    H251794   1.544   6.275   1.355 -0.1930  1.3095 -0.5920
10127TIP3   OH251795   2.659   1.222  10.617 -0.3674 -0.3320 -0.0680
10127TIP3    H151796   2.694   1.227  10.706 -0.4444 -0.5598 -0.0221
10127TIP3    H251797   2.652   1.313  10.588 -0.1235 -0.2692  0.0743
10128TIP3   OH251798   5.885   4.475   4.021  0.4428 -0.0300  0.5513
10128TIP3    H151799   5.971   4.516   4.023 -0.2929  1.5529  1.0506
10128TIP3    H251800   5.878   4.430   4.105  0.0955  1.3362  1.2668
10129TIP3   OH251801   5.422   2.650  11.691  0.0792  0.0465 -0.4329
10129TIP3    H151802   5.437   2.572  11.744  0.3215  0.0597 -0.4810
10129TIP3    H251803   5.496   2.652  11.630  0.9098  1.1811  0.5983
10130TIP3   OH251804   0.863   4.375  10.923 -0.1616  0.2553  0.6625
10130TIP3    H151805   0.820   4.344  11.003 -1.5237  0.1114 -0.1172
10130TIP3    H251806   0.796   4.367  10.855  1.1726 -0.2101 -0.6287
10131TIP3   OH251807   0.523   4.736   0.567  0.3350  0.5749 -0.6203
10131TIP3    H151808   0.488   4.734   0.656 -1.1077 -0.3512 -1.1948
10131TIP3    H251809   0.548   4.646   0.549 -0.9570  0.4433 -1.7672
10132TIP3   OH251810   1.953   4.924   5.493 -0.2890  0.2422 -0.1804
10132TIP3    H151811   2.011   4.965   5.430 -0.7714  1.4034  0.1272
10132TIP3    H251812   1.893   4.871   5.440  0.4126 -0.1748 -0.5654
10133TIP3   OH251813   0.821   0.114  11.339  0.5147 -0.0569  0.0032
10133TIP3    H151814   0.780   0.198  11.317  1.9739  0.9918  1.1571
10133TIP3    H251815   0.811   0.061  11.260 -0.8884  1.0167 -0.5642
10134TIP3   OH251816   0.566   4.908   4.548  0.2978 -0.6835 -0.0105
10134TIP3    H151817   0.626   4.847   4.590  2.0111 -0.9670 -2.7532
10134TIP3    H251818   0.619   4.986   4.532  0.4641 -1.4351 -3.7186
10135TIP3   OH251819   1.110   3.421  16.150 -0.1110 -0.0087  0.0347
10135TIP3    H151820   1.043   3.382  16.094 -2.0335 -1.5185  3.2786
10135TIP3    H251821   1.092   3.515  16.147 -1.8262 -0.3297  0.1712
10136TIP3   OH251822   1.143   6.339  14.197 -0.4032  0.2496 -0.0607
10136TIP3    H151823   1.082   6.407  14.168 -0.4637 -0.3864 -1.4654
10136TIP3    H251824   1.125   6.265  14.140  1.5159 -0.0245 -0.3353
10137TIP3   OH251825   2.291   3.079  14.793  0.3180 -0.0362 -0.1426
10137TIP3    H151826   2.219   3.053  14.850  0.4670  0.9945  0.5311
10137TIP3    H251827   2.258   3.156  14.746  0.5793 -0.2360 -0.6542
10138TIP3   OH251828   5.244   0.960   0.605  0.8382 -0.4675  0.0635
10138TIP3    H151829   5.245   1.024   0.535  3.1608 -1.0759 -0.4844
10138TIP3    H251830   5.274   0.879   0.564  0.9636 -1.1475  1.4610
10139TIP3   OH251831   3.611   0.211  11.427  0.0372  0.1579 -0.0239
10139TIP3    H151832   3.658   0.247  11.503  1.2550  0.6381 -0.9932
10139TIP3    H251833   3.612   0.282  11.362 -0.7808 -0.3396 -0.5910
10140TIP3   OH251834   3.126   0.521  13.646 -0.3305 -0.0249  0.2883
10140TIP3    H151835   3.193   0.589  13.649 -0.6239  0.3953 -1.6572
10140TIP3    H251836   3.092   0.517  13.735  1.0129  1.0282  0.8788
10141TIP3   OH251837   5.634   5.735  12.943  0.5861  0.1981 -0.2097
10141TIP3    H151838   5.549   5.727  12.986  1.6818  0.1474  2.0076
10141TIP3    H251839   5.650   5.649  12.904 -0.9232  0.5796 -1.7144
10142TIP3   OH251840   6.623   2.909  16.093  0.3446  0.3128  0.4488
10142TIP3    H151841   6.695   2.919  16.030 -0.5915 -0.7590 -0.8057
10142TIP3    H251842   6.584   2.824  16.071 -0.9519  0.6315  1.4903
10143TIP3   OH251843   5.778   1.396  11.875  0.0105 -0.2223 -0.5094
10143TIP3    H151844   5.801   1.373  11.965  1.0948  0.6486 -0.5538
10143TIP3    H251845   5.719   1.326  11.846 -0.7444 -0.2426  1.0457
10144TIP3   OH251846   3.429   6.663   3.907 -0.0373 -0.1877 -0.4398
10144TIP3    H151847   3.355   6.718   3.882 -0.6011 -1.1204 -0.8443
10144TIP3    H251848   3.411   6.639   3.998 -0.8641 -1.4276 -0.9272
10145TIP3   OH251849   2.172   0.009   2.316  0.2443  0.1821 -0.0218
10145TIP3    H151850   2.111   0.053   2.376 -1.6565 -2.9856  0.5058
10145TIP3    H251851   2.258   0.019   2.357 -0.1756  3.0855  0.2021
10146TIP3   OH251852   5.749   3.241   3.326 -0.2893 -0.2195 -0.5267
10146TIP3    H151853   5.775   3.158   3.286 -0.2785 -0.3426 -0.2676
10146TIP3    H251854   5.655   3.233   3.340 -0.2560 -0.2646 -0.3269
10147TIP3   OH251855   4.817   1.953  16.703 -0.4577  0.3089 -0.3347
10147TIP3    H151856   4.891   1.928  16.759 -0.0312  0.4370 -0.8395
10147TIP3    H251857   4.752   1.989  16.764 -0.2262 -0.0829  0.1420
10148TIP3   OH251858   4.881   5.848   5.112  0.3950 -0.2602 -0.3312
10148TIP3    H151859   4.912   5.864   5.201  0.7322 -0.1680 -0.4634
10148TIP3    H251860   4.816   5.916   5.097  0.5743 -0.0719 -0.2680
10149TIP3   OH251861   2.290   4.118  12.286 -0.4124  0.2065  0.5827
10149TIP3    H151862   2.326   4.029  12.288  0.3884  0.4546 -1.7174
10149TIP3    H251863   2.195   4.105  12.293 -0.4801 -1.0027 -2.1021
10150TIP3   OH251864   4.110   5.854  16.677 -0.2400 -0.5188 -0.0989
10150TIP3    H151865   4.043   5.860  16.745 -0.6723 -2.3491 -0.3381
10150TIP3    H251866   4.068   5.887  16.598  0.5997  2.6264  0.7191
10151TIP3   OH251867   5.965   3.928  14.922 -0.3927 -0.1643  0.2156
10151TIP3    H151868   5.913   3.848  14.932  0.0827 -0.5426 -0.3168
10151TIP3    H251869   6.051   3.897  14.893 -0.5908  0.6314 -1.2542
10152TIP3   OH251870   6.787   1.656  12.727 -0.4599 -0.4381  0.6053
10152TIP3    H151871   6.761   1.719  12.661  1.4920  0.2926  0.5019
10152TIP3    H251872   6.704   1.624  12.764 -1.5338 -0.0872 -1.4300
10153TIP3   OH251873   4.972   0.468  12.376  0.1014 -0.2258  0.0479
10153TIP3    H151874   5.062   0.467  12.342  0.1980 -2.2718  0.2918
10153TIP3    H251875   4.922   0.517  12.310  1.6026  1.9879  0.5043
10154TIP3   OH251876   5.067   3.919   0.530 -0.5230  0.1240 -0.5195
10154TIP3    H151877   5.019   3.929   0.447 -1.5555  1.8122  0.2498
10154TIP3    H251878   5.158   3.935   0.507 -0.7437  0.1682 -1.4029
10155TIP3   OH251879   3.818   5.590   0.554 -0.2096  0.6307 -0.1521
10155TIP3    H151880   3.731   5.594   0.593  0.8415  0.5876  2.2902
10155TIP3    H251881   3.803   5.560   0.464 -2.4878 -1.6360  0.9285
10156TIP3   OH251882   3.396   3.033   1.545 -0.0082 -0.0858  0.0421
10156TIP3    H151883   3.342   2.970   1.498 -1.0524  0.9721 -0.2199
10156TIP3    H251884   3.360   3.035   1.634  1.7891 -1.8831  0.8400
10157TIP3   OH251885   3.914   2.479  14.960 -0.3885 -0.3297 -0.4434
10157TIP3    H151886   4.008   2.486  14.948 -0.1471  1.5883  2.0937
10157TIP3    H251887   3.879   2.560  14.923 -1.2854 -1.8306 -3.0317
10158TIP3   OH251888   6.249   5.221   6.464  0.5394 -0.1130 -0.2588
10158TIP3    H151889   6.235   5.181   6.378 -0.3573 -0.6836  0.1474
10158TIP3    H251890   6.293   5.304   6.445 -2.2945  1.1511 -1.4953
10159TIP3   OH251891   6.717   3.529   4.729  1.0704 -0.4429 -0.1778
10159TIP3    H151892   6.727   3.443   4.768  1.0526 -0.7537 -0.8517
10159TIP3    H251893   6.704   3.588   4.803 -0.1710 -1.1928  0.2222
10160TIP3   OH251894   4.959   0.473  13.884 -0.3285  0.0040  0.3908
10160TIP3    H151895   5.038   0.476  13.830 -0.6862 -0.6520 -0.1799
10160TIP3    H251896   4.941   0.564  13.905  0.0186  0.2378 -0.3015
10161TIP3   OH251897   3.927   0.739  15.562 -0.1922 -0.0470 -0.3321
10161TIP3    H151898   3.932   0.834  15.553 -0.6830  0.0481  0.3237
10161TIP3    H251899   3.941   0.723  15.655 -2.9678 -0.3842  0.0645
10162TIP3   OH251900   1.527   0.794  15.433  0.7029 -0.5567 -0.2652
10162TIP3    H151901   1.585   0.724  15.464  1.8240 -0.7670 -2.6679
10162TIP3    H251902   1.513   0.774  15.340 -1.1038  0.9624 -0.3507
10163TIP3   OH251903   6.068   5.226   1.499 -0.0124  0.3019 -0.0359
10163TIP3    H151904   5.976   5.213   1.521 -0.2896  2.3774  0.1231
10163TIP3    H251905   6.068   5.247   1.406  0.3940 -0.6476 -0.2516
10164TIP3   OH251906   6.655   3.255   3.734 -0.4236  0.0758  0.1233
10164TIP3    H151907   6.580   3.287   3.785  0.4840  2.1682  0.2321
10164TIP3    H251908   6.620   3.240   3.647 -1.3838 -0.8529  0.6543
10165TIP3   OH251909   1.123   1.330   1.836  0.2401  0.1697 -0.5462
10165TIP3    H151910   1.048   1.277   1.809  0.1001  1.1706 -2.1637
10165TIP3    H251911   1.176   1.270   1.889  0.8578 -2.1093 -3.5869
10166TIP3   OH251912   5.196   6.666  12.670 -0.5974 -0.1006  0.2010
10166TIP3    H151913   5.231   6.583  12.701  0.5839  1.2315  2.6049
10166TIP3    H251914   5.101   6.652  12.665 -0.1694 -2.4921 -2.4388
10167TIP3   OH251915   4.893   3.702  16.128 -0.0108 -0.3685 -0.3989
10167TIP3    H151916   4.819   3.681  16.185 -1.4498  1.8337 -1.4194
10167TIP3    H251917   4.887   3.638  16.057 -0.5388 -0.6223 -0.1322
10168TIP3   OH251918   3.520   4.780   5.044 -0.6130 -0.1446  0.2306
10168TIP3    H151919   3.610   4.763   5.017 -1.1515 -0.0833 -1.7273
10168TIP3    H251920   3.527   4.810   5.134  1.3428  0.0234  0.0497
10169TIP3   OH251921   5.875   6.131  14.506 -0.0783 -0.2302  0.4080
10169TIP3    H151922   5.804   6.072  14.530  0.3733 -0.9172  0.0615
10169TIP3    H251923   5.847   6.171  14.423 -0.6795  0.5484  0.9778
10170TIP3   OH251924   1.489   3.317   5.558 -0.2393 -0.4185  0.2222
10170TIP3    H151925   1.427   3.319   5.631 -0.8456 -2.3420 -0.2251
10170TIP3    H251926   1.560   3.261   5.588  0.8585  1.0301  0.3751
10171TIP3   OH251927   3.901   0.343   1.353  0.0037 -0.4417  0.2441
10171TIP3    H151928   3.926   0.251   1.358 -1.2059 -0.7377  1.4204
10171TIP3    H251929   3.941   0.376   1.273 -1.1939 -2.5086 -1.2264
10172TIP3   OH251930   3.953   0.695   1.298  0.0855  0.2333 -0.0813
10172TIP3    H151931   3.865   0.702   1.334  0.3268 -0.4984  0.6702
10172TIP3    H251932   3.997   0.775   1.326 -0.0650  0.1754  0.3229
10173TIP3   OH251933   5.040   6.711   5.038 -0.3779 -0.0631 -0.1437
10173TIP3    H151934   5.045   6.802   5.069 -0.5630  0.8466 -2.6287
10173TIP3    H251935   5.100   6.709   4.963 -2.5748 -1.2179 -1.9065
10174TIP3   OH251936   4.374   0.240  15.703 -0.7300  0.3663 -0.6272
10174TIP3    H151937   4.411   0.186  15.634  0.4260  0.7957 -0.3617
10174TIP3    H251938   4.320   0.304  15.658  1.2227  1.6088 -1.2830
10175TIP3   OH251939   1.574   4.799  15.752 -0.4650 -0.0181 -0.2924
10175TIP3    H151940   1.544   4.720  15.796 -0.8794  1.1998  1.6997
10175TIP3    H251941   1.495   4.834  15.710 -0.8305  0.6101  0.8831
10176TIP3   OH251942   6.584   6.564  14.602 -0.3216 -0.1677 -0.1170
10176TIP3    H151943   6.609   6.630  14.666 -1.9649  0.9209 -0.5647
10176TIP3    H251944   6.489   6.558  14.609 -0.2902 -1.7473 -0.8054
10177TIP3   OH251945   6.232   6.430   5.776  0.1832 -0.1653 -0.1680
10177TIP3    H151946   6.209   6.401   5.688  1.9578 -0.3125 -0.6051
10177TIP3    H251947   6.323   6.402   5.787 -0.3659 -1.1825  2.1462
10178TIP3   OH251948   0.350   5.201   1.371  0.0383 -0.4351  0.3647
10178TIP3    H151949   0.290   5.200   1.444 -0.3311  1.4090  0.1201
10178TIP3    H251950   0.437   5.203   1.411 -0.1575  0.3304  0.7544
10179TIP3   OH251951   4.705   4.352   1.254 -0.4429  0.6067 -0.7011
10179TIP3    H151952   4.767   4.415   1.290 -1.0158  0.0867  1.2618
10179TIP3    H251953   4.739   4.267   1.283 -2.1194  0.3261  0.5317
10180TIP3   OH251954   5.324   3.535   5.956  0.2934  0.0215 -0.3988
10180TIP3    H151955   5.367   3.484   5.887  0.3512  0.7391 -0.8997
10180TIP3    H251956   5.388   3.603   5.979  2.0633 -2.7452  3.3935
10181TIP3   OH251957   0.170   1.947  11.863 -0.3172 -0.5151  0.2976
10181TIP3    H151958   0.132   1.862  11.842  0.3522 -0.1587 -2.5547
10181TIP3    H251959   0.129   2.007  11.801  1.4587  0.6886  0.2456
10182TIP3   OH251960   2.514   5.573  12.809 -0.0575  0.2416 -0.0671
10182TIP3    H151961   2.544   5.482  12.814  3.3674  1.2947 -0.4012
10182TIP3    H251962   2.506   5.600  12.901 -1.3212 -0.4293  0.0363
10183TIP3   OH251963   6.777   4.886   5.991  0.6407  0.1533 -0.1146
10183TIP3    H151964   6.848   4.899   6.054  0.8912  2.3462 -0.8263
10183TIP3    H251965   6.764   4.791   5.990  3.2010 -0.2516  0.4204
10184TIP3   OH251966   2.063   0.898  14.510 -0.4986 -0.3930 -0.2743
10184TIP3    H151967   1.973   0.928  14.500 -0.0048  1.5807  0.8902
10184TIP3    H251968   2.111   0.943  14.440 -0.2340 -0.6630 -0.2680
10185TIP3   OH251969   5.024   4.338  14.414 -0.8656 -0.1048 -0.5801
10185TIP3    H151970   4.943   4.289  14.419  0.1166 -1.7212 -0.2452
10185TIP3    H251971   5.086   4.277  14.373  1.0041  0.0042  2.0266
10186TIP3   OH251972   1.973   0.308  16.679 -0.8462 -0.0235 -0.1729
10186TIP3    H151973   1.939   0.261  16.602 -0.0805 -0.0879 -0.4719
10186TIP3    H251974   2.058   0.341  16.651 -0.7847  0.3790  0.4922
10187TIP3   OH251975   4.155   0.929   4.604  0.0693 -0.1407  0.1563
10187TIP3    H151976   4.208   0.872   4.548  0.2621  0.8801 -0.6927
10187TIP3    H251977   4.135   1.005   4.550 -2.0083 -0.3594  0.5638
10188TIP3   OH251978   0.551   2.275   4.955 -0.1938  0.0119 -0.0143
10188TIP3    H151979   0.602   2.199   4.983  0.8048  0.6088 -0.2069
10188TIP3    H251980   0.611   2.327   4.902 -0.8107  1.0451  0.2838
10189TIP3   OH251981   3.981   4.877   6.376 -0.0837 -0.1758 -0.2808
10189TIP3    H151982   3.952   4.797   6.421 -1.1776  0.7372  0.6698
10189TIP3    H251983   3.950   4.865   6.286 -1.1975 -0.3644  0.1065
10190TIP3   OH251984   0.199   4.526   1.964  0.0378  0.0412  0.2729
10190TIP3    H151985   0.198   4.610   1.918  1.4121  0.7711  1.5366
10190TIP3    H251986   0.167   4.547   2.052  0.1485 -0.8060  0.5167
10191TIP3   OH251987   3.695   1.766   3.367  0.0972 -0.3659  0.4162
10191TIP3    H151988   3.672   1.844   3.317  1.3617 -0.0125  0.3495
10191TIP3    H251989   3.613   1.735   3.404 -0.7535 -0.2324 -1.3119
10192TIP3   OH251990   6.198   4.125  13.906  0.3268  0.1237 -0.0631
10192TIP3    H151991   6.239   4.141  13.821  0.9293 -0.5844  0.0885
10192TIP3    H251992   6.269   4.088  13.960 -0.1088  0.3657  0.6750
10193TIP3   OH251993   1.900   1.944  12.974 -0.2005  0.2942 -0.6430
10193TIP3    H151994   1.920   1.851  12.967 -0.6136  0.2395 -1.1618
10193TIP3    H251995   1.910   1.978  12.885 -0.1946  0.7137 -0.4851
10194TIP3   OH251996   0.142   1.569  15.265  0.0026 -0.1864 -0.1235
10194TIP3    H151997   0.095   1.527  15.337 -1.6558 -1.7701 -2.0749
10194TIP3    H251998   0.077   1.629  15.227  0.8182  0.5353 -0.3864
10195TIP3   OH251999   2.364   2.562   3.904 -0.2250 -0.0053 -0.1922
10195TIP3    H152000   2.317   2.479   3.903 -1.4193  0.6690  0.1321
10195TIP3    H252001   2.454   2.539   3.880 -1.1946 -0.9956 -3.1406
10196TIP3   OH252002   1.362   1.450   4.889 -0.3175  0.0148  0.3403
10196TIP3    H152003   1.363   1.436   4.794 -1.9157  1.0504  0.1544
10196TIP3    H252004   1.370   1.544   4.900 -3.0091  0.1741  1.1303
10197TIP3   OH252005   2.620   4.027  12.566  0.0020 -0.0443  0.7964
10197TIP3    H152006   2.639   3.963  12.497  0.7714 -1.2715  2.1161
10197TIP3    H252007   2.661   4.107  12.536 -0.3572 -0.3483 -0.5525
10198TIP3   OH252008   5.673   1.681  11.916 -0.1888 -0.0115  0.3883
10198TIP3    H152009   5.638   1.713  11.833 -1.6615  0.5353  1.1977
10198TIP3    H252010   5.754   1.636  11.893 -0.2135  0.7730 -1.2508
10199TIP3   OH252011   6.136   5.014   2.452  0.0463 -0.6444 -0.5801
10199TIP3    H152012   6.058   5.035   2.504  0.3108 -0.1760 -0.3722
10199TIP3    H252013   6.191   5.093   2.457  1.1108 -1.4192  0.3412
10200TIP3   OH252014   0.604   4.365   3.720  0.0574 -0.2428  0.6253
10200TIP3    H152015   0.570   4.277   3.738  0.2365 -0.2090  1.1412
10200TIP3    H252016   0.689   4.349   3.679 -0.6968 -0.3295 -0.9431
10201TIP3   OH252017   0.019   1.572   6.056 -0.2187  0.5920 -0.3056
10201TIP3    H152018   0.080   1.579   6.129  0.1050 -0.5270 -0.4710
10201TIP3    H252019  -0.067   1.564   6.097 -0.0270 -0.1235 -0.0443
10202TIP3   OH252020   2.045   6.701  16.539  0.2912  0.3122  0.3398
10202TIP3    H152021   2.019   6.609  16.527  0.5818  0.5502 -2.6811
10202TIP3    H252022   1.964   6.747  16.557 -0.1283 -0.2924  0.0359
10203TIP3   OH252023   2.996   3.590   3.224  0.2071  0.1447  0.0832
10203TIP3    H152024   3.030   3.666   3.176 -0.6545  0.7503  0.4314
10203TIP3    H252025   3.036   3.596   3.311  0.2627  0.1084  0.0604
10204TIP3   OH252026   2.658   3.163   3.992  0.1185  0.3359  0.2655
10204TIP3    H152027   2.632   3.157   3.900  2.1119  1.2251 -0.3796
10204TIP3    H252028   2.601   3.230   4.029  0.1250  0.8416 -0.6283
10205TIP3   OH252029   0.882   5.812   5.467  0.1362  0.6033  0.2717
10205TIP3    H152030   0.884   5.886   5.527 -1.5066  0.2332  0.8317
10205TIP3    H252031   0.842   5.741   5.518  0.4868 -0.2826 -0.6625
10206TIP3   OH252032   0.211   4.824   1.563 -0.1463  0.3627  0.0220
10206TIP3    H152033   0.280   4.762   1.538 -1.2490  0.2075 -2.8560
10206TIP3    H252034   0.254   4.910   1.559  0.4464  0.0895  0.4259
10207TIP3   OH252035   2.629   0.133  11.905 -0.4126 -0.1944  0.3409
10207TIP3    H152036   2.640   0.046  11.942 -2.4300 -0.2426  0.8843
10207TIP3    H252037   2.648   0.192  11.978  0.7200 -0.1865  0.0391
10208TIP3   OH252038   4.977   3.373  15.915  0.7175  0.2428  0.7576
10208TIP3    H152039   4.994   3.349  16.006  1.2438 -1.4169  0.2385
10208TIP3    H252040   5.060   3.406  15.882  1.2921 -1.7550  0.1079
10209TIP3   OH252041   1.563   2.895  12.992 -0.1861 -0.3890  0.3130
10209TIP3    H152042   1.532   2.865  13.077 -0.0855  1.6774  1.0781
10209TIP3    H252043   1.484   2.928  12.948 -0.0328 -0.3580  0.0573
10210TIP3   OH252044   4.825   5.831   4.753  0.0943 -0.1443  0.7419
10210TIP3    H152045   4.835   5.771   4.826  1.0240  0.3418  1.0291
10210TIP3    H252046   4.914   5.847   4.722 -0.1908  0.5528  0.2421
10211TIP3   OH252047   1.158   1.771   1.055  0.1499 -0.1193 -0.2256
10211TIP3    H152048   1.159   1.711   1.129 -0.6592 -0.4886 -0.5000
10211TIP3    H252049   1.211   1.845   1.083 -1.1522  0.3028  1.2064
10212TIP3   OH252050   3.988   2.885  14.861 -0.4575 -0.3272 -0.2838
10212TIP3    H152051   3.960   2.935  14.784 -1.9299  1.1776  1.1529
10212TIP3    H252052   3.918   2.821  14.875  0.7694 -1.9103 -1.3318
10213TIP3   OH252053   3.765   6.318   5.657  0.0750  0.0155 -0.2612
10213TIP3    H152054   3.859   6.314   5.676  0.2664  1.3650 -0.8459
10213TIP3    H252055   3.723   6.329   5.742  0.2614 -2.7700  0.2483
10214TIP3   OH252056   5.944   0.684   2.030  0.5196 -0.0104  0.3468
10214TIP3    H152057   5.858   0.719   2.006  0.1352 -0.1921  1.4217
10214TIP3    H252058   5.942   0.593   2.001 -0.2973 -0.5007  1.8649
10215TIP3   OH252059   5.375   4.441  17.176  0.6067 -0.6037 -0.2823
10215TIP3    H152060   5.437   4.484  17.235  1.6410 -0.3100 -1.5437
10215TIP3    H252061   5.351   4.510  17.113 -0.7704 -0.8007  0.0088
10216TIP3   OH252062   4.115   0.905   2.057  0.4509  0.1396  0.0053
10216TIP3    H152063   4.153   0.911   2.144 -1.8898  2.5341  0.9295
10216TIP3    H252064   4.066   0.823   2.057 -0.4907  0.6931  1.3530
10217TIP3   OH252065   3.042   0.975   5.451 -0.1079  0.4881 -0.5541
10217TIP3    H152066   2.974   0.946   5.511  1.2635  1.1623  1.3936
10217TIP3    H252067   3.057   1.067   5.476  1.3685  0.3948 -1.0666
10218TIP3   OH252068   1.889   4.841  10.884  0.4786  0.5286 -0.5922
10218TIP3    H152069   1.806   4.809  10.850  1.5638 -0.4240 -2.4669
10218TIP3    H252070   1.891   4.813  10.975 -0.8134 -0.3180 -0.8223
10219TIP3   OH252071   6.085   2.308   5.114 -0.0333 -0.3024  0.2986
10219TIP3    H152072   6.121   2.388   5.151 -0.7986  0.8172 -1.3237
10219TIP3    H252073   6.016   2.337   5.055  0.5808 -2.0555 -1.3725
10220TIP3   OH252074   0.237   5.394  14.352 -0.0265  0.2520 -0.3364
10220TIP3    H152075   0.212   5.456  14.420  0.7976 -0.1062  0.2968
10220TIP3    H252076   0.331   5.385  14.360 -0.3140 -2.3431  0.6874
10221TIP3   OH252077   2.435   0.298  15.080 -0.3141 -0.4988  0.0266
10221TIP3    H152078   2.424   0.348  15.162  2.1208  1.2910 -0.6858
10221TIP3    H252079   2.359   0.324  15.027  0.0258  1.1776  0.3247
10222TIP3   OH252080   6.498   1.018  17.026 -0.3189 -0.4350  0.9038
10222TIP3    H152081   6.493   0.936  17.076  1.2593  0.7362  3.0360
10222TIP3    H252082   6.576   1.009  16.973 -0.0390 -0.2548  1.2791
10223TIP3   OH252083   1.156   5.862   4.877  0.9483 -0.3449 -0.3385
10223TIP3    H152084   1.067   5.874   4.910  1.1375 -0.4723  0.2241
10223TIP3    H252085   1.212   5.880   4.953  1.5731  3.6319 -1.6475
10224TIP3   OH252086   1.603   2.157   0.042 -0.1820 -0.2008 -0.0242
10224TIP3    H152087   1.647   2.242   0.044  0.5237 -0.5632  0.6575
10224TIP3    H252088   1.608   2.129  -0.049  1.9917 -0.7121  0.2205
10225TIP3   OH252089   3.048   1.701  12.976  0.3899  0.1385 -0.4752
10225TIP3    H152090   2.975   1.687  12.915 -1.6066 -1.7146  2.1626
10225TIP3    H252091   3.091   1.615  12.981 -0.3609 -0.1416  1.7326
10226TIP3   OH252092   4.403   0.540  15.075  0.1261  0.3299 -0.3289
10226TIP3    H152093   4.403   0.481  15.000 -0.8865 -0.1759  0.0597
10226TIP3    H252094   4.495   0.553  15.096  0.3761 -0.4735 -0.9223
10227TIP3   OH252095   6.640   4.098  15.441 -0.4345 -0.1160 -0.0999
10227TIP3    H152096   6.594   4.111  15.524 -1.9596 -1.9176 -0.6348
10227TIP3    H252097   6.695   4.021  15.455 -1.4523 -1.0235 -1.0707
10228TIP3   OH252098   2.125   4.946  10.829  0.2281  0.7968 -0.8024
10228TIP3    H152099   2.101   5.024  10.779 -0.9345 -0.4690 -2.2677
10228TIP3    H252100   2.042   4.913  10.863  0.8047  0.6244  0.4627
10229TIP3   OH252101   1.033   0.025  15.120  0.3437 -0.1912  0.3921
10229TIP3    H152102   1.126   0.023  15.143  0.7745 -0.6966 -1.2964
10229TIP3    H252103   1.017  -0.061  15.081 -0.7227  0.0685  0.2595
10230TIP3   OH252104   1.374   5.435   3.115  0.6842  0.1188  0.1462
10230TIP3    H152105   1.315   5.360   3.122  1.7179 -0.7379 -0.3387
10230TIP3    H252106   1.326   5.507   3.157 -1.3912 -0.1504 -1.6777
10231TIP3   OH252107   6.566   0.701  12.955 -1.2794  0.1985 -0.0345
10231TIP3    H152108   6.654   0.709  12.993 -1.7214  0.8069  0.8817
10231TIP3    H252109   6.566   0.615  12.913  0.2799  0.8489 -1.4197
10232TIP3   OH252110   2.769   6.703  14.105 -0.3274 -0.4052  0.1566
10232TIP3    H152111   2.786   6.688  14.198 -1.7989  2.5552  0.9904
10232TIP3    H252112   2.826   6.642  14.059  1.1567 -1.2286  2.9990
10233TIP3   OH252113   2.422   0.634   1.195 -0.3642 -0.6345 -0.0144
10233TIP3    H152114   2.485   0.606   1.128 -0.9812 -0.9697 -0.4575
10233TIP3    H252115   2.474   0.640   1.275  0.4048 -0.1189 -0.5440
10234TIP3   OH252116   0.712   1.795  13.902 -0.0357  0.1406 -0.4685
10234TIP3    H152117   0.736   1.708  13.869 -1.1112 -0.2474 -0.2691
10234TIP3    H252118   0.656   1.776  13.978 -0.0628  1.0142 -0.2671
10235TIP3   OH252119   6.199   0.810   0.105  0.0877  0.2998  0.3404
10235TIP3    H152120   6.260   0.880   0.129 -0.8512  0.7995  1.3092
10235TIP3    H252121   6.229   0.733   0.154  2.5295 -0.6421 -2.5169
10236TIP3   OH252122   0.131   2.325  10.777 -0.2363 -0.0924 -0.0824
10236TIP3    H152123   0.161   2.324  10.687 -0.4009 -0.9513 -0.1321
10236TIP3    H252124   0.179   2.397  10.818 -0.1774  0.3143 -0.8538
10237TIP3   OH252125   2.191   1.702  16.224  0.0123 -0.9727 -0.5441
10237TIP3    H152126   2.207   1.626  16.167  0.4806 -0.9060 -0.5079
10237TIP3    H252127   2.258   1.695  16.292 -1.5427 -1.9211  0.9035
10238TIP3   OH252128   6.244   0.743  13.915 -0.5262  0.2249  0.4173
10238TIP3    H152129   6.159   0.718  13.949 -0.9445  0.7218 -0.2500
10238TIP3    H252130   6.252   0.837  13.936 -0.3384  0.2860  0.0812
10239TIP3   OH252131   6.008   2.097   0.979  0.4893  0.1467  0.2517
10239TIP3    H152132   6.100   2.091   1.004  0.2775 -2.4201  0.5030
10239TIP3    H252133   5.997   2.030   0.911 -0.5193  2.4493 -1.9396
10240TIP3   OH252134   5.203   4.594  13.139  0.1482 -0.0039 -0.8767
10240TIP3    H152135   5.298   4.597  13.150  0.0531 -0.6431  0.2535
10240TIP3    H252136   5.184   4.660  13.073  1.3685  0.1854 -1.0525
10241TIP3   OH252137   0.241   0.679   6.592 -0.0764 -0.1850  0.1877
10241TIP3    H152138   0.235   0.628   6.673 -0.6772 -0.5694 -0.1022
10241TIP3    H252139   0.308   0.745   6.611  1.2209 -1.5195  0.3145
10242TIP3   OH252140   2.859   5.531   4.854 -0.2092 -0.1039  0.0759
10242TIP3    H152141   2.863   5.488   4.939 -1.4863  1.7196  1.0932
10242TIP3    H252142   2.866   5.460   4.790  1.0679 -1.4548  1.6936
10243TIP3   OH252143   0.608   6.442   0.297  0.2767 -0.4889  0.3937
10243TIP3    H152144   0.702   6.428   0.310 -0.1933 -2.8323  1.3106
10243TIP3    H252145   0.602   6.535   0.272  2.8692 -0.4256 -0.1608
10244TIP3   OH252146   4.028   2.494  12.514  0.5353  0.0327  0.1283
10244TIP3    H152147   3.950   2.440  12.499  2.0461 -2.3436  0.5643
10244TIP3    H252148   4.027   2.556  12.441 -0.6329 -1.3238 -1.0678
10245TIP3   OH252149   0.036   5.593  11.512  0.0495  0.0235 -0.0809
10245TIP3    H152150   0.070   5.581  11.424 -0.1541  0.2423 -0.1870
10245TIP3    H252151   0.101   5.648  11.556  0.6014 -0.8105  0.1761
10246TIP3   OH252152   2.022   2.162  15.195 -0.1559  0.2891  0.2832
10246TIP3    H152153   2.089   2.230  15.192 -0.7054  0.7790 -1.8530
10246TIP3    H252154   2.065   2.085  15.157 -0.3665  0.1922  0.2406
10247TIP3   OH252155   1.751   5.974   0.436  0.5233 -0.1788  0.5037
10247TIP3    H152156   1.658   5.999   0.435  0.3899 -0.6233  1.4153
10247TIP3    H252157   1.754   5.896   0.380  0.3425 -0.1583  0.4632
10248TIP3   OH252158   4.142   2.234  10.563  0.3412  0.1760  0.0456
10248TIP3    H152159   4.047   2.232  10.550  0.4373 -0.3116 -0.5585
10248TIP3    H252160   4.161   2.151  10.607  0.5281  0.1344 -0.1149
10249TIP3   OH252161   2.754   1.057   2.037  0.2019  0.4582 -0.9194
10249TIP3    H152162   2.833   1.110   2.042  0.2092  0.3271  0.3812
10249TIP3    H252163   2.685   1.119   2.010  0.2105  1.1349  0.5808
10250TIP3   OH252164   3.491   1.520   5.286 -0.4608 -0.2103 -0.3198
10250TIP3    H152165   3.514   1.613   5.277  0.9273 -0.4833  0.2056
10250TIP3    H252166   3.421   1.506   5.223 -1.0869  1.3381  0.0067
10251TIP3   OH252167   2.711   0.389  11.225 -0.4468  0.4908  0.1723
10251TIP3    H152168   2.802   0.400  11.197 -0.5676 -0.6266 -0.6831
10251TIP3    H252169   2.668   0.350  11.149 -1.7225  1.3328  0.4580
10252TIP3   OH252170   0.525   2.183   0.467  0.3837  0.5569  0.4772
10252TIP3    H152171   0.473   2.232   0.403  0.1747 -0.5554 -0.2191
10252TIP3    H252172   0.461   2.136   0.520  0.4632  2.6944  2.5710
10253TIP3   OH252173   2.234   3.704   0.438  0.2036 -0.0169 -0.0750
10253TIP3    H152174   2.213   3.787   0.395  2.8537  1.8736  2.1115
10253TIP3    H252175   2.189   3.709   0.523  2.2653  0.2505  1.0314
10254TIP3   OH252176   1.705   4.212  14.529 -0.3830 -0.2012 -0.0896
10254TIP3    H152177   1.714   4.121  14.556  1.1009 -0.8706 -2.7188
10254TIP3    H252178   1.612   4.232  14.543 -0.8251 -2.2597  0.0024
10255TIP3   OH252179   6.605   3.709   5.740 -0.2120  0.0802 -0.1217
10255TIP3    H152180   6.564   3.626   5.765  1.5651 -1.0212 -0.7364
10255TIP3    H252181   6.697   3.697   5.760 -0.2957  2.8994  2.2350
10256TIP3   OH252182   5.668   5.554   2.746 -0.4563  0.2369  0.1668
10256TIP3    H152183   5.673   5.599   2.831 -0.7317  2.4729 -0.9521
10256TIP3    H252184   5.591   5.497   2.753 -0.2184  0.0808  1.5657
10257TIP3   OH252185   1.249   2.225   2.031  0.0850 -0.0182  0.4135
10257TIP3    H152186   1.200   2.148   2.003  1.0286 -0.5375  0.1796
10257TIP3    H252187   1.341   2.201   2.020  0.3832  1.4212 -0.4026
10258TIP3   OH252188   5.007   1.650  11.778 -0.0418  0.5948 -0.0166
10258TIP3    H152189   5.021   1.674  11.686 -1.9545 -0.0755 -0.5005
10258TIP3    H252190   5.028   1.557  11.782 -2.3752  0.0182 -0.3519
10259TIP3   OH252191   1.645   0.335   0.902  0.5748  0.0510  0.5337
10259TIP3    H152192   1.676   0.424   0.888  0.6801 -0.2124 -1.0471
10259TIP3    H252193   1.614   0.334   0.993  0.8336  1.6089  0.6521
10260TIP3   OH252194   6.735   0.845   0.188 -0.6731  0.0268  0.2361
10260TIP3    H152195   6.775   0.775   0.135 -0.9001  0.8082 -0.9778
10260TIP3    H252196   6.705   0.800   0.268  1.0167 -0.8977  0.3815
10261TIP3   OH252197   0.007   1.088   5.385 -0.1267  0.0648  0.2377
10261TIP3    H152198  -0.057   1.099   5.456 -0.6030  1.6925 -0.4169
10261TIP3    H252199  -0.046   1.080   5.306  0.3981 -1.9756  0.0786
10262TIP3   OH252200   2.456   5.681  13.505  0.1014  0.3289  0.6471
10262TIP3    H152201   2.363   5.669  13.482 -0.3011  4.0227  0.0579
10262TIP3    H252202   2.456   5.679  13.601 -0.4604 -0.4191  0.6411
10263TIP3   OH252203   3.706   2.915   2.730  0.1364  0.5823 -0.1475
10263TIP3    H152204   3.649   2.867   2.670  1.9790 -1.8624 -0.0313
10263TIP3    H252205   3.650   2.934   2.806 -0.7701 -1.0304 -0.3879
10264TIP3   OH252206   0.081   2.404  11.694  1.0727  0.3533 -0.1613
10264TIP3    H152207   0.027   2.346  11.641  1.2295  0.2640 -0.2247
10264TIP3    H252208   0.170   2.368  11.685  1.1905  0.6812 -0.3055
10265TIP3   OH252209   3.459   0.588  14.284  0.5888 -0.4158  0.0916
10265TIP3    H152210   3.386   0.550  14.331  0.4102 -1.4508 -0.9898
10265TIP3    H252211   3.534   0.578  14.343 -0.0742  0.4474  1.1035
10266TIP3   OH252212   6.353   2.435   0.573  0.0353  0.0866  0.8907
10266TIP3    H152213   6.395   2.351   0.588  0.5266  0.3737  1.1472
10266TIP3    H252214   6.386   2.465   0.489  1.5067  0.9949  1.7657
10267TIP3   OH252215   3.507   0.832   4.008  0.2734 -0.2151  0.5358
10267TIP3    H152216   3.433   0.858   4.063  1.7974 -0.1837  2.6545
10267TIP3    H252217   3.573   0.899   4.025  1.0229 -0.6027 -0.8157
10268TIP3   OH252218   2.917   1.132  11.135  0.2965  0.3539  0.5902
10268TIP3    H152219   2.839   1.134  11.191  0.5091  1.4594  0.8657
10268TIP3    H252220   2.945   1.041  11.135  0.4259  0.3760  2.5028
10269TIP3   OH252221   3.032   5.879  12.797 -0.1210  0.3696  0.6867
10269TIP3    H152222   3.034   5.784  12.806  2.6522  0.3217  0.0804
10269TIP3    H252223   3.031   5.894  12.703 -1.0508  0.9398  0.7865
10270TIP3   OH252224   2.289   4.889   0.012 -0.3720 -0.4234  0.5302
10270TIP3    H152225   2.338   4.970  -0.002 -2.7073  0.8695 -0.4616
10270TIP3    H252226   2.271   4.888   0.106  0.0027  0.0084  0.6050
10271TIP3   OH252227   2.585   5.134  17.073 -0.2003  0.0841  0.1314
10271TIP3    H152228   2.666   5.157  17.118 -0.1865  0.9659 -0.3205
10271TIP3    H252229   2.611   5.120  16.982 -0.4745 -0.1186  0.0820
10272TIP3   OH252230   0.398   4.676   3.560  0.0849 -0.3308 -0.8047
10272TIP3    H152231   0.446   4.657   3.479  1.2982  0.5878 -0.3211
10272TIP3    H252232   0.389   4.591   3.602 -2.0044 -1.0732 -2.6615
10273TIP3   OH252233   6.174   3.809   3.858 -0.1914 -0.0522 -0.8254
10273TIP3    H152234   6.265   3.832   3.836 -0.8414  2.8157 -0.7127
10273TIP3    H252235   6.171   3.811   3.953 -0.2888 -0.5300 -0.8167
10274TIP3   OH252236   5.173   6.038  10.517  0.7912 -0.3303 -1.1714
10274TIP3    H152237   5.227   6.026  10.596 -0.0262 -0.4341 -0.6234
10274TIP3    H252238   5.089   5.997  10.539  0.2952  0.3368 -1.8047
10275TIP3   OH252239   1.500   0.118   4.482  0.3591  0.3220  0.2195
10275TIP3    H152240   1.420   0.093   4.528 -0.2514  1.6249 -0.1026
10275TIP3    H252241   1.568   0.113   4.549  0.0900 -1.1949  0.3908
10276TIP3   OH252242   1.354   4.582   0.295 -0.0846 -0.3697 -0.3738
10276TIP3    H152243   1.411   4.613   0.366  1.1342  0.6236 -1.7606
10276TIP3    H252244   1.351   4.655   0.233 -0.7660 -1.3923 -1.5661
10277TIP3   OH252245   3.890   4.676   5.324  0.0729  0.1850 -0.0776
10277TIP3    H152246   3.827   4.744   5.300 -0.5631 -0.4757 -0.2812
10277TIP3    H252247   3.974   4.710   5.292 -0.5236  0.0236 -1.8920
10278TIP3   OH252248   5.106   6.396  11.339 -0.7884 -0.9966 -0.3809
10278TIP3    H152249   5.062   6.333  11.396  0.4542 -2.4303 -0.9887
10278TIP3    H252250   5.122   6.349  11.258  0.7370 -0.1032 -0.6252
10279TIP3   OH252251   2.748   5.141   5.912  0.1905 -0.4051  0.5125
10279TIP3    H152252   2.769   5.049   5.895  2.1643 -0.1410  1.4292
10279TIP3    H252253   2.663   5.154   5.869  2.1179 -1.3269 -3.8230
10280TIP3   OH252254   1.712   5.119   4.125  0.5243 -0.4381  0.2530
10280TIP3    H152255   1.780   5.075   4.175 -1.4284 -1.6326  1.9219
10280TIP3    H252256   1.670   5.178   4.188  0.0697  0.3681 -0.7839
10281TIP3   OH252257   5.226   3.172   3.373  0.0446  0.3677 -0.0322
10281TIP3    H152258   5.219   3.239   3.441 -1.6354  0.4687 -0.2931
10281TIP3    H252259   5.136   3.156   3.346  0.7094  0.6391 -2.5451
10282TIP3   OH252260   5.883   1.242  12.947 -0.1743  0.0775 -0.0371
10282TIP3    H152261   5.823   1.244  13.021  0.6621  1.6820  0.6253
10282TIP3    H252262   5.844   1.301  12.882 -0.5056 -0.7082 -0.5583
10283TIP3   OH252263   4.879   5.516  14.082  0.3352 -0.1699 -0.3166
10283TIP3    H152264   4.867   5.524  13.987  0.0866  1.2066 -0.1711
10283TIP3    H252265   4.806   5.462  14.111 -1.1575  1.7224 -0.5194
10284TIP3   OH252266   0.458   0.454  13.986  0.4454 -0.3639 -0.4858
10284TIP3    H152267   0.459   0.549  13.973  1.0549 -0.3058  0.0004
10284TIP3    H252268   0.434   0.442  14.078  0.0824 -0.6953 -0.6175
10285TIP3   OH252269   2.823   5.000   0.137  0.7765  0.0960 -1.1673
10285TIP3    H152270   2.865   4.920   0.169  0.7269  0.0514 -1.2124
10285TIP3    H252271   2.845   5.003   0.044  1.6273  0.6730 -0.9533
10286TIP3   OH252272   4.644   3.318   0.135 -0.2340  0.3248  0.2183
10286TIP3    H152273   4.627   3.226   0.154  0.8224  0.0362 -0.1809
10286TIP3    H252274   4.687   3.351   0.214 -1.0449  0.6060  0.5486
10287TIP3   OH252275   4.904   0.125  11.293  0.2483  0.1318 -0.1655
10287TIP3    H152276   4.907   0.221  11.296 -1.1521  0.1704  1.3859
10287TIP3    H252277   4.893   0.104  11.201  0.2718  1.4880 -0.4937
10288TIP3   OH252278   5.075   3.312   5.226  0.3339  0.1884 -0.0188
10288TIP3    H152279   5.129   3.391   5.233 -1.8163  1.6750  0.4865
10288TIP3    H252280   5.138   3.240   5.217  2.3384  2.0255 -1.2896
10289TIP3   OH252281   2.261   1.982  11.967  0.0840 -0.1969 -0.5995
10289TIP3    H152282   2.295   2.067  11.939 -1.8761  1.3624  1.4584
10289TIP3    H252283   2.249   1.933  11.886 -1.5611  2.6138 -2.1570
10290TIP3   OH252284   3.591   2.736  15.688  0.2815 -0.4451  0.0613
10290TIP3    H152285   3.616   2.828  15.685 -0.4424 -0.2192  0.7617
10290TIP3    H252286   3.606   2.704  15.599  0.1077  0.4569 -0.2965
10291TIP3   OH252287   3.397   3.751   0.789 -0.2279  0.8717 -0.4104
10291TIP3    H152288   3.485   3.714   0.781 -0.0655  0.1941  3.7312
10291TIP3    H252289   3.406   3.842   0.763  1.0375  0.1277 -2.7957
10292TIP3   OH252290   1.017   3.103  13.116 -0.1503 -0.3226 -0.7562
10292TIP3    H152291   1.009   3.008  13.121  0.3004 -0.3356 -0.2396
10292TIP3    H252292   0.931   3.136  13.140  0.3984 -0.5348  1.6249
10293TIP3   OH252293   0.930   6.359   2.736  0.5598 -0.8241  0.1551
10293TIP3    H152294   0.944   6.453   2.741 -0.2285 -0.6075 -1.4119
10293TIP3    H252295   0.839   6.347   2.763 -0.4742 -0.7217 -3.0632
10294TIP3   OH252296   6.378   5.837   6.026  0.1002  0.1725 -0.5873
10294TIP3    H152297   6.387   5.755   6.074  1.2292  0.6484  0.0438
10294TIP3    H252298   6.328   5.894   6.085 -0.9329 -0.1392 -1.1432
10295TIP3   OH252299   5.362   6.499  17.144 -0.1151 -0.2891  0.9430
10295TIP3    H152300   5.336   6.585  17.111  0.5480 -0.2341  0.5397
10295TIP3    H252301   5.456   6.495  17.127 -0.3121 -1.4797  0.0641
10296TIP3   OH252302   5.985   6.065   4.808  0.2123  0.0542  0.4557
10296TIP3    H152303   5.987   5.985   4.860 -0.1634 -0.4224 -0.2446
10296TIP3    H252304   6.066   6.063   4.757  1.0599  1.0207  1.7478
10297TIP3   OH252305   5.460   6.019  11.537  0.1190  0.1938  0.1839
10297TIP3    H152306   5.375   6.055  11.561  0.1606  0.1935  0.3350
10297TIP3    H252307   5.471   6.043  11.445 -1.0858 -1.8451 -0.5106
10298TIP3   OH252308   1.326   1.362  15.666 -0.4850  0.2755  0.5469
10298TIP3    H152309   1.287   1.445  15.637 -1.7062 -0.4359  0.1244
10298TIP3    H252310   1.258   1.296  15.649  0.9779 -1.0156 -0.3928
10299TIP3   OH252311   1.775   6.222  16.992 -0.0933  0.2454 -0.7758
10299TIP3    H152312   1.785   6.311  17.025 -0.9837 -0.0163  0.2237
10299TIP3    H252313   1.681   6.211  16.980 -0.2929 -1.5899  2.0939
10300TIP3   OH252314   2.343   3.813   2.159 -0.2632 -0.2200 -0.4517
10300TIP3    H152315   2.423   3.859   2.135  0.2870 -0.6306  0.5358
10300TIP3    H252316   2.339   3.739   2.098  0.2990 -0.3865 -0.2963
10301TIP3   OH252317   6.459   5.977  13.039 -0.3443  0.3636  0.2423
10301TIP3    H152318   6.365   5.978  13.055 -0.7996  0.2971 -2.2497
10301TIP3    H252319   6.478   6.063  13.002  0.0801 -0.5817 -1.8049
10302TIP3   OH252320   0.652   4.988  11.731  0.5946 -0.3315 -0.3655
10302TIP3    H152321   0.721   5.053  11.742 -1.2049  1.7731 -1.0659
10302TIP3    H252322   0.611   4.981  11.817  2.3429 -2.4454  0.3555
10303TIP3   OH252323   3.827   5.784  11.081 -0.0156  0.5065 -0.4821
10303TIP3    H152324   3.871   5.753  11.002 -1.4342  1.3399 -1.6235
10303TIP3    H252325   3.740   5.811  11.052 -2.3164 -3.4968  2.1633
10304TIP3   OH252326   3.179   5.088   3.605 -0.4836  0.0033  0.1812
10304TIP3    H152327   3.266   5.129   3.601 -0.8214  0.5861 -1.6253
10304TIP3    H252328   3.197   4.997   3.631  0.6346  0.2234  0.2210
10305TIP3   OH252329   4.946   3.977  13.212  0.3434  0.4396  0.1402
10305TIP3    H152330   4.891   3.934  13.146  0.0114  1.0346  0.0215
10305TIP3    H252331   4.891   4.048  13.246  0.9335  0.8569  0.2293
10306TIP3   OH252332   2.573   0.968   2.563  0.6216  0.3816 -0.5761
10306TIP3    H152333   2.509   0.950   2.493  0.1005  0.6995 -0.1858
10306TIP3    H252334   2.535   0.926   2.640  2.3482 -2.0487 -0.9892
10307TIP3   OH252335   2.614   1.112   4.619 -0.0670 -0.2138  0.3412
10307TIP3    H152336   2.683   1.131   4.683  1.1224 -2.5293 -0.2212
10307TIP3    H252337   2.573   1.032   4.651  0.0749 -1.0034 -1.3823
10308TIP3   OH252338   2.532   6.032  16.950 -0.3557 -0.3929 -0.1171
10308TIP3    H152339   2.565   6.112  16.992 -1.0947 -0.3900  0.4626
10308TIP3    H252340   2.555   6.043  16.858  0.9478 -0.2272  0.2095
10309TIP3   OH252341   0.006   4.889  11.541  0.2808 -0.1698  0.1628
10309TIP3    H152342  -0.019   4.800  11.567  0.1751 -0.6362 -1.4620
10309TIP3    H252343  -0.017   4.944  11.616  0.2828 -1.5012  1.1600
10310TIP3   OH252344   6.769   1.272  12.928  0.6523  0.1276  0.0422
10310TIP3    H152345   6.840   1.273  12.864 -0.6067  0.0613 -1.3673
10310TIP3    H252346   6.813   1.282  13.012  2.3137  0.3644 -0.8341
10311TIP3   OH252347   0.676   5.003   4.305 -0.4734  0.2008 -0.6296
10311TIP3    H152348   0.709   4.982   4.217 -1.5398 -0.3229 -0.9145
10311TIP3    H252349   0.622   4.928   4.329 -3.8609  2.2673 -1.3952
10312TIP3   OH252350   5.165   6.117   5.557  0.6771 -1.1476  0.3996
10312TIP3    H152351   5.243   6.170   5.573  0.4346 -0.8059  0.4487
10312TIP3    H252352   5.160   6.110   5.461  0.4726 -0.7342  0.3810
10313TIP3   OH252353   2.046   1.080   4.329 -0.5672  0.4345 -0.5849
10313TIP3    H152354   2.084   1.150   4.383  1.7872 -1.0631 -0.2039
10313TIP3    H252355   1.985   1.125   4.271  1.2599  2.8935 -0.6963
10314TIP3   OH252356   2.924   3.956   0.147 -0.1077  0.0733 -0.2688
10314TIP3    H152357   2.875   3.887   0.192 -0.5394 -0.8562 -2.0834
10314TIP3    H252358   3.016   3.931   0.159 -0.2942 -1.8578 -2.3912
10315TIP3   OH252359   5.504   1.684  11.279  0.1335 -0.0723 -0.0970
10315TIP3    H152360   5.584   1.651  11.237  1.1665  1.5491  0.5477
10315TIP3    H252361   5.502   1.777  11.256 -1.2617  0.0226  0.3835
10316TIP3   OH252362   2.117   2.007   1.690 -0.0369 -0.0482 -0.1368
10316TIP3    H152363   2.161   2.091   1.699  0.5609 -0.4696  0.9648
10316TIP3    H252364   2.178   1.944   1.729 -1.8087 -0.5744  1.8394
10317TIP3   OH252365   0.704   1.364  13.516 -0.5662 -0.3325  0.0630
10317TIP3    H152366   0.763   1.326  13.582 -1.1494 -1.1935  0.0887
10317TIP3    H252367   0.761   1.421  13.464 -0.6199  2.6976  3.1198
10318TIP3   OH252368   4.163   1.291   1.403 -0.6006  0.5577  0.2717
10318TIP3    H152369   4.221   1.222   1.435 -0.4897 -0.5802 -2.3186
10318TIP3    H252370   4.217   1.343   1.344 -1.3021  1.5155  0.4618
10319TIP3   OH252371   3.256   1.165   2.577 -0.7781  0.2766 -0.4222
10319TIP3    H152372   3.202   1.103   2.527 -0.9280  0.3956 -0.4085
10319TIP3    H252373   3.265   1.123   2.663 -2.0076  0.8948  0.0222
10320TIP3   OH252374   2.921   2.131  12.586  0.1270 -0.0615  0.2888
10320TIP3    H152375   2.883   2.130  12.673 -2.0122 -3.0290 -0.5976
10320TIP3    H252376   2.851   2.099  12.529  2.5005 -1.2352 -2.0597
10321TIP3   OH252377   0.114   2.612   1.290 -0.3887  0.2570 -0.1449
10321TIP3    H152378   0.120   2.610   1.385  1.3002 -0.8939 -0.2524
10321TIP3    H252379   0.081   2.699   1.270 -2.4653 -0.1050  1.5644
10322TIP3   OH252380   1.653   0.556  12.822 -0.0886  0.3573 -0.6025
10322TIP3    H152381   1.700   0.472  12.817  0.3496  0.4443  1.3369
10322TIP3    H252382   1.639   0.582  12.731  1.5048 -0.8676 -1.2199
10323TIP3   OH252383   6.050   1.839  15.504 -0.2660 -0.2775  0.0180
10323TIP3    H152384   5.958   1.854  15.525 -0.4900 -0.7993 -0.5437
10323TIP3    H252385   6.055   1.746  15.482  0.3298 -0.1832 -0.2799
10324TIP3   OH252386   4.402   1.636   1.708  0.7224 -0.2358  0.4860
10324TIP3    H152387   4.482   1.653   1.758  0.1051  1.5217  0.9066
10324TIP3    H252388   4.432   1.619   1.619  1.5633  0.4851  0.6305
10325TIP3   OH252389   2.012   2.375  14.574 -0.1733  0.3264  0.3967
10325TIP3    H152390   2.005   2.419  14.489  0.7573 -1.4094 -0.5931
10325TIP3    H252391   1.923   2.378  14.609 -0.6663  0.6712 -0.8334
10326TIP3   OH252392   5.029   6.005  13.633  0.1782  0.0213 -0.5672
10326TIP3    H152393   5.013   6.093  13.598  2.1106  0.5873 -0.0684
10326TIP3    H252394   4.941   5.972  13.655 -0.7011  1.2231 -2.1500
10327TIP3   OH252395   1.138   4.203   3.589  0.1920 -0.0831  0.0755
10327TIP3    H152396   1.059   4.238   3.631  0.1996 -0.1125  0.1140
10327TIP3    H252397   1.201   4.275   3.592 -0.2349  0.3528 -1.0486
10328TIP3   OH252398   0.357   4.846  14.590 -0.2871 -0.8207 -0.7266
10328TIP3    H152399   0.268   4.814  14.581 -0.6208  0.0681 -0.6067
10328TIP3    H252400   0.355   4.903  14.667 -0.2491  1.3538 -2.2806
10329TIP3   OH252401   0.710   1.337   4.823  0.0279 -0.1025 -0.2483
10329TIP3    H152402   0.771   1.264   4.817  0.0875 -0.2120  1.4886
10329TIP3    H252403   0.624   1.297   4.835 -0.3834  0.0565 -2.4922
10330TIP3   OH252404   4.357   1.931   3.076  0.5918 -0.0209  0.0440
10330TIP3    H152405   4.315   1.898   3.155  1.2296  0.7152  0.7026
10330TIP3    H252406   4.368   1.854   3.020  0.4959 -0.6166  0.8362
10331TIP3   OH252407   1.269   2.862   5.450 -0.0651 -0.0156  0.1349
10331TIP3    H152408   1.262   2.917   5.529 -1.8842 -0.3477  0.2273
10331TIP3    H252409   1.180   2.858   5.416  0.3311 -1.6580 -0.7436
10332TIP3   OH252410   0.702   3.132   2.554 -0.1370  0.4137 -0.4646
10332TIP3    H152411   0.624   3.184   2.575 -0.7198  0.3212 -2.2683
10332TIP3    H252412   0.740   3.111   2.639 -2.9541 -0.8697  0.5421
10333TIP3   OH252413   6.631   0.964  13.120 -0.1657 -0.1136  0.2596
10333TIP3    H152414   6.647   0.975  13.026  1.0610 -2.0060  0.2200
10333TIP3    H252415   6.535   0.957  13.127 -0.1900 -1.1644 -0.9848
10334TIP3   OH252416   5.575   2.308   5.372 -0.1240  0.5884 -0.3851
10334TIP3    H152417   5.543   2.393   5.339 -1.9895  0.1049  0.1052
10334TIP3    H252418   5.516   2.287   5.444  1.9547  0.1032  1.2207
10335TIP3   OH252419   5.789   0.249  14.056 -0.0567 -0.0493  0.0570
10335TIP3    H152420   5.743   0.333  14.053  1.6929  0.8841 -2.8309
10335TIP3    H252421   5.803   0.232  14.149 -3.1436  1.3170  0.8250
10336TIP3   OH252422   6.103   6.609  12.190  0.6125 -0.2844  0.4567
10336TIP3    H152423   6.117   6.539  12.254 -0.0513 -2.4972 -1.7307
10336TIP3    H252424   6.185   6.659  12.190  2.1109 -2.6758  0.1913
10337TIP3   OH252425   1.527   2.293   4.428 -0.2448 -0.0531  0.2341
10337TIP3    H152426   1.486   2.323   4.509 -1.5200 -0.4162 -0.2724
10337TIP3    H252427   1.527   2.197   4.435 -3.2884 -0.2344 -1.5953
10338TIP3   OH252428   3.736   4.650   2.429  0.1910 -0.6067  0.3549
10338TIP3    H152429   3.716   4.639   2.522 -0.4086 -0.1972  0.2769
10338TIP3    H252430   3.665   4.607   2.383  0.0928 -0.1599  0.0806
10339TIP3   OH252431   0.920   3.663  15.958 -0.1891  0.2917  0.7332
10339TIP3    H152432   0.933   3.568  15.965  0.5681  0.4647  1.7303
10339TIP3    H252433   0.841   3.680  16.009  0.2502  0.3254  1.4147
10340TIP3   OH252434   5.580   1.152   3.247 -0.5464  0.8169  0.1602
10340TIP3    H152435   5.538   1.213   3.307  0.6233  1.8538 -0.0438
10340TIP3    H252436   5.525   1.153   3.169 -1.8930 -0.2912  1.0780
10341TIP3   OH252437   2.753   6.693  17.163 -0.5567 -0.4164 -0.0895
10341TIP3    H152438   2.755   6.702  17.258 -2.3757 -1.0903  0.0208
10341TIP3    H252439   2.831   6.640  17.142 -0.5794 -0.9223  1.0878
10342TIP3   OH252440   5.113   0.578   0.706  0.9644 -0.0941 -0.4463
10342TIP3    H152441   5.188   0.596   0.650  1.2199  0.7314  0.1588
10342TIP3    H252442   5.137   0.498   0.753  0.3792 -1.3016 -2.1520
10343TIP3   OH252443   4.560   0.193  15.077 -0.0418  0.1267  0.0579
10343TIP3    H152444   4.535   0.192  15.170  1.0334  1.7891  0.3992
10343TIP3    H252445   4.635   0.253  15.074  1.8927 -2.2755 -1.4025
10344TIP3   OH252446   4.007   4.741   3.290  0.0637 -0.1326 -0.2254
10344TIP3    H152447   3.925   4.692   3.281 -0.4896  0.5740  0.8227
10344TIP3    H252448   4.072   4.674   3.309 -0.1180 -0.7878 -1.7949
10345TIP3   OH252449   0.618   5.250   1.814  0.2912  0.3923 -0.0267
10345TIP3    H152450   0.674   5.245   1.891 -0.6605  1.8299  0.7746
10345TIP3    H252451   0.583   5.339   1.814 -1.1358 -0.1308 -1.1144
10346TIP3   OH252452   5.545   0.430  12.891  0.3067  0.0243  0.0015
10346TIP3    H152453   5.542   0.336  12.907 -1.7671  0.2661  1.2612
10346TIP3    H252454   5.622   0.460  12.940  1.9505 -1.2075 -1.7457
10347TIP3   OH252455   6.540   6.522  13.084  0.0779  0.1452 -0.5875
10347TIP3    H152456   6.503   6.608  13.065 -2.7181 -1.0040 -0.5526
10347TIP3    H252457   6.566   6.527  13.176 -0.6141  0.7751 -0.4211
10348TIP3   OH252458   1.606   0.504  15.919 -0.2512 -0.7045 -0.4730
10348TIP3    H152459   1.699   0.525  15.930  0.0362 -2.1346 -0.1031
10348TIP3    H252460   1.571   0.577  15.868  0.9469  0.1418 -0.1006
10349TIP3   OH252461   3.808   2.982  15.393  0.3846 -0.0342  0.2145
10349TIP3    H152462   3.877   3.037  15.354 -0.9571  2.0893  0.7364
10349TIP3    H252463   3.816   2.898  15.349  3.5466  0.0543  0.4929
10350TIP3   OH252464   6.419   4.321  12.531  0.4785  0.6688  0.2670
10350TIP3    H152465   6.357   4.338  12.602 -0.8354 -1.7577 -0.2324
10350TIP3    H252466   6.427   4.226  12.529  0.3452  0.6712 -2.9660
10351TIP3   OH252467   0.138   3.651  12.759  0.1300 -0.2377  0.5075
10351TIP3    H152468   0.076   3.722  12.746 -0.6512 -1.0879 -0.4962
10351TIP3    H252469   0.098   3.595  12.825  0.6860  0.1765  1.2036
10352TIP3   OH252470   1.682   1.598   2.298 -0.2499  0.0607  0.3314
10352TIP3    H152471   1.663   1.651   2.375  0.4529  2.4493 -1.0857
10352TIP3    H252472   1.660   1.508   2.324  0.9628  0.6584  3.6291
10353TIP3   OH252473   4.019   6.470  15.546  0.2019  0.1245  0.0169
10353TIP3    H152474   4.060   6.450  15.462 -0.3478 -2.9801  0.4555
10353TIP3    H252475   4.077   6.536  15.585  0.1935  2.0533 -2.9661
10354TIP3   OH252476   0.496   6.472  16.583 -0.5297 -0.0011 -0.5244
10354TIP3    H152477   0.478   6.440  16.672 -1.5256  1.1831 -0.2934
10354TIP3    H252478   0.570   6.531  16.593 -1.2119  0.8326 -0.3307
10355TIP3   OH252479   4.000   1.141   2.449 -0.0030 -0.1687  0.0631
10355TIP3    H152480   3.999   1.198   2.526  0.9860  2.7899 -2.0412
10355TIP3    H252481   3.908   1.124   2.429 -0.2713 -0.5905  1.6031
10356TIP3   OH252482   4.964   4.953  14.043 -0.0609 -0.1984  0.3372
10356TIP3    H152483   4.922   5.038  14.028  1.0201  0.6709  2.0939
10356TIP3    H252484   4.893   4.889  14.031 -0.8304  0.9185 -1.2523
10357TIP3   OH252485   4.991   1.351  12.538 -0.3599 -0.5215 -0.0015
10357TIP3    H152486   5.067   1.305  12.502  0.7636  0.7545  0.6854
10357TIP3    H252487   4.966   1.413  12.469  1.2529  1.3157  1.0224
10358TIP3   OH252488   6.341   0.685   6.097 -0.7222 -0.2739  0.0685
10358TIP3    H152489   6.275   0.681   6.028 -0.9129  1.4007  0.1494
10358TIP3    H252490   6.392   0.763   6.078  0.0882 -0.5443  1.0569
10359TIP3   OH252491   2.142   0.481  17.137  0.2523  0.4822  0.2290
10359TIP3    H152492   2.137   0.569  17.173  2.3182  0.5218  0.4796
10359TIP3    H252493   2.198   0.433  17.199  0.6057 -0.5030 -0.8314
10360TIP3   OH252494   3.592   4.235   2.186  1.0760  0.5412  0.0612
10360TIP3    H152495   3.686   4.222   2.174  1.1859  1.4750 -0.0882
10360TIP3    H252496   3.582   4.328   2.204  0.0282  0.7406 -1.3999
10361TIP3   OH252497   1.241   5.615  12.805  0.0126 -0.1165 -0.7685
10361TIP3    H152498   1.180   5.685  12.780 -1.3849 -0.8977  0.3840
10361TIP3    H252499   1.186   5.538  12.816  1.5784 -1.4664 -2.1939
10362TIP3   OH252500   0.311   5.326  11.405  0.3661  0.4341  0.1177
10362TIP3    H152501   0.388   5.314  11.460  1.0144 -0.3866 -0.9456
10362TIP3    H252502   0.274   5.238  11.395 -1.2479  0.9299  1.3448
10363TIP3   OH252503   5.476   3.460   6.396 -0.0320  0.2618  0.4494
10363TIP3    H152504   5.534   3.401   6.444  0.1101 -0.3751 -0.5020
10363TIP3    H252505   5.401   3.473   6.455 -0.8507 -2.2062 -0.0022
10364TIP3   OH252506   4.359   0.106  11.361  0.4228 -0.2044 -0.1717
10364TIP3    H152507   4.349   0.062  11.277 -2.2057 -0.1529  0.0889
10364TIP3    H252508   4.399   0.039  11.418 -1.4594 -1.5318 -0.3893
10365TIP3   OH252509   3.297   6.377   4.074 -0.7879 -0.3433  0.2480
10365TIP3    H152510   3.272   6.440   4.141  0.0940 -0.5745  0.7944
10365TIP3    H252511   3.385   6.349   4.098 -0.5175 -0.5371 -0.9224
10366TIP3   OH252512   2.165   0.960  14.242 -0.5856  0.2697  0.2561
10366TIP3    H152513   2.139   0.948  14.151 -1.3510 -1.3799  0.6618
10366TIP3    H252514   2.148   1.052  14.261 -2.3706  0.1515 -0.6748
10367TIP3   OH252515   5.229   4.170   2.652  0.0761 -0.8187  0.1937
10367TIP3    H152516   5.252   4.136   2.739  0.8995  0.4719  0.4811
10367TIP3    H252517   5.288   4.243   2.638 -1.1269 -0.0171 -0.7891
10368TIP3   OH252518   6.475   5.146  14.848  1.0349  0.2558  0.2703
10368TIP3    H152519   6.516   5.192  14.775  0.8028 -0.9866 -0.6597
10368TIP3    H252520   6.529   5.068  14.860  0.8813  0.2951  1.2150
10369TIP3   OH252521   3.513   4.223   2.752  0.2883  0.3036 -0.0394
10369TIP3    H152522   3.491   4.248   2.662  0.9967 -1.2476 -0.6539
10369TIP3    H252523   3.430   4.230   2.799 -0.5474 -0.9214 -1.2801
10370TIP3   OH252524   2.318   3.552   3.581 -0.4068  0.8405 -0.3052
10370TIP3    H152525   2.314   3.486   3.511 -1.8496  0.2829  0.2811
10370TIP3    H252526   2.379   3.515   3.645 -1.5518 -0.1353  0.2296
10371TIP3   OH252527   5.304   5.908   3.403  0.1476  0.1739 -0.2181
10371TIP3    H152528   5.363   5.838   3.374 -1.0829 -0.7036 -0.6933
10371TIP3    H252529   5.285   5.887   3.495 -1.3402 -0.9639 -0.7542
10372TIP3   OH252530   1.468   2.699   5.721  0.1572 -0.2755  0.1581
10372TIP3    H152531   1.461   2.785   5.679  0.9429 -0.9572 -1.4377
10372TIP3    H252532   1.382   2.659   5.708  0.2372 -0.2796 -0.4045
10373TIP3   OH252533   0.748   4.319   1.178 -0.4122  0.5206 -0.2744
10373TIP3    H152534   0.799   4.241   1.158 -0.7466  0.9020 -2.7771
10373TIP3    H252535   0.802   4.367   1.240  1.2509 -0.1967 -1.1236
10374TIP3   OH252536   4.110   0.885   3.680  0.1979 -0.3724  0.5670
10374TIP3    H152537   4.059   0.810   3.709  1.2347 -1.5851 -0.6555
10374TIP3    H252538   4.077   0.904   3.592  0.3202  0.2473  0.6542
10375TIP3   OH252539   0.827   5.080   5.366  0.3145  0.2083 -0.7724
10375TIP3    H152540   0.846   5.075   5.460 -1.4579  0.3022 -0.3934
10375TIP3    H252541   0.820   4.988   5.338  2.3219  0.1383 -1.1574
10376TIP3   OH252542   2.307   0.000   0.731 -0.2619 -0.0762 -0.0225
10376TIP3    H152543   2.244  -0.053   0.781  0.0600 -1.0566 -0.6481
10376TIP3    H252544   2.254   0.047   0.667 -0.1941 -2.1331 -1.6183
10377TIP3   OH252545   1.519   4.668   0.484 -0.2278 -0.4428 -0.1988
10377TIP3    H152546   1.542   4.672   0.577 -2.8473  0.3404  0.4548
10377TIP3    H252547   1.540   4.578   0.459  0.3247 -0.7193  1.1923
10378TIP3   OH252548   1.770   2.287   3.780 -0.3786 -0.2505  0.2139
10378TIP3    H152549   1.696   2.270   3.722 -0.7672  0.0447  0.6241
10378TIP3    H252550   1.732   2.291   3.868 -0.1228  1.5179  0.2528
10379TIP3   OH252551   2.411   6.738  14.297 -0.2992 -0.3949 -0.3596
10379TIP3    H152552   2.467   6.676  14.344 -0.6240 -0.1807  0.3170
10379TIP3    H252553   2.322   6.714  14.324 -0.3366  1.4462  1.2504
10380TIP3   OH252554   5.667   1.679   1.407 -0.1736  0.1000 -0.5356
10380TIP3    H152555   5.631   1.695   1.320  0.6425  0.6243 -0.7809
10380TIP3    H252556   5.749   1.632   1.391  0.1563  0.5112 -0.0789
10381TIP3   OH252557   0.054   3.687  15.408 -0.0337  0.2570 -0.1346
10381TIP3    H152558   0.144   3.666  15.432 -0.8448 -2.0341  1.0673
10381TIP3    H252559   0.015   3.725  15.487 -0.2891  0.7268 -0.4789
10382TIP3   OH252560   5.693   3.630   0.427  0.3956  0.1002  0.0359
10382TIP3    H152561   5.662   3.612   0.338 -0.3418 -1.5817  0.6234
10382TIP3    H252562   5.615   3.659   0.474  0.3958 -0.8221  0.6172
10383TIP3   OH252563   3.116   5.188  15.827  0.4415 -0.0249  0.0077
10383TIP3    H152564   3.068   5.105  15.822  0.9965 -0.5588  2.7892
10383TIP3    H252565   3.198   5.165  15.870  1.5971  1.5832 -1.2885
10384TIP3   OH252566   6.364   1.621  15.328  0.2407  0.0839 -0.2340
10384TIP3    H152567   6.394   1.663  15.248  3.6884 -0.2851  0.7655
10384TIP3    H252568   6.414   1.540  15.333 -0.8943 -0.5488  1.6022
10385TIP3   OH252569   2.168   5.648  14.414 -0.4632  0.1444  0.1749
10385TIP3    H152570   2.172   5.740  14.388 -0.2633 -0.2649 -1.2818
10385TIP3    H252571   2.251   5.632  14.460 -0.3012  0.5755  0.0337
10386TIP3   OH252572   0.699   6.117   3.938 -0.1850  0.3715 -0.0056
10386TIP3    H152573   0.757   6.171   3.992  2.6649 -1.0283 -1.5735
10386TIP3    H252574   0.686   6.169   3.858  0.2961 -0.0649 -0.3661
10387TIP3   OH252575   1.881   6.019   1.910  0.4196 -0.3700  0.0152
10387TIP3    H152576   1.938   6.091   1.938 -0.9960  0.6534  0.3464
10387TIP3    H252577   1.795   6.060   1.899 -0.0704 -1.7293 -1.2622
10388TIP3   OH252578   2.023   6.212   3.835  0.2363 -0.5428  0.0986
10388TIP3    H152579   2.029   6.297   3.791  0.0811 -0.0564  1.0088
10388TIP3    H252580   2.013   6.149   3.764 -0.5519  0.2899 -0.5399
10389TIP3   OH252581   1.707   4.863   2.634 -0.5401  0.5382  0.5105
10389TIP3    H152582   1.647   4.850   2.561 -0.3401 -0.0900  0.4482
10389TIP3    H252583   1.694   4.953   2.661  0.0046  1.0520 -0.8610
10390TIP3   OH252584   3.987   5.657   0.219  0.3470  0.2808  0.0978
10390TIP3    H152585   3.966   5.746   0.190 -1.2879  0.6999  2.4065
10390TIP3    H252586   3.903   5.621   0.248  1.2496 -1.4940  0.5709
10391TIP3   OH252587   0.355   4.680  14.985  0.5963 -0.7857  0.2613
10391TIP3    H152588   0.438   4.727  14.993  0.7491 -0.8103 -1.1667
10391TIP3    H252589   0.291   4.748  14.964  0.4498 -0.9323  0.2286
10392TIP3   OH252590   3.888   4.996  16.827  0.0698  0.1279 -0.3996
10392TIP3    H152591   3.919   5.085  16.810 -0.4765  0.1138 -1.5180
10392TIP3    H252592   3.854   5.000  16.916 -0.3245  1.1419 -0.5814
10393TIP3   OH252593   0.510   5.458   2.475 -0.7746 -0.6714  0.8336
10393TIP3    H152594   0.565   5.526   2.513 -1.4705  0.2998  0.1372
10393TIP3    H252595   0.461   5.503   2.405 -1.4693 -1.8115  0.5731
10394TIP3   OH252596   3.483   1.750  16.594 -0.4173  0.0113  0.8318
10394TIP3    H152597   3.491   1.791  16.508  2.5224 -0.2584  0.9133
10394TIP3    H252598   3.508   1.659  16.580  1.7141  0.3370  2.2186
10395TIP3   OH252599   3.347   3.217  10.970  0.3555  0.7030 -0.0851
10395TIP3    H152600   3.339   3.198  10.877  0.7518 -0.7615  0.1643
10395TIP3    H252601   3.324   3.310  10.978 -3.2469 -0.0194 -1.1760
10396TIP3   OH252602   4.028   2.798  10.818 -0.3953  0.1259  0.4681
10396TIP3    H152603   4.070   2.715  10.795 -1.1529 -0.5500  1.4936
10396TIP3    H252604   3.965   2.812  10.747 -0.0461 -0.0135  0.1252
10397TIP3   OH252605   3.168   4.044   2.945  0.1050  0.1019 -0.4241
10397TIP3    H152606   3.085   4.053   2.898 -0.1866  1.1582  0.2585
10397TIP3    H252607   3.150   4.078   3.032  0.7781 -1.3808  0.3031
10398TIP3   OH252608   1.038   5.826   1.854 -0.3461 -0.4040 -0.0324
10398TIP3    H152609   1.001   5.868   1.777 -0.1139 -0.4457 -0.1679
10398TIP3    H252610   1.111   5.774   1.820  1.6140  1.8681  0.5715
10399TIP3   OH252611   6.273   0.773  14.502 -0.0857  0.5781 -0.7757
10399TIP3    H152612   6.238   0.715  14.434  0.9043 -0.3273 -0.5281
10399TIP3    H252613   6.196   0.809  14.545 -0.7111 -0.0334 -1.3764
10400TIP3   OH252614   4.011   2.861   5.628  0.4593  0.3057 -0.3020
10400TIP3    H152615   4.007   2.832   5.720  2.5648 -1.3819 -0.6813
10400TIP3    H252616   4.100   2.895   5.618  0.2284  0.5209 -1.6982
10401TIP3   OH252617   0.310   3.397  15.646  0.4037  0.4552 -0.1959
10401TIP3    H152618   0.375   3.378  15.579  0.4669  0.7129 -0.2055
10401TIP3    H252619   0.309   3.318  15.701 -0.0743  0.0075 -0.8387
10402TIP3   OH252620   5.032   5.947  14.423 -0.5869  0.1223 -0.4406
10402TIP3    H152621   4.981   5.989  14.354 -1.7267 -1.2043 -0.4268
10402TIP3    H252622   5.092   5.889  14.377 -0.9239 -0.3073 -0.3345
10403TIP3   OH252623   2.666   2.061  13.672 -0.0530 -0.7425  0.1134
10403TIP3    H152624   2.592   2.094  13.620  0.2674 -0.2385 -0.0317
10403TIP3    H252625   2.668   2.119  13.749 -0.5076 -1.4685  0.6761
10404TIP3   OH252626   4.792   3.361  12.214  0.6401  0.3105  0.8862
10404TIP3    H152627   4.770   3.291  12.275  2.0876  1.1467  2.4191
10404TIP3    H252628   4.712   3.375  12.163 -0.8283  0.0926  3.0724
10405TIP3   OH252629   4.547   5.248  16.076 -0.2620 -0.2643 -0.0440
10405TIP3    H152630   4.591   5.184  16.131 -2.6461 -1.5187  0.4769
10405TIP3    H252631   4.468   5.271  16.124 -0.5467  1.4222 -1.2564
10406TIP3   OH252632   3.232   5.263   3.056 -0.4619  0.8729 -0.2647
10406TIP3    H152633   3.205   5.235   2.969  3.0400  0.8878 -1.3909
10406TIP3    H252634   3.251   5.356   3.046  0.9059  0.6588  0.2545
10407TIP3   OH252635   1.565   1.493  17.151  0.1540 -0.1299  0.9933
10407TIP3    H152636   1.586   1.586  17.159  1.1969 -0.2159 -0.4837
10407TIP3    H252637   1.490   1.490  17.092  0.7596 -0.2805  0.2261
10408TIP3   OH252638   0.406   1.600   1.362 -0.3489 -0.5426  0.0823
10408TIP3    H152639   0.361   1.674   1.321  0.3996  1.1361  2.2038
10408TIP3    H252640   0.490   1.637   1.392  1.3882 -2.9983 -1.5582
10409TIP3   OH252641   1.766   2.827  15.273 -0.5793 -0.0082 -0.1862
10409TIP3    H152642   1.770   2.787  15.186 -1.1931  1.6899 -1.0293
10409TIP3    H252643   1.719   2.764  15.327  1.2585 -1.8360 -0.6440
10410TIP3   OH252644   3.254   5.100   2.785  0.5014 -0.3796  0.4049
10410TIP3    H152645   3.182   5.052   2.743  1.1845 -0.8798 -0.2115
10410TIP3    H252646   3.310   5.126   2.712  0.3391  1.0364  0.7687
10411TIP3   OH252647   5.299   4.873  11.370 -0.1371  0.1173  0.3113
10411TIP3    H152648   5.231   4.842  11.430  1.0293  0.0229  1.6280
10411TIP3    H252649   5.381   4.851  11.414  0.8132 -1.8976 -2.3368
10412TIP3   OH252650   6.312   6.759   0.752 -0.0306 -0.0149 -0.3409
10412TIP3    H152651   6.341   6.764   0.843  2.4281  1.4860 -1.1850
10412TIP3    H252652   6.219   6.783   0.756  0.1810  0.5912  1.6679
10413TIP3   OH252653   5.770   3.563   5.449 -0.6100 -0.1368  0.1214
10413TIP3    H152654   5.849   3.601   5.486  0.0012 -0.4110 -0.8978
10413TIP3    H252655   5.744   3.496   5.513 -0.7365  0.8139  1.0745
10414TIP3   OH252656   0.880   2.863   2.001 -0.6148 -0.1151  0.7760
10414TIP3    H152657   0.851   2.812   1.926 -0.8847 -0.4233  1.0891
10414TIP3    H252658   0.957   2.911   1.969 -1.7278  1.0586 -0.2006
10415TIP3   OH252659   2.003   3.671   1.304  0.2285  0.0037 -0.0489
10415TIP3    H152660   2.074   3.632   1.252 -0.3269  0.0595 -0.8498
10415TIP3    H252661   1.993   3.759   1.268  2.2770  1.3728  2.5212
10416TIP3   OH252662   2.332   4.619   0.382 -0.5112 -0.8004  0.5059
10416TIP3    H152663   2.410   4.590   0.429 -0.4340 -1.5463 -0.0649
10416TIP3    H252664   2.352   4.599   0.290  0.0820  2.2518 -0.0936
10417TIP3   OH252665   0.144   1.563   5.808  0.0890  0.0930  0.1276
10417TIP3    H152666   0.095   1.574   5.890  1.1915  0.0302  0.8041
10417TIP3    H252667   0.186   1.477   5.817  0.2173  0.0906 -0.5042
10418TIP3   OH252668   1.915   1.710  11.218  0.7508 -0.3285  0.0399
10418TIP3    H152669   1.923   1.704  11.314  2.8738 -0.8465 -0.1576
10418TIP3    H252670   1.900   1.620  11.190  0.6025 -0.2367 -0.1764
10419TIP3   OH252671   4.631   2.958   2.476  0.1061  0.0454  0.0171
10419TIP3    H152672   4.660   2.972   2.566 -1.4643  0.3879  0.4837
10419TIP3    H252673   4.644   2.864   2.461 -0.7169 -0.2409  1.0132
10420TIP3   OH252674   3.185   4.949  13.623  0.2058 -0.0788 -0.0060
10420TIP3    H152675   3.213   4.900  13.701 -1.0510 -2.5320 -1.0650
10420TIP3    H252676   3.266   4.984  13.587  0.9217  0.1828  1.7904
10421TIP3   OH252677   4.224   2.854   0.773  0.3970  0.6112 -0.3265
10421TIP3    H152678   4.317   2.831   0.767  0.0798 -1.4557  1.8893
10421TIP3    H252679   4.183   2.811   0.698  1.1531  1.2754 -1.1340
10422TIP3   OH252680   0.140   4.816   3.505 -0.2496  0.8606 -0.2960
10422TIP3    H152681   0.198   4.776   3.570 -0.9488 -2.3626 -1.5592
10422TIP3    H252682   0.196   4.828   3.428 -1.2928 -3.0678 -1.8181
10423TIP3   OH252683   4.163   4.368  14.959  0.1898  0.1932 -0.1954
10423TIP3    H152684   4.111   4.330  15.029 -2.6177  0.7568 -1.8838
10423TIP3    H252685   4.248   4.385  14.999 -0.6364 -1.5204  2.4341
10424TIP3   OH252686   1.666   4.693  16.106 -0.1873 -0.2517 -0.7781
10424TIP3    H152687   1.754   4.714  16.073  0.6482 -1.1532  0.8378
10424TIP3    H252688   1.617   4.668  16.027  0.8884  0.6110 -1.7446
10425TIP3   OH252689   4.224   0.074  11.764  0.7227  0.3332 -0.3875
10425TIP3    H152690   4.135   0.100  11.788  0.1354 -1.6953 -0.2836
10425TIP3    H252691   4.261   0.038  11.845  1.6011  1.0149 -0.4727
10426TIP3   OH252692   2.032   6.754  12.069 -0.0587 -0.2449 -0.3768
10426TIP3    H152693   2.075   6.743  11.984  0.4800 -2.2141  0.1192
10426TIP3    H252694   2.021   6.665  12.102  0.6682  0.5301  2.0776
10427TIP3   OH252695   0.417   1.333  10.944  0.6103 -0.6941  0.0579
10427TIP3    H152696   0.387   1.370  10.862  1.2270  0.6332  0.4137
10427TIP3    H252697   0.337   1.313  10.993  0.2610  1.0665  0.2397
10428TIP3   OH252698   1.396   3.873  11.277  0.3476 -0.1574  0.6953
10428TIP3    H152699   1.477   3.841  11.315 -0.6955 -0.9969  2.2512
10428TIP3    H252700   1.384   3.960  11.316  0.4504 -0.0602  0.5139
10429TIP3   OH252701   6.309   3.253   1.882  0.0559 -0.2892 -0.2330
10429TIP3    H152702   6.305   3.158   1.868  0.4356 -0.3752  0.2204
10429TIP3    H252703   6.227   3.286   1.846  0.3590 -0.6778 -1.2952
10430TIP3   OH252704   0.785   0.855  17.164  0.2586 -0.3091 -0.2659
10430TIP3    H152705   0.806   0.934  17.213 -1.7240 -0.4969  0.9435
10430TIP3    H252706   0.858   0.844  17.103  1.4151  1.4561  0.7683
10431TIP3   OH252707   0.372   2.898  17.182  0.0180 -0.2621 -0.4376
10431TIP3    H152708   0.289   2.858  17.155 -0.2681  0.0703 -0.0644
10431TIP3    H252709   0.378   2.977  17.128 -1.1296  1.0264  1.2576
10432TIP3   OH252710   1.286   0.846  15.025  0.0774  0.1856 -0.9381
10432TIP3    H152711   1.331   0.806  14.950 -0.9219  0.4609 -1.7032
10432TIP3    H252712   1.213   0.893  14.985 -0.5193  0.2536  0.2377
10433TIP3   OH252713   6.340   6.059   3.729 -0.1005  0.1689 -0.7621
10433TIP3    H152714   6.391   6.087   3.654 -0.2334 -0.3285 -1.0425
10433TIP3    H252715   6.252   6.043   3.694 -0.3183  0.5271 -0.3849
10434TIP3   OH252716   5.889   0.444   5.001  0.0355 -0.0664 -0.2757
10434TIP3    H152717   5.838   0.427   5.080  0.0765 -0.2556 -0.2897
10434TIP3    H252718   5.824   0.456   4.932 -0.0292  1.0086 -0.0380
10435TIP3   OH252719   4.254   0.877   5.361  0.3548  0.3370  0.2237
10435TIP3    H152720   4.315   0.839   5.424  0.5061  0.3320  0.0744
10435TIP3    H252721   4.245   0.969   5.389  0.0450  0.2093  0.5410
10436TIP3   OH252722   0.298   0.168   1.622 -0.2292  0.1887 -0.4888
10436TIP3    H152723   0.370   0.220   1.659  0.3105  0.3714 -1.7661
10436TIP3    H252724   0.339   0.115   1.554 -0.5422 -2.8713  1.6362
10437TIP3   OH252725   0.993   1.907  12.832  0.0066  0.5417  0.2939
10437TIP3    H152726   1.063   1.843  12.843 -0.0573 -0.6046 -4.5269
10437TIP3    H252727   0.916   1.867  12.873  0.9383 -0.6478  0.8834
10438TIP3   OH252728   1.907   5.586   1.861 -0.1435  0.5581 -0.1301
10438TIP3    H152729   1.826   5.592   1.811  0.3283  1.6646 -0.7736
10438TIP3    H252730   1.904   5.661   1.920  0.8209  1.1213 -0.7775
10439TIP3   OH252731   4.222   4.846  14.150  0.1694  0.1660 -0.2386
10439TIP3    H152732   4.314   4.852  14.176 -0.2933  1.2089  1.2259
10439TIP3    H252733   4.203   4.929  14.108 -0.1218 -0.0147 -0.4631
10440TIP3   OH252734   1.604   0.445   0.038  0.0328  0.3802  0.4823
10440TIP3    H152735   1.624   0.352   0.033  0.4942  0.4894  0.2573
10440TIP3    H252736   1.509   0.449   0.043  0.0871 -0.1665  2.1449
10441TIP3   OH252737   6.518   5.414   1.886  0.3117 -0.2138 -0.0149
10441TIP3    H152738   6.431   5.437   1.919  0.6026 -0.0383  0.6202
10441TIP3    H252739   6.554   5.355   1.952  0.8688  0.0853 -0.0538
10442TIP3   OH252740   3.725   5.988   0.384 -0.0812 -0.0348  0.2862
10442TIP3    H152741   3.789   5.953   0.322 -0.3835  0.9335 -0.5668
10442TIP3    H252742   3.738   6.083   0.382 -1.6929  0.1891 -0.0414
10443TIP3   OH252743   6.063   5.061  15.911 -0.5391 -0.4663  0.7009
10443TIP3    H152744   6.046   5.097  15.823  2.8514 -0.4672  0.0092
10443TIP3    H252745   5.993   4.997  15.924 -1.3740 -0.1274 -1.8103
10444TIP3   OH252746   5.317   5.374  12.744 -0.2725 -0.2858 -0.3961
10444TIP3    H152747   5.401   5.330  12.735 -0.3076 -0.4101 -0.1251
10444TIP3    H252748   5.308   5.390  12.838  0.2115  1.2375 -0.5965
10445TIP3   OH252749   0.941   6.377  12.421  0.3092 -0.5459 -0.7515
10445TIP3    H152750   0.859   6.354  12.377  0.7814 -0.3583 -1.7427
10445TIP3    H252751   0.925   6.355  12.513 -1.4888  1.1402 -0.6203
10446TIP3   OH252752   1.955   1.843   1.552  0.2796  0.2677  0.6215
10446TIP3    H152753   2.029   1.897   1.581 -0.0768  0.8178  0.5080
10446TIP3    H252754   1.944   1.865   1.460 -1.8720  2.3722  1.3253
10447TIP3   OH252755   1.813   4.253   5.996  0.4995  0.2424  0.1048
10447TIP3    H152756   1.735   4.299   5.965  0.0629 -2.1852 -2.5719
10447TIP3    H252757   1.886   4.310   5.971 -0.3109  2.1776  1.9867
10448TIP3   OH252758   1.019   3.471   2.120  0.3142 -0.0373 -0.1426
10448TIP3    H152759   1.008   3.433   2.208 -0.1689 -0.2529 -0.2934
10448TIP3    H252760   0.930   3.477   2.085  0.3205  1.7907  0.0983
10449TIP3   OH252761   2.616   2.480  15.969 -0.0463 -0.2274  0.1729
10449TIP3    H152762   2.590   2.393  16.001  0.5459 -0.9608 -1.2819
10449TIP3    H252763   2.693   2.503  16.023  1.1870 -1.6206 -0.9437
10450TIP3   OH252764   6.656   4.404  10.562 -0.0188 -0.1728  0.5106
10450TIP3    H152765   6.740   4.448  10.568  1.0663 -2.1843  0.4486
10450TIP3    H252766   6.677   4.310  10.563 -2.0822 -0.7089 -1.9090
10451TIP3   OH252767   1.602   6.365   2.373 -0.5998  0.2166 -0.0647
10451TIP3    H152768   1.619   6.458   2.387 -0.8250  0.4011 -0.9715
10451TIP3    H252769   1.629   6.349   2.282 -1.7698 -0.3176 -0.3282
10452TIP3   OH252770   5.760   1.608  11.175 -0.6993  0.4189 -0.0930
10452TIP3    H152771   5.837   1.660  11.152 -0.2342 -0.8473 -1.5229
10452TIP3    H252772   5.729   1.574  11.091 -2.9141  1.0402  0.4589
10453TIP3   OH252773   2.937   5.787   1.916 -0.7546 -0.4664 -0.0879
10453TIP3    H152774   2.999   5.838   1.969 -0.4338 -1.0284  0.0769
10453TIP3    H252775   2.876   5.852   1.881 -0.2619  0.0519  0.0129
10454TIP3   OH252776   5.874   2.879  13.212  0.2421 -1.0113  0.2407
10454TIP3    H152777   5.955   2.872  13.262  0.5283  0.8650  0.0722
10454TIP3    H252778   5.898   2.853  13.123  0.7584 -0.0667  0.1007
10455TIP3   OH252779   2.272   0.158  15.762  0.0143 -0.0661  0.3799
10455TIP3    H152780   2.227   0.155  15.846 -0.2792  0.1258  0.2341
10455TIP3    H252781   2.201   0.160  15.698  0.2303 -0.9757  0.0971
10456TIP3   OH252782   4.642   4.440   1.660  0.3402 -0.1955 -0.3425
10456TIP3    H152783   4.621   4.517   1.608 -1.8645  0.2430  1.1470
10456TIP3    H252784   4.716   4.400   1.615 -0.4651  1.0816 -2.8699
10457TIP3   OH252785   4.876   3.433  11.765  0.2442 -0.0709 -0.8079
10457TIP3    H152786   4.951   3.415  11.821  1.1191 -0.7501 -2.1593
10457TIP3    H252787   4.914   3.444  11.677 -1.3022 -1.1071 -1.6188
10458TIP3   OH252788   4.539   0.697  17.104  0.0791 -0.1088 -0.2373
10458TIP3    H152789   4.508   0.755  17.173 -1.7707 -0.9692 -0.3346
10458TIP3    H252790   4.462   0.677  17.052  0.8299 -2.0452 -0.6628
10459TIP3   OH252791   1.295   2.843   1.087  0.1731  0.0752  0.1534
10459TIP3    H152792   1.222   2.846   1.149  1.0325  0.1592  1.1762
10459TIP3    H252793   1.262   2.793   1.013 -1.3570  1.2026  0.0482
10460TIP3   OH252794   3.719   3.145   4.473 -0.0934 -0.4776  0.2450
10460TIP3    H152795   3.808   3.145   4.506 -0.4029 -1.8970  1.1160
10460TIP3    H252796   3.729   3.150   4.378  0.8555  0.9746  0.3962
10461TIP3   OH252797   5.210   5.134   5.954 -0.2074 -0.4235 -0.0917
10461TIP3    H152798   5.305   5.141   5.957 -0.3008  1.0085 -0.4078
10461TIP3    H252799   5.182   5.150   6.044 -0.2397  0.4452 -0.2600
10462TIP3   OH252800   3.876   0.771  12.373  0.0047 -0.3588 -0.0158
10462TIP3    H152801   3.878   0.714  12.295 -2.8186 -1.7179  0.8475
10462TIP3    H252802   3.790   0.813  12.370 -0.2412 -0.6264  2.5162
10463TIP3   OH252803   1.582   6.380  13.260  0.2182  0.1268  0.3112
10463TIP3    H152804   1.673   6.380  13.229  0.5662 -1.6267  1.2610
10463TIP3    H252805   1.586   6.412  13.350 -0.2158  0.8565  0.0757
10464TIP3   OH252806   3.603   3.159   2.284 -0.5645 -0.1906 -0.4912
10464TIP3    H152807   3.643   3.073   2.282 -1.4160 -0.5723 -1.1770
10464TIP3    H252808   3.555   3.162   2.367  1.9910  0.7952  1.0247
10465TIP3   OH252809   4.348   6.082  15.994  0.3238  0.0003 -0.6371
10465TIP3    H152810   4.275   6.132  16.030  0.8349 -0.8864  1.7314
10465TIP3    H252811   4.375   6.024  16.066  2.7509 -0.3443 -1.7826
10466TIP3   OH252812   2.982   4.687  16.768 -0.0102 -0.1662  0.9721
10466TIP3    H152813   3.061   4.644  16.735 -0.3531  0.0122 -0.1032
10466TIP3    H252814   3.014   4.768  16.808  0.2859  0.2654 -0.1106
10467TIP3   OH252815   6.730   0.010  12.918  1.0204 -0.0686  0.2061
10467TIP3    H152816   6.712   0.103  12.931 -0.6227 -0.4891  1.1139
10467TIP3    H252817   6.737  -0.026  13.007  1.1671 -0.9091 -0.1347
10468TIP3   OH252818   6.401   3.118   2.589 -0.1142  0.4231  0.4030
10468TIP3    H152819   6.449   3.143   2.668  0.2751  1.4059 -0.1505
10468TIP3    H252820   6.333   3.184   2.580  1.6020  1.9687 -1.6816
10469TIP3   OH252821   5.069   2.473  11.622  0.7813 -0.5349 -0.6953
10469TIP3    H152822   5.152   2.427  11.634  1.6661  1.4799  1.3109
10469TIP3    H252823   5.093   2.565  11.616 -1.2071 -0.0417 -1.6101
10470TIP3   OH252824   0.696   4.276   2.942 -0.6901 -0.5096 -0.4135
10470TIP3    H152825   0.697   4.244   3.033 -2.8588 -4.1463 -1.5613
10470TIP3    H252826   0.618   4.332   2.937 -0.4903 -0.1924  0.0034
10471TIP3   OH252827   3.716   1.379   1.632 -0.1000  0.1482 -0.3326
10471TIP3    H152828   3.769   1.455   1.608  1.0907 -0.6451 -0.2294
10471TIP3    H252829   3.676   1.403   1.716  1.9171 -0.1568  0.7267
10472TIP3   OH252830   2.013   3.817   4.663 -0.1846  0.3669  0.0130
10472TIP3    H152831   2.036   3.897   4.711  0.9721 -0.0001  0.0901
10472TIP3    H252832   1.939   3.842   4.607 -2.5270  0.4659  3.0082
10473TIP3   OH252833   1.833   6.492  13.477 -0.3979  0.2677 -0.5641
10473TIP3    H152834   1.797   6.541  13.403 -2.0440  1.6874  1.1238
10473TIP3    H252835   1.897   6.552  13.517 -1.6201  0.6496  0.8602
10474TIP3   OH252836   0.426   3.555   4.976  0.1906  0.3950  0.1739
10474TIP3    H152837   0.496   3.619   4.971  0.7221 -0.3095 -2.0287
10474TIP3    H252838   0.357   3.590   4.920 -0.8625  0.6082  1.5580
10475TIP3   OH252839   3.817   5.135  13.391  0.0837  0.1260 -0.1665
10475TIP3    H152840   3.753   5.076  13.350 -1.2423  1.7217 -0.4513
10475TIP3    H252841   3.808   5.117  13.485 -1.1520  0.6859 -0.1667
10476TIP3   OH252842   0.745   0.728   6.615  0.1087  0.0283  1.2662
10476TIP3    H152843   0.827   0.744   6.568 -1.5395  2.1164 -1.0341
10476TIP3    H252844   0.735   0.804   6.672 -1.0392  0.6949  0.2294
10477TIP3   OH252845   1.905   4.771   3.736 -0.5170  0.7361  0.0904
10477TIP3    H152846   1.894   4.825   3.814 -0.1152  0.9206  0.0179
10477TIP3    H252847   1.874   4.684   3.762  1.0665  0.4115  0.9085
10478TIP3   OH252848   1.379   1.506   2.464  0.9254  0.0795 -0.4177
10478TIP3    H152849   1.321   1.568   2.508  0.7379 -0.5793  0.2856
10478TIP3    H252850   1.333   1.482   2.384  1.3756  1.4746 -1.1203
10479TIP3   OH252851   0.185   6.052   2.367  0.4056  0.2573  0.4355
10479TIP3    H152852   0.219   6.021   2.451  0.8216 -0.3200  0.0546
10479TIP3    H252853   0.252   6.027   2.303 -1.3297 -2.0714 -0.5321
10480TIP3   OH252854   3.463   3.021  13.649  0.0320 -0.0997  0.4652
10480TIP3    H152855   3.437   3.032  13.557 -0.9111 -0.4053  0.6885
10480TIP3    H252856   3.546   3.067  13.656  0.5939 -0.8943 -0.7836
10481TIP3   OH252857   0.171   3.925  11.299  0.0781  0.5291  0.1900
10481TIP3    H152858   0.256   3.898  11.266  0.8657  0.1577  2.4235
10481TIP3    H252859   0.129   3.843  11.327 -1.2964  0.6279 -1.4467
10482TIP3   OH252860   5.735   2.538   4.556 -0.1637 -0.1085  0.0271
10482TIP3    H152861   5.817   2.489   4.567 -0.0582  0.1130  0.2289
10482TIP3    H252862   5.702   2.550   4.645 -0.6217 -0.5454 -0.0814
10483TIP3   OH252863   2.464   2.845   4.360  0.3975  0.3325 -0.0174
10483TIP3    H152864   2.385   2.886   4.323 -0.5695  0.2381  1.8738
10483TIP3    H252865   2.464   2.756   4.324 -0.0194  0.5191 -0.4928
10484TIP3   OH252866   0.331   2.333   1.450 -0.0355  0.1618  0.3605
10484TIP3    H152867   0.337   2.252   1.400  0.6042  1.0736 -1.0473
10484TIP3    H252868   0.376   2.399   1.397 -1.9186  1.8077  0.7558
10485TIP3   OH252869   1.726   0.783  15.844  0.0765 -0.0505 -0.0514
10485TIP3    H152870   1.713   0.876  15.860 -1.6207 -0.2734 -0.0129
10485TIP3    H252871   1.821   0.772  15.840  0.2775  1.7783 -0.7189
10486TIP3   OH252872   1.405   6.609  13.503  0.6069  0.2854  0.8257
10486TIP3    H152873   1.415   6.672  13.574  1.3435  0.2534  0.7511
10486TIP3    H252874   1.446   6.529  13.535 -1.5383 -0.6085  1.4708
10487TIP3   OH252875   0.394   6.430   4.484 -0.3383  0.4487  0.3591
10487TIP3    H152876   0.429   6.353   4.528  2.2570  0.1773 -2.0575
10487TIP3    H252877   0.307   6.403   4.454 -0.5795 -0.5966  1.9391
10488TIP3   OH252878   6.648   5.970  14.180 -0.8695 -0.0004  0.2683
10488TIP3    H152879   6.595   6.029  14.234  0.3188 -0.4561  1.9562
10488TIP3    H252880   6.733   6.013  14.174 -0.0564 -1.4401  1.3569
10489TIP3   OH252881   0.640   5.292   3.223 -0.3764 -0.7253 -0.5773
10489TIP3    H152882   0.660   5.358   3.156  2.0122 -0.6072  0.2304
10489TIP3    H252883   0.589   5.340   3.289  1.2081  0.2863 -0.0678
10490TIP3   OH252884   2.961   0.363   3.364 -0.1967 -0.0064  0.8987
10490TIP3    H152885   2.920   0.333   3.283 -2.2361  0.4355  1.7418
10490TIP3    H252886   3.055   0.354   3.348 -0.6031 -0.9141 -1.1240
10491TIP3   OH252887   5.883   2.499  11.004 -0.3186 -0.6187 -0.2967
10491TIP3    H152888   5.921   2.463  10.925 -0.9241  0.2841 -1.0075
10491TIP3    H252889   5.896   2.594  10.998  0.3220 -0.6055  1.0493
10492TIP3   OH252890   1.937   2.247  16.484  0.2865  0.0044  0.6979
10492TIP3    H152891   1.891   2.224  16.564 -1.2266 -1.0868 -0.4462
10492TIP3    H252892   1.981   2.166  16.457 -1.2499 -0.3365 -0.8680
10493TIP3   OH252893   5.971   0.492   6.576  0.2946  0.0229 -0.5516
10493TIP3    H152894   5.923   0.563   6.620 -0.0250 -0.8146  0.4675
10493TIP3    H252895   6.058   0.494   6.617  0.8409  0.9077 -1.7142
10494TIP3   OH252896   5.722   6.511   4.729  0.5863  0.0118 -0.3630
10494TIP3    H152897   5.633   6.493   4.699  0.1120  1.6390  0.0243
10494TIP3    H252898   5.721   6.490   4.822  0.8559 -0.7600 -0.5222
10495TIP3   OH252899   5.450   4.033  10.881 -0.3817 -0.2337 -0.3049
10495TIP3    H152900   5.386   4.008  10.947 -0.3532  2.3326  0.7693
10495TIP3    H252901   5.532   3.993  10.909 -0.7794 -0.7143  0.1739
10496TIP3   OH252902   5.342   3.283  15.228  0.0189 -0.2711  0.1293
10496TIP3    H152903   5.391   3.252  15.304 -0.5612 -0.7771  0.3084
10496TIP3    H252904   5.274   3.340  15.266 -1.1696 -1.6517  0.1435
10497TIP3   OH252905   2.692   4.323  15.871 -0.0620  0.0043  0.0308
10497TIP3    H152906   2.722   4.413  15.879  0.0901 -0.1508  1.5375
10497TIP3    H252907   2.615   4.318  15.927 -1.5259 -0.2118 -1.9603
10498TIP3   OH252908   6.128   4.333   0.978 -0.4420  0.4407  0.0717
10498TIP3    H152909   6.043   4.314   1.017  0.6530 -2.3227  1.2671
10498TIP3    H252910   6.125   4.291   0.892 -0.9404  1.9932 -0.6933
10499TIP3   OH252911   1.124   1.783  14.176 -0.9579 -0.6311  0.2906
10499TIP3    H152912   1.031   1.803  14.189 -1.1305 -0.1974 -1.4793
10499TIP3    H252913   1.126   1.726  14.099  0.2946 -0.1536 -0.0469
10500TIP3   OH252914   2.369   1.831  15.956 -0.3024  0.1462  0.2012
10500TIP3    H152915   2.382   1.862  15.866  0.2978  0.8642  0.5331
10500TIP3    H252916   2.322   1.902  16.000 -0.2713 -0.0490  0.5527
10501TIP3   OH252917   1.731   2.948   3.398 -0.1899  0.1331  0.3924
10501TIP3    H152918   1.781   2.874   3.434 -0.3994 -0.2557 -0.0949
10501TIP3    H252919   1.788   2.985   3.331  0.6291  1.5040  1.8086
10502TIP3   OH252920   6.002   0.609  14.000 -0.0738  0.3519 -0.3511
10502TIP3    H152921   5.933   0.622  13.936 -1.1246 -0.0328  0.6800
10502TIP3    H252922   6.031   0.519  13.987 -0.1290  0.3466 -0.4331
10503TIP3   OH252923   3.206   5.579  11.544  0.8211 -0.2579 -0.1941
10503TIP3    H152924   3.116   5.569  11.514  1.1760  0.8015 -1.7074
10503TIP3    H252925   3.200   5.595  11.638 -0.5436 -0.4390 -0.2470
10504TIP3   OH252926   4.213   3.015  14.357 -0.3441 -0.0768  0.0201
10504TIP3    H152927   4.193   2.998  14.449  0.8188 -1.7952 -0.0260
10504TIP3    H252928   4.260   3.098  14.357 -1.3477  0.4975  0.8474
10505TIP3   OH252929   0.532   2.785  11.713 -0.0572 -0.2596  0.3365
10505TIP3    H152930   0.513   2.829  11.631 -1.1038 -2.3094 -0.5678
10505TIP3    H252931   0.625   2.763  11.708  0.1637  0.6865  0.2377
10506TIP3   OH252932   0.416   3.055   1.601  0.8831 -0.2820 -0.1811
10506TIP3    H152933   0.510   3.059   1.619  1.0633 -1.4221 -0.8361
10506TIP3    H252934   0.375   3.098   1.676  1.8842 -0.5460  0.5198
10507TIP3   OH252935   0.109   4.212  13.759 -0.2664 -0.9680  0.3435
10507TIP3    H152936   0.177   4.271  13.791  0.4128 -1.2014 -0.6739
10507TIP3    H252937   0.076   4.169  13.838 -0.1395  0.0951  0.9858
10508TIP3   OH252938   2.573   5.619  16.511  0.1714  0.1664 -0.1858
10508TIP3    H152939   2.562   5.532  16.551 -0.5582 -0.2496 -1.2517
10508TIP3    H252940   2.566   5.680  16.584  0.5471 -0.6624  0.5596
10509TIP3   OH252941   5.533   2.291   4.006  0.4414  0.4729 -0.4190
10509TIP3    H152942   5.560   2.299   3.915  1.0585 -0.1024 -0.2887
10509TIP3    H252943   5.597   2.343   4.055  0.7389 -0.0845 -0.2100
10510TIP3   OH252944   3.387   0.004  14.867 -0.3106 -0.5782 -0.5835
10510TIP3    H152945   3.420   0.092  14.848  1.0107 -0.8935  0.2656
10510TIP3    H252946   3.352   0.010  14.956 -1.8417 -0.4586 -1.1730
10511TIP3   OH252947   2.940   1.621  12.369  0.0643 -0.2784 -0.5677
10511TIP3    H152948   2.845   1.616  12.358 -0.3185  1.1715  1.7537
10511TIP3    H252949   2.967   1.531  12.384 -1.3297 -0.4016  1.4176
10512TIP3   OH252950   1.638   3.106  16.077  0.2471  0.6311  0.8846
10512TIP3    H152951   1.689   3.060  16.010 -0.7874 -0.4455  0.8274
10512TIP3    H252952   1.638   3.198  16.049  1.8981  0.6116  0.7277
10513TIP3   OH252953   2.276   4.882  13.818 -0.3001  0.0887 -0.1373
10513TIP3    H152954   2.191   4.843  13.838  0.3215 -2.4088 -2.1488
10513TIP3    H252955   2.333   4.855  13.890 -0.6625 -0.0614  0.0944
10514TIP3   OH252956   6.500   5.750  16.647  0.2085  0.0060 -0.9238
10514TIP3    H152957   6.448   5.724  16.571  1.0375 -1.6023 -0.9434
10514TIP3    H252958   6.506   5.671  16.701  1.5644  0.5272 -0.2923
10515TIP3   OH252959   6.197   2.800  14.127  0.5669  0.2688 -0.5352
10515TIP3    H152960   6.274   2.746  14.146  0.3844  0.2342  0.1214
10515TIP3    H252961   6.181   2.848  14.209 -1.0292 -0.8504 -0.1816
10516TIP3   OH252962   5.339   1.093   4.110 -0.0888  0.5628 -0.1311
10516TIP3    H152963   5.278   1.105   4.038  0.7447 -1.2011 -1.1463
10516TIP3    H252964   5.423   1.125   4.076  0.3149 -0.3089  0.0335
10517TIP3   OH252965   3.942   3.688  11.631 -0.8057 -0.7792 -0.2841
10517TIP3    H152966   3.939   3.747  11.556 -0.9795 -1.0725 -0.5094
10517TIP3    H252967   3.851   3.663  11.646 -0.9809  0.6243  1.1029
10518TIP3   OH252968   5.616   6.415   2.598 -0.4461  0.3015  0.4721
10518TIP3    H152969   5.567   6.410   2.680  2.4075 -1.3519  2.1616
10518TIP3    H252970   5.571   6.483   2.547 -4.6538 -1.3873  1.7288
10519TIP3   OH252971   2.200   6.240   1.077 -0.0050 -0.1698  0.0645
10519TIP3    H152972   2.213   6.145   1.083  0.5936 -0.2928 -2.5615
10519TIP3    H252973   2.110   6.251   1.047  0.7534 -0.0376 -2.2738
10520TIP3   OH252974   0.060   0.025   4.336  0.2283  0.1253  0.0851
10520TIP3    H152975  -0.021   0.025   4.387  1.9955  0.3379  3.0326
10520TIP3    H252976   0.065  -0.064   4.300 -0.1309 -0.6593  1.9056
10521TIP3   OH252977   3.297   5.274  14.822  0.5905  0.3664 -0.0886
10521TIP3    H152978   3.298   5.361  14.864 -1.6940  0.1712  0.4404
10521TIP3    H252979   3.204   5.251  14.816  1.1488 -1.9539 -0.4360
10522TIP3   OH252980   1.791   5.427   4.169  0.1351 -0.0530  0.0075
10522TIP3    H152981   1.868   5.456   4.217  1.0376 -0.1283 -1.3882
10522TIP3    H252982   1.762   5.504   4.121 -0.5925 -0.0618  0.4151
10523TIP3   OH252983   1.633   5.392   5.726 -0.0487 -0.1010  0.1677
10523TIP3    H152984   1.565   5.326   5.743  1.2606 -1.6805 -0.5740
10523TIP3    H252985   1.653   5.382   5.633 -2.0514  3.5508 -0.7461
10524TIP3   OH252986   5.802   3.964   1.704 -0.1204  0.2500  0.0602
10524TIP3    H152987   5.728   3.920   1.746  0.5444 -1.9641 -1.0434
10524TIP3    H252988   5.773   3.981   1.615  0.1326  0.8655  0.0874
10525TIP3   OH252989   1.699   5.352   4.837  0.3811  0.2641  0.0357
10525TIP3    H152990   1.663   5.439   4.856  0.1436  0.1085  0.3002
10525TIP3    H252991   1.787   5.370   4.802  0.8640  0.5632  1.3635
10526TIP3   OH252992   4.854   3.165  12.398 -0.4993 -0.4241 -0.0189
10526TIP3    H152993   4.942   3.202  12.403 -1.1490  0.9638  1.3916
10526TIP3    H252994   4.864   3.077  12.432  0.0651  0.2335  1.5521
10527TIP3   OH252995   1.939   6.567  15.322  0.3313  0.7674  0.8512
10527TIP3    H152996   1.903   6.655  15.318 -1.2896  0.1075  0.3700
10527TIP3    H252997   1.873   6.517  15.371  0.4444 -0.5478 -0.3220
10528TIP3   OH252998   1.910   4.548   4.318  0.2650  0.6944 -0.1543
10528TIP3    H152999   1.934   4.618   4.257  0.5323  0.2080 -0.6083
10528TIP3    H253000   1.987   4.492   4.322  0.5131  1.1213  1.1991
10529TIP3   OH253001   5.165   6.090   4.902  0.4025 -0.0990  0.4314
10529TIP3    H153002   5.113   6.171   4.903  0.7145  0.1565 -1.4327
10529TIP3    H253003   5.244   6.113   4.853  1.9737 -0.6976  2.5847
10530TIP3   OH253004   1.643   3.959  14.903  0.3898  0.3126 -0.4434
10530TIP3    H153005   1.682   3.873  14.920 -2.1078 -0.8064 -0.2460
10530TIP3    H253006   1.575   3.969  14.970 -1.0154  1.3619 -1.9687
10531TIP3   OH253007   4.216   0.328   5.888  0.2602  1.0762 -0.0223
10531TIP3    H153008   4.269   0.306   5.812 -0.3536  0.2614 -0.2204
10531TIP3    H253009   4.257   0.281   5.961  0.5572  1.4601  0.0578
10532TIP3   OH253010   2.064   5.998   3.249 -0.1684  0.2163  0.6102
10532TIP3    H153011   2.015   6.009   3.331 -1.4161 -1.8261  0.1904
10532TIP3    H253012   2.115   5.918   3.262 -1.8905 -1.2446 -1.2827
10533TIP3   OH253013   4.045   4.599  11.842 -0.2825  0.2713  0.5378
10533TIP3    H153014   4.046   4.569  11.933  0.1722  1.6196  0.9829
10533TIP3    H253015   3.990   4.677  11.843 -1.9054 -0.8249 -0.7203
10534TIP3   OH253016   2.278   3.906   6.409 -0.4465  0.2943 -0.0275
10534TIP3    H153017   2.258   3.953   6.490 -0.0866 -1.8495  1.3413
10534TIP3    H253018   2.200   3.855   6.391  0.1916 -0.7542  0.0914
10535TIP3   OH253019   4.256   0.434  12.575 -0.0787 -0.5004  0.2146
10535TIP3    H153020   4.228   0.347  12.547  0.7421 -1.1776  1.4313
10535TIP3    H253021   4.344   0.443  12.538 -0.6384  0.3248 -0.9440
10536TIP3   OH253022   3.576   1.893   3.751  0.1312 -0.1452  0.0234
10536TIP3    H153023   3.533   1.862   3.672  1.5055  0.6399 -1.0411
10536TIP3    H253024   3.607   1.813   3.795  1.5952 -0.4411 -1.5147
10537TIP3   OH253025   3.852   2.732   4.747  0.2210 -0.3295  0.2508
10537TIP3    H153026   3.862   2.752   4.840  1.4384 -0.0302  0.0650
10537TIP3    H253027   3.804   2.807   4.711  0.7289  0.0828  0.4306
10538TIP3   OH253028   3.489   2.093   3.336 -0.8121  0.3660  0.4254
10538TIP3    H153029   3.440   2.065   3.414  0.5882 -0.9162  0.8603
10538TIP3    H253030   3.469   2.187   3.328 -4.0474 -0.2759  0.0581
10539TIP3   OH253031   1.379   2.791   4.011  0.1788 -0.2398  0.1310
10539TIP3    H153032   1.305   2.763   4.065 -1.2475  1.1749 -1.0534
10539TIP3    H253033   1.456   2.758   4.057 -1.2521 -3.1379  0.5482
10540TIP3   OH253034   0.188   5.938  11.061  0.2883 -0.3109  0.3554
10540TIP3    H153035   0.255   5.988  11.108 -0.4642  0.9325  0.1207
10540TIP3    H253036   0.120   6.003  11.039 -0.4482 -1.3286 -0.4198
10541TIP3   OH253037   2.044   5.778  16.109 -0.1127 -0.0658 -0.1219
10541TIP3    H153038   2.080   5.866  16.121 -0.2925 -0.2782  2.0982
10541TIP3    H253039   2.052   5.737  16.195 -0.5404 -2.0377 -1.0012
10542TIP3   OH253040   1.167   1.198   1.450  0.4007  0.1312 -0.1818
10542TIP3    H153041   1.172   1.281   1.402  1.6379  0.1119 -0.1033
10542TIP3    H253042   1.150   1.132   1.382  1.1482  0.2331 -0.4695
10543TIP3   OH253043   5.159   3.257   2.494  0.0875 -0.0747 -0.0783
10543TIP3    H153044   5.081   3.208   2.517 -1.4843  1.9793 -0.9357
10543TIP3    H253045   5.188   3.297   2.576 -0.4686  0.1513  0.0068
10544TIP3   OH253046   5.358   1.203  14.358  0.1850  0.7974 -0.2720
10544TIP3    H153047   5.324   1.291  14.375 -0.3848  1.3593 -3.8666
10544TIP3    H253048   5.280   1.149  14.348  0.5216  0.1738  0.4034
10545TIP3   OH253049   0.372   5.212   2.536  0.3028  0.3712  0.7068
10545TIP3    H153050   0.293   5.242   2.490  1.2355 -1.0327 -1.9720
10545TIP3    H253051   0.423   5.291   2.551 -0.6077  1.0152  0.4417
10546TIP3   OH253052   5.458   4.958   2.217  0.2039 -0.1873 -0.3072
10546TIP3    H153053   5.393   4.895   2.186  0.4941  0.0212 -1.3359
10546TIP3    H253054   5.541   4.911   2.213  0.0287 -0.7163  1.7576
10547TIP3   OH253055   2.916   2.171   1.740  0.5513  0.5749  0.5516
10547TIP3    H153056   2.872   2.252   1.765 -1.5759 -0.5572  0.6017
10547TIP3    H253057   2.973   2.197   1.668  0.7806  2.3323  1.3354
10548TIP3   OH253058   6.435   4.958   6.262 -0.6348  0.4975 -0.0591
10548TIP3    H153059   6.419   4.886   6.322  0.7722 -0.2378 -0.5505
10548TIP3    H253060   6.510   5.005   6.300  0.3673 -0.0680 -1.3007
10549TIP3   OH253061   4.031   0.433   4.878 -0.1855  0.5810 -0.2621
10549TIP3    H153062   4.067   0.491   4.810  0.2856  1.4887  0.7445
10549TIP3    H253063   4.049   0.345   4.846  1.8821  1.0078 -0.3466
10550TIP3   OH253064   0.552   4.613   5.718  0.2630 -0.0415  0.2746
10550TIP3    H153065   0.503   4.605   5.637  0.5899  0.4324  0.0251
10550TIP3    H253066   0.574   4.523   5.743  1.8988 -0.0874 -1.2374
10551TIP3   OH253067   5.510   0.140   5.771 -0.2694  0.3528  0.0376
10551TIP3    H153068   5.489   0.233   5.757 -0.6524  0.4947  1.5210
10551TIP3    H253069   5.545   0.136   5.860  1.5082 -0.6526 -0.6742
10552TIP3   OH253070   5.128   0.219   6.007  0.3487  0.2455  0.1481
10552TIP3    H153071   5.071   0.237   6.082  0.7454  1.7667  0.1056
10552TIP3    H253072   5.159   0.305   5.980  1.1361 -0.4033 -1.0406
10553TIP3   OH253073   5.364   0.255   5.489  0.0154 -0.3064  0.2243
10553TIP3    H153074   5.452   0.273   5.522  0.6676 -2.2208 -0.4313
10553TIP3    H253075   5.355   0.315   5.414  1.1403 -0.7606 -0.3010
10554TIP3   OH253076   6.003   3.828   0.674 -0.4869 -0.2055  0.2843
10554TIP3    H153077   6.000   3.888   0.600  2.6820  0.1341  0.3933
10554TIP3    H253078   6.001   3.741   0.635 -0.2176 -0.0276 -0.1203
10555TIP3   OH253079   6.117   5.909  17.197  0.1726 -0.7064 -0.4112
10555TIP3    H153080   6.114   5.931  17.104  0.9702  1.3719  0.0217
10555TIP3    H253081   6.207   5.878  17.211  0.3390 -0.1317 -0.1654
10556TIP3   OH253082   2.503   4.376   3.232 -0.9466  0.4519  0.0675
10556TIP3    H153083   2.418   4.338   3.209 -0.7452  1.0534 -1.7891
10556TIP3    H253084   2.548   4.385   3.148  0.9713  0.1176  1.0380
10557TIP3   OH253085   4.620   5.213   4.446 -0.2060  0.3363  0.5617
10557TIP3    H153086   4.665   5.185   4.526  0.0593  1.9703  0.9944
10557TIP3    H253087   4.634   5.308   4.442  1.9231 -0.0581 -2.7724
10558TIP3   OH253088   2.707   0.917  14.403  0.0695  0.6090  0.3898
10558TIP3    H153089   2.696   1.011  14.410 -0.1033  0.6757 -0.7385
10558TIP3    H253090   2.658   0.881  14.477 -0.4267  1.3707  0.4299
10559TIP3   OH253091   2.745   3.961   6.333 -0.1306 -0.4495 -0.1630
10559TIP3    H153092   2.782   3.877   6.304 -0.4206 -0.2163 -1.2531
10559TIP3    H253093   2.795   4.027   6.285 -1.6432 -0.1131 -1.3143
10560TIP3   OH253094   4.079   0.442   1.896  0.3734 -0.1743  0.3611
10560TIP3    H153095   4.137   0.488   1.957  1.5252 -1.3453  0.1670
10560TIP3    H253096   4.115   0.353   1.890 -0.2495 -0.3414 -1.3241
10561TIP3   OH253097   3.901   1.370   1.306 -0.7043  0.0680  0.3262
10561TIP3    H153098   3.992   1.353   1.330 -0.5349  0.6293  0.0906
10561TIP3    H253099   3.859   1.398   1.387 -0.9464 -1.2985  0.6821
10562TIP3   OH253100   3.653   1.357  13.289  0.5608  0.1091 -0.0267
10562TIP3    H153101   3.657   1.395  13.377  0.7673  0.8806 -0.3686
10562TIP3    H253102   3.561   1.364  13.264  0.6294  0.5403 -0.1579
10563TIP3   OH253103   1.344   3.964  14.802  0.6713  0.0127  0.3316
10563TIP3    H153104   1.359   4.053  14.836 -1.5296  0.1726  0.9747
10563TIP3    H253105   1.344   3.909  14.880 -3.7018  0.2819  0.6732
10564TIP3   OH253106   3.132   1.305   5.883 -0.3177  0.0043 -0.6757
10564TIP3    H153107   3.155   1.353   5.804  4.1800  1.6503  1.4801
10564TIP3    H253108   3.134   1.213   5.856  2.7496  0.4447 -2.1932
10565TIP3   OH253109   0.443   5.719  15.039 -0.4092  0.3399  0.0717
10565TIP3    H153110   0.509   5.661  15.078 -1.1948 -0.3658  0.3614
10565TIP3    H253111   0.494   5.780  14.986  0.5844  0.5995  1.2961
10566TIP3   OH253112   4.241   2.170   3.468  0.0290 -0.6407 -0.2756
10566TIP3    H153113   4.267   2.240   3.527 -2.0613 -0.5115  0.5077
10566TIP3    H253114   4.215   2.098   3.525 -2.5644 -0.3110 -0.9949
10567TIP3   OH253115   1.690   2.566  13.783  0.4807  0.4646 -0.8224
10567TIP3    H153116   1.771   2.611  13.759  1.0325  0.4393  0.8944
10567TIP3    H253117   1.641   2.632  13.833  1.0406 -0.6339  1.2264
10568TIP3   OH253118   2.851   2.995   4.919  0.3256  0.5395  0.7336
10568TIP3    H153119   2.856   2.990   5.015  0.5074  3.0924  0.9165
10568TIP3    H253120   2.768   3.040   4.902  0.2210 -0.0463 -0.3177
10569TIP3   OH253121   2.402   5.688   2.305  0.1489 -0.4166 -0.2967
10569TIP3    H153122   2.378   5.696   2.397  2.5672  0.2091  0.3292
10569TIP3    H253123   2.319   5.676   2.259 -1.1531 -0.0086  1.8720
10570TIP3   OH253124   6.595   4.194   1.294  0.7457 -0.7075  0.6235
10570TIP3    H153125   6.499   4.197   1.295  0.7395  3.5990 -2.2387
10570TIP3    H253126   6.621   4.243   1.372  0.6695 -1.4234  1.1099
10571TIP3   OH253127   1.230   2.866  15.666  0.5933  0.3669  0.6324
10571TIP3    H153128   1.282   2.851  15.744  0.5169 -0.0557  0.6023
10571TIP3    H253129   1.175   2.788  15.658  0.8992  0.2208 -0.0750
10572TIP3   OH253130   2.641   0.842   1.145  0.3653 -0.2671 -0.4370
10572TIP3    H153131   2.722   0.865   1.101 -0.4747  1.4709 -1.1287
10572TIP3    H253132   2.649   0.879   1.233 -0.3717  1.4111 -1.0649
10573TIP3   OH253133   1.545   2.033  16.619 -0.3254  0.0098 -0.8748
10573TIP3    H153134   1.538   2.128  16.610 -1.7233  0.1381  1.1592
10573TIP3    H253135   1.455   2.002  16.620 -0.0050 -0.9868  1.5722
10574TIP3   OH253136   5.323   1.152  11.772  0.1777  0.1443  0.7920
10574TIP3    H153137   5.294   1.133  11.861 -1.5700 -0.4546  0.1141
10574TIP3    H253138   5.397   1.092  11.758  0.5132  0.2972  1.8557
10575TIP3   OH253139   1.265   1.445   0.865  0.8358  0.3870  0.5907
10575TIP3    H153140   1.212   1.444   0.785  1.2633  1.1317  0.2923
10575TIP3    H253141   1.237   1.368   0.913  0.3716  0.0845 -0.1528
10576TIP3   OH253142   2.155   5.963   0.757  0.1567  0.1165  0.4333
10576TIP3    H153143   2.095   6.037   0.745 -0.7303 -0.5782  0.5161
10576TIP3    H253144   2.208   5.962   0.678  1.2208  1.7848  1.1194
10577TIP3   OH253145   1.711   2.402   0.108 -0.2139  0.0401  0.2488
10577TIP3    H153146   1.712   2.456   0.029  0.9773  1.7267  1.3955
10577TIP3    H253147   1.793   2.352   0.104  0.4623  1.0890  1.0780
10578TIP3   OH253148   5.193   5.783   6.150 -0.2121 -0.2184  0.3474
10578TIP3    H153149   5.109   5.806   6.110 -0.0206 -2.6295 -1.5775
10578TIP3    H253150   5.186   5.813   6.241 -3.1220 -0.2812  0.1815
10579TIP3   OH253151   1.783   0.047   5.334 -0.3742 -0.1323  0.0421
10579TIP3    H153152   1.791   0.045   5.429 -1.2551  0.4513  0.1366
10579TIP3    H253153   1.872   0.060   5.302 -0.1341  0.0964  0.7952
10580TIP3   OH253154   5.386   2.031   2.326 -0.0084  0.1465 -0.4632
10580TIP3    H153155   5.475   2.033   2.292 -0.5320 -1.8340 -2.0793
10580TIP3    H253156   5.373   1.939   2.353 -1.2121  0.6437  0.7167
10581TIP3   OH253157   1.530   1.427   3.019  0.1726  0.1459 -0.1904
10581TIP3    H153158   1.460   1.488   2.995  1.3907  1.2792 -0.8816
10581TIP3    H253159   1.576   1.469   3.092  0.9604  0.0062 -0.6016
10582TIP3   OH253160   0.632   1.881  11.636 -0.1405  0.7995  0.5503
10582TIP3    H153161   0.575   1.953  11.660 -0.4247  0.7296  0.1000
10582TIP3    H253162   0.573   1.807  11.618  0.0563  0.8254 -0.2610
10583TIP3   OH253163   5.845   6.280  12.636 -0.3639 -0.6010  0.7568
10583TIP3    H153164   5.850   6.375  12.640  0.4378 -0.6173  0.1610
10583TIP3    H253165   5.797   6.256  12.716 -0.5329  0.2930  0.9350
10584TIP3   OH253166   0.317   1.706  14.029  0.2367  0.0568  0.2262
10584TIP3    H153167   0.298   1.636  14.090  3.3965  0.1834  1.4275
10584TIP3    H253168   0.340   1.781  14.084 -2.3919  1.8825 -1.0405
10585TIP3   OH253169   6.669   6.532  11.010  0.4187  0.1929  0.5607
10585TIP3    H153170   6.714   6.612  10.983  1.1965 -0.8597 -1.3726
10585TIP3    H253171   6.576   6.550  10.997  0.5808  0.8362  0.2938
10586TIP3   OH253172   6.114   5.924  11.274  0.1419  0.2635 -0.2089
10586TIP3    H153173   6.207   5.916  11.298 -0.1941 -0.9507  0.7324
10586TIP3    H253174   6.089   5.835  11.248 -0.3488  0.9001 -2.0275
10587TIP3   OH253175   3.890   2.445  16.357 -0.1459 -0.6465  0.1944
10587TIP3    H153176   3.887   2.503  16.281  0.1211 -0.5991  0.2226
10587TIP3    H253177   3.875   2.357  16.321 -0.6554 -0.5528  0.1672
10588TIP3   OH253178   5.947   0.750  13.714  0.4476 -0.2840  0.0074
10588TIP3    H153179   6.030   0.703  13.709 -0.8388 -2.5967 -0.6670
10588TIP3    H253180   5.884   0.683  13.742 -0.9820  1.7059  1.6488
10589TIP3   OH253181   3.720   0.270  12.648  0.6175  0.2173 -0.1730
10589TIP3    H153182   3.720   0.247  12.555  1.0161 -0.2441 -0.0589
10589TIP3    H253183   3.779   0.207  12.689  1.6828  1.4016  0.1599
10590TIP3   OH253184   3.775   3.727   3.556 -0.3800  0.4021 -0.3886
10590TIP3    H153185   3.713   3.794   3.527 -0.9386  0.3113  0.5732
10590TIP3    H253186   3.859   3.754   3.518 -0.4768  1.9658  0.4828
10591TIP3   OH253187   3.948   6.776   5.663  0.0468 -0.4170 -0.6784
10591TIP3    H153188   3.941   6.738   5.575 -1.2728 -1.5412 -0.0924
10591TIP3    H253189   4.018   6.726   5.705 -0.1658 -0.7113 -0.6703
10592TIP3   OH253190   6.472   3.908  11.331 -0.4995 -0.4395  0.2958
10592TIP3    H153191   6.541   3.898  11.266 -0.1046  2.0782  0.2849
10592TIP3    H253192   6.507   3.868  11.411  0.4837 -0.1849 -0.0149
10593TIP3   OH253193   4.030   4.919   0.700 -0.2173  0.5045 -0.2911
10593TIP3    H153194   4.034   4.876   0.615 -2.5085 -1.8899  0.7300
10593TIP3    H253195   3.947   4.968   0.698  0.7247  2.1383 -0.1781
10594TIP3   OH253196   2.477   1.409  15.527 -0.1244  0.1085 -0.1548
10594TIP3    H153197   2.554   1.368  15.486 -0.8585 -1.7863  0.3047
10594TIP3    H253198   2.431   1.452  15.455  0.9808  0.6603 -0.5518
10595TIP3   OH253199   3.255   0.312   1.107  0.2415 -0.0425 -0.3876
10595TIP3    H153200   3.309   0.235   1.125 -1.9110 -1.6991 -0.8185
10595TIP3    H253201   3.229   0.344   1.193 -0.6631 -1.1130 -0.2648
10596TIP3   OH253202   6.535   5.558   5.652 -0.0931 -0.3889  0.3371
10596TIP3    H153203   6.606   5.602   5.699 -0.7561  0.1801  0.8037
10596TIP3    H253204   6.561   5.562   5.560  0.5427 -0.3012  0.5155
10597TIP3   OH253205   4.210   1.610  15.042  0.0420 -0.2894  0.7264
10597TIP3    H153206   4.305   1.603  15.036  0.2147  0.7026  2.0311
10597TIP3    H253207   4.177   1.547  14.978  1.5534 -1.7657  1.3634
10598TIP3   OH253208   3.256   5.681  14.412  0.1409 -0.2274 -0.1911
10598TIP3    H153209   3.302   5.649  14.489 -0.2831  0.3623  0.3132
10598TIP3    H253210   3.168   5.701  14.443 -0.2277 -0.5859 -0.9689
10599TIP3   OH253211   4.986   2.382   2.402  0.1349 -0.5142 -0.1961
10599TIP3    H153212   5.054   2.320   2.428  1.9994  0.8346 -1.6965
10599TIP3    H253213   5.015   2.416   2.317 -0.7003  2.5493  0.6739
10600TIP3   OH253214   4.971   1.590  14.253  0.2354  0.3334  0.4827
10600TIP3    H153215   4.948   1.514  14.306  2.0432  0.2864  1.2401
10600TIP3    H253216   5.054   1.566  14.211  0.0763  1.3243 -0.4245
10601TIP3   OH253217   1.202   2.702  13.779 -0.3706 -0.0496 -0.1451
10601TIP3    H153218   1.189   2.797  13.786 -0.0115 -0.1884  2.7338
10601TIP3    H253219   1.238   2.690  13.691 -2.2515  2.2613 -1.2943
10602TIP3   OH253220   4.437   4.562  11.477 -0.5606  0.1255  0.1999
10602TIP3    H153221   4.353   4.539  11.439 -0.7972 -0.7168  1.2265
10602TIP3    H253222   4.475   4.479  11.505  1.3341  0.2930 -1.6733
10603TIP3   OH253223   5.074   5.761  10.927 -0.2933 -0.2444  0.1112
10603TIP3    H153224   5.169   5.771  10.917 -0.0802 -0.5177  1.7465
10603TIP3    H253225   5.042   5.851  10.936 -0.0833 -0.2014  0.4416
10604TIP3   OH253226   3.430   0.801   5.116 -0.0541  0.0614 -0.3461
10604TIP3    H153227   3.513   0.839   5.148  0.3556 -2.6425  2.0314
10604TIP3    H253228   3.443   0.790   5.022  1.6672  1.1513 -0.2637
10605TIP3   OH253229   1.205   5.206  15.961 -0.1703  0.7461 -0.3310
10605TIP3    H153230   1.273   5.260  15.923  0.6523 -0.0188  0.0427
10605TIP3    H253231   1.223   5.118  15.927 -1.2316  0.6189 -0.5881
10606TIP3   OH253232   1.473   3.917   0.169  0.5388 -0.5856  0.6746
10606TIP3    H153233   1.507   3.835   0.135 -1.9165 -1.1231 -0.5662
10606TIP3    H253234   1.444   3.897   0.258 -1.1428 -1.3863 -0.0362
10607TIP3   OH253235   3.726   6.232  13.158 -0.0956 -0.3319  0.3715
10607TIP3    H153236   3.798   6.287  13.127  1.3299 -2.3064  0.0064
10607TIP3    H253237   3.739   6.227  13.253  1.1819 -1.8649  0.1507
10608TIP3   OH253238   1.629   4.508  15.011 -0.3048 -0.2569  0.1129
10608TIP3    H153239   1.547   4.487  14.968  0.6446 -0.6731 -1.5361
10608TIP3    H253240   1.674   4.424  15.019  0.8886  0.2600 -0.9680
10609TIP3   OH253241   5.447   2.649  13.435 -0.6996 -0.4145 -0.5068
10609TIP3    H153242   5.526   2.629  13.486 -1.4360 -1.5324  0.2059
10609TIP3    H253243   5.439   2.744  13.439  1.8264 -0.0511 -2.3903
10610TIP3   OH253244   4.257   6.016   4.960 -0.3065  0.5637 -0.5710
10610TIP3    H153245   4.167   6.038   4.937 -0.1732  0.0715 -1.5826
10610TIP3    H253246   4.262   6.031   5.054 -1.6085  0.0357 -0.4098
10611TIP3   OH253247   3.848   3.608  13.962 -0.1468 -0.0659  0.3824
10611TIP3    H153248   3.771   3.567  14.002 -0.8762 -0.0444 -0.9524
10611TIP3    H253249   3.824   3.617  13.870  1.4190  0.0727 -0.0154
10612TIP3   OH253250   1.046   5.708  15.428 -0.1986  0.2044 -0.3350
10612TIP3    H153251   0.954   5.689  15.451 -0.4220  0.1314 -1.2819
10612TIP3    H253252   1.066   5.789  15.475 -1.1508  0.9254 -1.1512
10613TIP3   OH253253   4.580   5.608  15.581  0.4104  0.2417 -0.2608
10613TIP3    H153254   4.524   5.533  15.600  0.4792  0.4332  0.6834
10613TIP3    H253255   4.520   5.676  15.549  0.3319 -0.1614 -0.9814
10614TIP3   OH253256   0.905   4.272   0.758 -0.5626 -0.5081  0.0602
10614TIP3    H153257   0.857   4.191   0.771  0.1985 -0.6519  2.2802
10614TIP3    H253258   0.918   4.279   0.664 -0.7908 -2.8570 -0.1522
10615TIP3   OH253259   1.031   3.104  16.117 -0.2049 -0.4041  0.1259
10615TIP3    H153260   1.053   3.026  16.168 -1.0051 -0.7902 -0.1147
10615TIP3    H253261   1.050   3.080  16.026  1.1253  0.2493  0.2209
10616TIP3   OH253262   6.439   4.555  13.431  0.6986 -0.8363 -0.0101
10616TIP3    H153263   6.393   4.627  13.388  0.8286 -1.8266 -1.8929
10616TIP3    H253264   6.387   4.536  13.509  0.3387  0.8887  0.1882
10617TIP3   OH253265   5.330   5.438  10.800 -0.2571  0.3065 -0.3432
10617TIP3    H153266   5.353   5.529  10.779 -1.7982  1.1075  1.2359
10617TIP3    H253267   5.408   5.388  10.778  1.0112  2.1706 -0.2643
10618TIP3   OH253268   0.493   3.109  14.123 -0.0945 -0.3706 -0.0257
10618TIP3    H153269   0.445   3.042  14.171  0.8787 -0.1457  1.3071
10618TIP3    H253270   0.433   3.138  14.054 -1.6064 -0.5601  1.1939
10619TIP3   OH253271   1.096   4.925   3.598 -0.0958  0.0405  0.5111
10619TIP3    H153272   1.122   4.955   3.511  1.8866  0.2886  1.1696
10619TIP3    H253273   1.013   4.879   3.584 -0.6650  1.5796 -1.2314
10620TIP3   OH253274   4.586   4.674   6.103 -0.3886  0.2794 -0.4576
10620TIP3    H153275   4.650   4.603   6.109  0.8176  1.2230 -1.8143
10620TIP3    H253276   4.503   4.633   6.123  0.4920 -1.2082  0.2304
10621TIP3   OH253277   4.399   2.762  11.955  0.5694 -0.0738  0.1639
10621TIP3    H153278   4.375   2.845  11.996  0.8372 -0.7160  1.6767
10621TIP3    H253279   4.489   2.775  11.926  0.0448  0.7203 -1.1279
10622TIP3   OH253280   6.271   0.597   3.980 -0.1049  0.4453 -0.1747
10622TIP3    H153281   6.242   0.667   3.922 -1.8331  0.7765  1.0166
10622TIP3    H253282   6.262   0.517   3.928  1.4789  1.0454 -1.4032
10623TIP3   OH253283   3.100   6.077   2.821  0.3558  0.0581 -0.2243
10623TIP3    H153284   3.100   6.048   2.730 -0.3218 -0.7585  0.0359
10623TIP3    H253285   3.080   5.998   2.872 -1.7141  1.0004  0.4777
10624TIP3   OH253286   2.050   1.462  16.453  0.0024 -0.5831  0.4640
10624TIP3    H153287   2.101   1.458  16.372 -0.2914 -1.5902  0.3193
10624TIP3    H253288   2.029   1.554  16.464 -1.6247 -0.6710 -1.6355
10625TIP3   OH253289   2.295   2.741  14.730  0.9068 -0.0684  0.0042
10625TIP3    H153290   2.274   2.834  14.739 -1.2163 -0.5002 -0.1292
10625TIP3    H253291   2.368   2.739  14.668  1.6771  1.5638  0.8128
10626TIP3   OH253292   5.129   5.459  12.582 -0.2333 -0.3025 -0.4446
10626TIP3    H153293   5.189   5.413  12.641  0.2604  0.5385 -0.2866
10626TIP3    H253294   5.144   5.551  12.600 -1.8370 -0.0838 -0.1507
10627TIP3   OH253295   6.637   1.852   3.701  0.0580  0.5885 -0.4172
10627TIP3    H153296   6.668   1.933   3.662  1.0114  0.8560  0.8698
10627TIP3    H253297   6.569   1.821   3.641  0.4572  1.7526 -1.4927
10628TIP3   OH253298   0.227   4.312  14.336 -0.2812 -0.2217  0.7414
10628TIP3    H153299   0.278   4.301  14.255 -0.2725  0.5633  0.6396
10628TIP3    H253300   0.168   4.236  14.337 -0.3335 -0.1976 -0.0449
10629TIP3   OH253301   0.125   3.582  13.020  0.4415 -0.4138 -0.1638
10629TIP3    H153302   0.150   3.495  13.052  0.6869  0.6898  2.8890
10629TIP3    H253303   0.203   3.636  13.036  1.2272 -0.1418 -4.4588
10630TIP3   OH253304   3.985   0.455   6.251 -0.0877 -0.0966 -0.0324
10630TIP3    H153305   3.923   0.520   6.284  1.1034  1.0327  0.0224
10630TIP3    H253306   4.028   0.421   6.329  0.1323 -0.0825 -0.1477
10631TIP3   OH253307   5.864   2.404  15.166  0.4319 -0.3670  0.1193
10631TIP3    H153308   5.816   2.392  15.084  0.1933  3.3251 -0.3961
10631TIP3    H253309   5.953   2.427  15.139  0.1000  1.8697  0.7861
10632TIP3   OH253310   2.318   6.649  15.150 -0.5925 -0.0293 -0.1496
10632TIP3    H153311   2.333   6.584  15.219 -0.1264  0.4464  0.1985
10632TIP3    H253312   2.368   6.725  15.177 -0.1353  0.0526 -1.1815
10633TIP3   OH253313   5.576   0.040   1.783  0.2606  0.1652 -0.2631
10633TIP3    H153314   5.550   0.103   1.849  1.4055 -0.2390  0.5950
10633TIP3    H253315   5.501  -0.018   1.774 -0.1225  0.5764  0.2445
10634TIP3   OH253316   2.967   6.127   2.056  0.0003 -0.1376  0.5952
10634TIP3    H153317   3.020   6.052   2.028  1.0146  1.0040 -0.6150
10634TIP3    H253318   2.983   6.134   2.150  0.2122 -1.1999  0.6431
10635TIP3   OH253319   4.583   5.536  16.314  0.1055 -0.7903  0.3376
10635TIP3    H153320   4.545   5.510  16.398  0.0889  1.6641  1.1329
10635TIP3    H253321   4.677   5.521  16.325  0.2382  0.5502  1.2290
10636TIP3   OH253322   4.527   2.421  16.620 -0.0064 -0.0820 -0.2913
10636TIP3    H153323   4.537   2.367  16.542  0.7746 -1.0171  0.4486
10636TIP3    H253324   4.442   2.397  16.655  0.4207 -0.9659  0.1412
10637TIP3   OH253325   1.953   2.656   0.809 -0.2078 -0.1829  0.2346
10637TIP3    H153326   2.029   2.713   0.800  0.4519 -0.8371  1.4704
10637TIP3    H253327   1.948   2.609   0.725 -0.5350  1.3993 -0.6449
10638TIP3   OH253328   4.422   3.397   6.020 -0.2376  0.5067 -0.3260
10638TIP3    H153329   4.411   3.456   6.095  2.7616  0.3788  0.2572
10638TIP3    H253330   4.389   3.447   5.946 -2.6177  0.8988  0.9399
10639TIP3   OH253331   2.733   0.149  13.214  0.2087  0.0192  0.4074
10639TIP3    H153332   2.756   0.148  13.121  0.5358  0.6053  0.4797
10639TIP3    H253333   2.817   0.140  13.260 -0.0042 -0.7905  0.6399
10640TIP3   OH253334   2.253   0.067   4.882 -0.3244 -0.4065 -0.2409
10640TIP3    H153335   2.253   0.128   4.956  0.1623 -0.2026 -0.4070
10640TIP3    H253336   2.343   0.068   4.850 -0.3657 -1.0355 -0.3936
10641TIP3   OH253337   0.601   1.399  16.966  0.6541  0.3497 -0.0336
10641TIP3    H153338   0.561   1.486  16.963 -0.7036 -0.2894 -2.6605
10641TIP3    H253339   0.563   1.358  17.044  0.4374  1.7061  0.5862
10642TIP3   OH253340   6.078   1.601  13.093  0.2363 -0.2336  0.1641
10642TIP3    H153341   6.010   1.594  13.161 -1.2498 -2.9049 -1.5287
10642TIP3    H253342   6.029   1.612  13.012  1.9128 -0.2447 -0.8578
10643TIP3   OH253343   5.031   4.129  12.113 -0.1407  0.3611  0.0449
10643TIP3    H153344   4.972   4.074  12.063 -0.6675  0.9361  0.0202
10643TIP3    H253345   5.118   4.109  12.079 -0.0592 -2.0787  1.5474
10644TIP3   OH253346   1.239   6.548  13.139 -0.0959 -0.4116  0.0608
10644TIP3    H153347   1.281   6.631  13.160  0.9635 -1.0926  0.6544
10644TIP3    H253348   1.178   6.570  13.068 -0.2533  0.9767  0.6056
10645TIP3   OH253349   4.239   0.718  12.605  0.2235  0.7396  0.4176
10645TIP3    H153350   4.229   0.739  12.512  1.1456  1.0187  0.3740
10645TIP3    H253351   4.237   0.622  12.609  0.1609  0.7295  0.1184
10646TIP3   OH253352   2.980   0.282   5.639  0.2490  0.3781  0.4392
10646TIP3    H153353   2.965   0.275   5.733  1.6921  1.0151  0.7284
10646TIP3    H253354   3.067   0.243   5.626 -0.3706 -0.6500 -0.7768
10647TIP3   OH253355   3.860   4.802  11.300  0.2315 -0.1699 -0.1460
10647TIP3    H153356   3.837   4.855  11.376  0.7080 -2.6076  1.7640
10647TIP3    H253357   3.922   4.738  11.333  0.5618 -1.2019 -2.6372
10648TIP3   OH253358   0.758   0.024  15.720 -0.0308 -0.5543  0.1755
10648TIP3    H153359   0.676   0.043  15.675  1.2215  2.2632 -1.0163
10648TIP3    H253360   0.757   0.080  15.798  0.8541 -0.3418  0.0403
10649TIP3   OH253361   6.198   1.211  15.340  0.1185 -0.4388  0.7396
10649TIP3    H153362   6.171   1.191  15.251  1.5089 -0.7505  0.3650
10649TIP3    H253363   6.117   1.232  15.387 -0.9417 -3.0540  0.1232
10650TIP3   OH253364   5.323   3.148  11.237  0.3842 -0.3240  0.2794
10650TIP3    H153365   5.404   3.198  11.239 -0.8514  1.7613  0.4717
10650TIP3    H253366   5.326   3.100  11.154  1.3353  0.5811 -0.2174
10651TIP3   OH253367   3.162   6.610  15.175 -0.0722  0.4567 -0.2151
10651TIP3    H153368   3.133   6.697  15.148 -0.6922 -0.0987 -1.3803
10651TIP3    H253369   3.095   6.580  15.235 -2.0990 -0.9054 -3.0527
10652TIP3   OH253370   4.525   5.787  12.155 -0.5258 -0.0288  0.2371
10652TIP3    H153371   4.585   5.852  12.118 -1.5449  0.8661  0.0970
10652TIP3    H253372   4.510   5.816  12.245  0.9639 -1.4932  0.9574
10653TIP3   OH253373   5.331   4.320  16.399  0.7941 -0.4996 -0.2017
10653TIP3    H153374   5.406   4.275  16.439 -0.5703 -0.8862  1.9993
10653TIP3    H253375   5.296   4.375  16.469 -1.9938 -1.6174 -0.6605
10654TIP3   OH253376   6.724   3.222  13.802  0.6749 -0.6258  0.0622
10654TIP3    H153377   6.667   3.151  13.772 -0.2759  0.3074 -0.3574
10654TIP3    H253378   6.755   3.263  13.722 -1.0596  1.2379  0.3212
10655TIP3   OH253379   0.179   2.599  14.280  0.3958 -0.1952  0.4551
10655TIP3    H153380   0.266   2.560  14.291 -0.4642 -2.3406  0.0165
10655TIP3    H253381   0.191   2.665  14.213  1.9349  0.3813  1.2648
10656TIP3   OH253382   1.786   6.173  12.153  0.5105  0.3694  0.1552
10656TIP3    H153383   1.716   6.111  12.172 -0.8115  1.7062 -0.2561
10656TIP3    H253384   1.808   6.210  12.239  0.2674  0.3965  0.2078
10657TIP3   OH253385   4.242   2.805   4.694 -0.3307 -0.5546 -0.3674
10657TIP3    H153386   4.249   2.789   4.600  0.5424  0.4245 -0.4897
10657TIP3    H253387   4.333   2.815   4.723 -0.6920  2.5712 -0.0614
10658TIP3   OH253388   3.878   4.403   6.392  0.8562 -0.1908 -0.2827
10658TIP3    H153389   3.963   4.447   6.396  0.6941  0.3644 -2.4683
10658TIP3    H253390   3.820   4.458   6.444  1.2294  0.8765 -0.9703
10659TIP3   OH253391   0.417   1.725  13.759 -0.0245 -0.1023 -0.0883
10659TIP3    H153392   0.405   1.815  13.729 -0.9533  0.2121  1.1878
10659TIP3    H253393   0.373   1.721  13.844  1.6132 -1.2770  0.7395
10660TIP3   OH253394   1.987   4.097  12.463  0.1117 -0.3557  0.2256
10660TIP3    H153395   1.941   4.024  12.422  1.0813 -1.6310  1.3472
10660TIP3    H253396   1.930   4.173  12.448  0.6200 -0.6747 -3.7475
10661TIP3   OH253397   4.096   2.493  11.684 -0.0559  0.2681 -0.2948
10661TIP3    H153398   4.162   2.526  11.623  0.4211  1.4475  0.8364
10661TIP3    H253399   4.117   2.535  11.768 -0.0380 -2.1587  0.9638
10662TIP3   OH253400   3.519   0.632   2.631  0.0504 -0.2935 -0.1260
10662TIP3    H153401   3.611   0.638   2.657  0.2240  0.5147 -0.9031
10662TIP3    H253402   3.478   0.579   2.700  0.7430  0.8034  1.1607
10663TIP3   OH253403   3.402   3.656  12.869  0.1182  0.9126  0.3003
10663TIP3    H153404   3.376   3.564  12.883 -2.5886  1.3748 -1.2332
10663TIP3    H253405   3.412   3.692  12.957  0.7519 -0.7321  0.9180
10664TIP3   OH253406   3.596   1.148   1.371  0.0819 -0.2014  0.2288
10664TIP3    H153407   3.558   1.131   1.457 -1.3550 -1.0427 -0.5437
10664TIP3    H253408   3.589   1.064   1.324 -0.8694  0.7210 -1.3363
10665TIP3   OH253409   0.498   4.460   4.728 -0.0532  0.0014  0.1233
10665TIP3    H153410   0.536   4.374   4.714  1.0692  0.1453  2.0958
10665TIP3    H253411   0.406   4.451   4.701  0.8132 -0.9247 -2.6450
10666TIP3   OH253412   3.883   0.034  16.779  0.1525 -0.3030 -0.9156
10666TIP3    H153413   3.917  -0.055  16.769  1.2844 -0.0092  0.1802
10666TIP3    H253414   3.911   0.079  16.699  0.6536 -0.5919 -0.9063
10667TIP3   OH253415   3.159   3.653  14.324 -0.1043 -0.0716 -0.5472
10667TIP3    H153416   3.178   3.735  14.370  0.7824 -0.3164 -0.4693
10667TIP3    H253417   3.218   3.590  14.363  0.6563 -0.2883 -2.0185
10668TIP3   OH253418   1.469   2.320  11.808  0.3938  0.3447 -0.2431
10668TIP3    H153419   1.447   2.259  11.737  1.8148 -0.8711  0.3242
10668TIP3    H253420   1.424   2.401  11.785 -1.0713 -0.7303 -1.3260
10669TIP3   OH253421   4.346   3.069  12.931 -0.3023  0.2178 -0.0553
10669TIP3    H153422   4.434   3.105  12.925  0.4008 -1.1895  1.4080
10669TIP3    H253423   4.299   3.131  12.988 -0.1479  0.7576 -0.5171
10670TIP3   OH253424   3.357   6.366   5.584  0.3895 -0.1142 -0.6191
10670TIP3    H153425   3.282   6.317   5.616  0.4203  0.1551 -0.1339
10670TIP3    H253426   3.332   6.458   5.595  0.6296 -0.0224 -0.8289
10671TIP3   OH253427   4.848   4.410  11.867  0.3959  0.3612  0.6175
10671TIP3    H153428   4.834   4.477  11.800 -1.2298 -0.5115  0.0511
10671TIP3    H253429   4.943   4.406  11.879  0.5556  2.0396 -0.0771
10672TIP3   OH253430   3.755   4.190   4.823  0.2355  0.1494 -0.2487
10672TIP3    H153431   3.830   4.213   4.768  0.1279  0.0217 -0.4473
10672TIP3    H253432   3.680   4.225   4.776 -0.0228 -1.3616 -0.9800
10673TIP3   OH253433   0.288   1.686   3.821  0.0943 -0.0369  0.2256
10673TIP3    H153434   0.256   1.773   3.845 -2.7699 -0.7809 -0.6931
10673TIP3    H253435   0.353   1.702   3.752 -1.0025  1.3220 -0.5099
10674TIP3   OH253436   5.845   1.235   3.779 -0.1709 -0.3701  0.0913
10674TIP3    H153437   5.798   1.154   3.760  1.0232 -1.1999  0.6353
10674TIP3    H253438   5.935   1.207   3.796  0.3935  1.1332 -0.3569
10675TIP3   OH253439   2.871   2.177  15.256  0.6106  0.0677 -0.4511
10675TIP3    H153440   2.820   2.097  15.265 -1.0727  0.9745 -1.5794
10675TIP3    H253441   2.896   2.200  15.346  2.3360 -2.4484 -0.2359
10676TIP3   OH253442   5.513   3.596  15.272 -0.3072  0.1616 -0.1973
10676TIP3    H153443   5.459   3.549  15.337 -0.6752  1.6562  0.5954
10676TIP3    H253444   5.557   3.664  15.323 -0.3710  1.1648 -1.4643
10677TIP3   OH253445   2.885   0.909   1.080  0.1385 -0.1302  0.1704
10677TIP3    H153446   2.927   0.983   1.123  0.3193  0.1770 -0.5426
10677TIP3    H253447   2.949   0.838   1.087  0.0068 -0.1936  0.7591
10678TIP3   OH253448   5.085   0.140   3.039 -0.2258 -0.3440 -0.6072
10678TIP3    H153449   5.109   0.060   2.992  0.0590 -1.2162  0.9871
10678TIP3    H253450   5.108   0.211   2.979  0.5728 -1.4173 -1.5892
10679TIP3   OH253451   5.643   2.430   2.030 -0.3292 -0.3841  0.0538
10679TIP3    H153452   5.657   2.388   1.945 -0.3025  0.6071 -0.4305
10679TIP3    H253453   5.726   2.416   2.076  0.3888  0.8391 -0.8396
10680TIP3   OH253454   3.032   1.893  15.505 -0.0273 -0.6296  0.1590
10680TIP3    H153455   3.054   1.828  15.572 -0.1431  0.0441  0.8625
10680TIP3    H253456   3.112   1.904  15.454  0.2536 -0.6793  0.5919
10681TIP3   OH253457   5.779   4.738   6.387 -0.0889  0.2812 -0.3883
10681TIP3    H153458   5.788   4.649   6.422 -0.7640  0.6259  0.6956
10681TIP3    H253459   5.859   4.752   6.336 -0.7576 -1.5686 -2.0007
10682TIP3   OH253460   5.106   1.445   3.538 -0.2112 -0.5768 -0.1202
10682TIP3    H153461   5.161   1.474   3.611  0.5974 -1.3452 -0.4118
10682TIP3    H253462   5.059   1.368   3.572 -0.9924 -0.0119  0.0793
10683TIP3   OH253463   0.591   4.215  15.916 -0.2780 -0.3594  0.2783
10683TIP3    H153464   0.539   4.162  15.977 -1.4652  1.3707  0.8420
10683TIP3    H253465   0.528   4.243  15.849  0.2355  0.5866  0.1740
10684TIP3   OH253466   1.578   5.881  12.504 -0.0939  0.2486  0.4219
10684TIP3    H153467   1.555   5.790  12.522 -1.7751  0.8501  1.4736
10684TIP3    H253468   1.670   5.888  12.528 -0.1662 -0.9929  1.0784
10685TIP3   OH253469   0.627   6.459  14.227  0.5005  0.3439  0.0424
10685TIP3    H153470   0.625   6.542  14.182  1.5635  0.8989  0.9825
10685TIP3    H253471   0.677   6.401  14.170  1.2548  0.8470  0.1904
10686TIP3   OH253472   0.155   3.233  11.269 -0.2607  0.0230  0.5125
10686TIP3    H153473   0.064   3.257  11.253 -0.5461  0.4749  2.6262
10686TIP3    H253474   0.172   3.262  11.359  2.0995  0.3392  0.0145
10687TIP3   OH253475   5.793   3.354  13.678 -0.0666  0.0271  0.0173
10687TIP3    H153476   5.724   3.314  13.731 -1.5726 -0.9751 -2.6015
10687TIP3    H253477   5.802   3.443  13.713 -0.3511 -0.8720  2.5080
10688TIP3   OH253478   0.115   3.244   0.322 -0.2315 -0.1419 -0.1442
10688TIP3    H153479   0.078   3.207   0.402  1.2083 -1.2060  0.0364
10688TIP3    H253480   0.190   3.295   0.352  0.4297 -0.7061 -0.8311
10689TIP3   OH253481   6.417   1.958  15.428  0.0325 -0.1177 -0.1846
10689TIP3    H153482   6.388   2.045  15.401 -1.7834 -1.0175 -1.2766
10689TIP3    H253483   6.354   1.931  15.495  0.9009 -0.3598  0.5327
10690TIP3   OH253484   2.484   5.635  17.209  0.1620 -0.1591 -0.0480
10690TIP3    H153485   2.465   5.691  17.134  0.6869 -0.2311 -0.2404
10690TIP3    H253486   2.496   5.548  17.171 -0.6540 -0.4034  0.2450
10691TIP3   OH253487   4.770   0.532  17.130 -0.2595  0.3292 -0.1216
10691TIP3    H153488   4.749   0.537  17.036 -1.4619  0.3378  0.1280
10691TIP3    H253489   4.696   0.576  17.172  1.0383  1.6860  0.7433
10692TIP3   OH253490   3.659   3.327  13.309  0.0020 -0.5209 -0.1103
10692TIP3    H153491   3.653   3.411  13.355 -1.1138 -0.1899 -0.8508
10692TIP3    H253492   3.744   3.330  13.264  1.3530 -1.0557  2.3083
10693TIP3   OH253493   1.111   4.311  16.369  0.6562  0.0912 -0.9107
10693TIP3    H153494   1.040   4.269  16.320  0.8275 -0.9970 -0.2481
10693TIP3    H253495   1.066   4.358  16.439  0.5231  0.0595 -0.9762
10694TIP3   OH253496   5.737   0.728   1.548  0.1089  0.4241 -0.3231
10694TIP3    H153497   5.645   0.741   1.570 -0.0141 -1.0145  0.0913
10694TIP3    H253498   5.784   0.761   1.625 -0.1128  0.0959 -0.0429
10695TIP3   OH253499   5.166   0.491  11.671 -0.2526 -0.2554  0.2011
10695TIP3    H153500   5.210   0.531  11.596  0.2065 -0.1737  0.5099
10695TIP3    H253501   5.197   0.400  11.671  0.4321 -0.0289  0.8041
10696TIP3   OH253502   2.964   6.301   5.434 -0.2349 -0.2828 -0.3058
10696TIP3    H153503   2.960   6.243   5.357  2.2229 -0.4230 -0.3469
10696TIP3    H253504   3.022   6.256   5.495 -1.0971  0.4951  1.1093
10697TIP3   OH253505   1.224   1.609  15.216 -0.7094 -0.6689  0.0570
10697TIP3    H153506   1.311   1.590  15.180 -1.2157 -1.4521 -0.7778
10697TIP3    H253507   1.184   1.523  15.227 -0.8908 -0.3844  1.6963
10698TIP3   OH253508   0.545   3.780   5.600 -0.5247 -0.3297  0.2336
10698TIP3    H153509   0.550   3.874   5.617 -1.8133  0.1329 -1.8631
10698TIP3    H253510   0.583   3.769   5.513  1.0030 -1.9665  1.0663
10699TIP3   OH253511   5.478   0.573  11.533  0.4991 -0.1782 -0.0000
10699TIP3    H153512   5.461   0.489  11.577 -0.9992 -0.4591 -1.0856
10699TIP3    H253513   5.550   0.555  11.473  0.7918 -0.4503  0.4295
10700TIP3   OH253514   2.958   5.452  16.454 -0.5794  0.8280 -0.4396
10700TIP3    H153515   2.941   5.400  16.376 -0.0503  0.0418 -0.0314
10700TIP3    H253516   3.053   5.451  16.464 -0.7326 -0.5619  1.2084
10701TIP3   OH253517   0.544   4.404  16.554 -0.3599 -0.3351 -0.3267
10701TIP3    H153518   0.585   4.482  16.592 -0.5062  0.2116 -1.2931
10701TIP3    H253519   0.562   4.410  16.461  0.0464 -1.7126 -0.3474
10702TIP3   OH253520   0.500   6.386  14.927  0.0281 -0.0884 -0.5279
10702TIP3    H153521   0.445   6.423  14.858 -0.2712  1.6297  0.6129
10702TIP3    H253522   0.463   6.421  15.008  2.9646  1.3162  0.2415
10703TIP3   OH253523   1.853   5.779   3.418  0.3514  0.3098  0.1423
10703TIP3    H153524   1.806   5.815   3.494 -0.2788 -0.4448  0.1096
10703TIP3    H253525   1.803   5.811   3.343 -0.3603 -0.8434  0.1210
10704TIP3   OH253526   5.183   6.652  13.780  0.2381  0.2356 -0.5191
10704TIP3    H153527   5.141   6.603  13.710 -1.5325  2.1729 -0.8236
10704TIP3    H253528   5.215   6.732  13.739 -0.0805  1.0121  0.7098
10705TIP3   OH253529   5.646   2.505   1.473 -0.2085 -0.0480  0.0830
10705TIP3    H153530   5.719   2.566   1.486 -1.0456  1.7328 -3.1712
10705TIP3    H253531   5.687   2.419   1.467  1.7612  1.0377 -2.6800
10706TIP3   OH253532   6.316   4.900  15.732 -0.2101 -0.8160  0.3577
10706TIP3    H153533   6.245   4.916  15.670 -0.1364 -2.1168 -0.0748
10706TIP3    H253534   6.273   4.856  15.806  0.1435 -1.6831  0.0584
10707TIP3   OH253535   1.748   0.825  16.137  0.0923 -0.2779 -0.1130
10707TIP3    H153536   1.784   0.897  16.188 -0.3151 -1.0820  1.3287
10707TIP3    H253537   1.703   0.868  16.064 -2.5005  1.0859  2.2046
10708TIP3   OH253538   1.346   4.679  15.512  0.1157 -0.3269  0.2716
10708TIP3    H153539   1.385   4.597  15.543 -0.7729 -0.5957  0.6871
10708TIP3    H253540   1.252   4.668  15.526 -0.0025  0.8009  0.4155
10709TIP3   OH253541   6.733   1.804   3.966  0.0418  0.1408 -0.1574
10709TIP3    H153542   6.695   1.851   3.892  2.4360  0.8383 -0.9722
10709TIP3    H253543   6.728   1.712   3.942  1.1814  0.3875 -1.3885
10710TIP3   OH253544   1.047   0.495   3.148 -0.3157  0.3484  0.1892
10710TIP3    H153545   1.130   0.486   3.100  1.0455  0.9541  2.3624
10710TIP3    H253546   1.005   0.571   3.108  0.3977  0.3140 -0.6355
10711TIP3   OH253547   2.949   4.177  17.212  0.0119  0.2018 -0.0128
10711TIP3    H153548   3.004   4.234  17.264 -0.8509  0.6838  0.3772
10711TIP3    H253549   2.942   4.096  17.263 -1.8780  1.1296  1.2530
10712TIP3   OH253550   2.138   0.245  16.386 -0.1587 -0.1179  0.3148
10712TIP3    H153551   2.177   0.264  16.471 -0.8992  0.9177  0.4324
10712TIP3    H253552   2.188   0.299  16.324 -0.1462 -0.2609  0.1989
10713TIP3   OH253553   2.208   1.558  15.066  0.1225  0.5343 -0.3639
10713TIP3    H153554   2.228   1.591  15.154 -0.7656  1.1554 -0.3852
10713TIP3    H253555   2.284   1.583  15.014  0.0198  1.4662 -0.0891
10714TIP3   OH253556   6.433   4.632   2.710  0.1427 -0.1583 -0.4792
10714TIP3    H153557   6.433   4.559   2.648 -2.0410 -1.4539  0.9673
10714TIP3    H253558   6.494   4.606   2.779 -0.6233 -0.6719  0.0281
10715TIP3   OH253559   0.798   2.605  12.434 -0.7156 -0.6366 -0.5796
10715TIP3    H153560   0.894   2.598  12.437 -0.7218 -2.2643 -2.3939
10715TIP3    H253561   0.782   2.688  12.389 -0.1275 -0.6297 -0.7921
10716TIP3   OH253562   1.295   4.959   3.114  0.2018 -0.1789 -0.7079
10716TIP3    H153563   1.308   4.874   3.071  0.4888  0.2629 -1.5179
10716TIP3    H253564   1.382   4.986   3.141  0.1349 -0.0578 -0.6114
10717TIP3   OH253565   3.685   6.074   1.544 -0.2021  0.1561  0.4663
10717TIP3    H153566   3.694   6.169   1.553  1.1862  0.1902 -1.0925
10717TIP3    H253567   3.621   6.062   1.474 -3.2464 -0.1024  3.1670
10718TIP3   OH253568   0.784   6.140  15.009 -1.2401  0.0289 -0.4320
10718TIP3    H153569   0.845   6.182  15.069  1.2634 -2.3581 -1.2167
10718TIP3    H253570   0.776   6.201  14.936  1.7042 -0.4069 -1.1775
10719TIP3   OH253571   3.180   1.586  11.746  0.2965  0.1349 -0.1722
10719TIP3    H153572   3.172   1.573  11.841 -0.5761 -1.4043 -0.4229
10719TIP3    H253573   3.274   1.587  11.730  0.4801 -2.2438  0.4319
10720TIP3   OH253574   1.084   2.603  12.474 -0.2015 -0.3532 -0.1229
10720TIP3    H153575   1.091   2.578  12.566  1.6303 -1.3044 -0.4982
10720TIP3    H253576   1.166   2.574  12.435 -0.5981  0.8215 -1.8838
10721TIP3   OH253577   2.617   3.642  16.105  0.4961  0.3064  0.4732
10721TIP3    H153578   2.699   3.626  16.152  0.0281 -1.3407  0.7447
10721TIP3    H253579   2.642   3.643  16.013  0.6297 -1.6635  0.4567
10722TIP3   OH253580   2.577   3.352  14.133 -0.2183  0.1277  0.3381
10722TIP3    H153581   2.629   3.276  14.157 -0.7492 -0.8369 -1.5214
10722TIP3    H253582   2.516   3.363  14.207 -0.0150 -1.1243  0.7043
10723TIP3   OH253583   0.537   2.019  13.316  0.3291  0.0649  0.2987
10723TIP3    H153584   0.603   1.984  13.376  0.1817 -0.6609  0.0508
10723TIP3    H253585   0.568   1.996  13.229 -0.0687  0.0330  0.1620
10724TIP3   OH253586   6.472   2.654   3.235  0.6797 -0.1538  0.1304
10724TIP3    H153587   6.445   2.746   3.232 -0.7573 -0.5184  1.2377
10724TIP3    H253588   6.532   2.650   3.309  1.1720 -0.0070 -0.2569
10725TIP3   OH253589   1.253   5.181   2.844 -0.3537  0.2569  0.3072
10725TIP3    H153590   1.273   5.167   2.936  0.2679  0.5431  0.2153
10725TIP3    H253591   1.320   5.242   2.813  0.0713 -0.6426 -0.5994
10726TIP3   OH253592   1.460   1.288  11.690  0.0048 -0.0135  0.2873
10726TIP3    H153593   1.416   1.368  11.717 -0.3623  0.0190 -0.3949
10726TIP3    H253594   1.527   1.318  11.627 -0.5590 -0.3077 -0.4543
10727TIP3   OH253595   3.758   5.304  11.096 -0.0351 -0.1454 -0.5645
10727TIP3    H153596   3.809   5.271  11.170  0.9840  0.8501 -0.7962
10727TIP3    H253597   3.795   5.259  11.020  0.2150  0.2530 -0.6837
10728TIP3   OH253598   3.030   3.300  16.030 -0.5563  0.5916 -0.2835
10728TIP3    H153599   3.083   3.233  16.072 -0.7601 -1.6648 -3.4267
10728TIP3    H253600   2.949   3.255  16.006 -0.6254  1.8758 -2.6383
10729TIP3   OH253601   4.823   4.465   2.977 -0.4846  0.2317 -0.3077
10729TIP3    H153602   4.824   4.519   2.898 -0.4716  0.8025  0.0792
10729TIP3    H253603   4.855   4.523   3.046  2.9169 -1.2704 -0.5108
10730TIP3   OH253604   6.411   0.371  13.157  0.2320 -0.3366 -0.5984
10730TIP3    H153605   6.471   0.427  13.207  0.3183 -1.2403  0.3319
10730TIP3    H253606   6.332   0.425  13.146  0.4067  0.0672  0.0825
10731TIP3   OH253607   0.838   5.625   4.010 -0.5462 -0.2098 -0.1494
10731TIP3    H153608   0.746   5.643   4.031  0.0765  1.4197  1.2957
10731TIP3    H253609   0.872   5.707   3.976  0.5194 -0.6548 -0.1784
10732TIP3   OH253610   6.735   1.581   1.613 -0.0671  0.2972 -0.6762
10732TIP3    H153611   6.793   1.505   1.622 -0.4322  0.1943  0.8656
10732TIP3    H253612   6.793   1.657   1.615 -0.1265  0.3526  3.5211
10733TIP3   OH253613   3.691   1.311  12.066  0.5591  0.4254 -0.5909
10733TIP3    H153614   3.682   1.406  12.080  0.4312  0.3067  0.1208
10733TIP3    H253615   3.722   1.277  12.149 -0.9773 -0.3894 -0.3242
10734TIP3   OH253616   4.990   5.904  11.649 -0.4067  0.1972 -0.2053
10734TIP3    H153617   4.985   5.821  11.603  0.7409  0.9023 -1.6568
10734TIP3    H253618   4.913   5.952  11.621 -2.1826 -1.1277  2.2285
10735TIP3   OH253619   1.569   0.132   3.305  0.0205  0.2592 -0.0065
10735TIP3    H153620   1.588   0.094   3.390 -1.1607  1.7815  0.9778
10735TIP3    H253621   1.598   0.223   3.313  0.7108  0.1830 -1.5293
10736TIP3   OH253622   2.979   0.129  12.619 -0.5152 -0.1793  0.7129
10736TIP3    H153623   2.911   0.133  12.685 -0.0916 -0.7116  1.1947
10736TIP3    H253624   3.061   0.143  12.667 -0.4652  3.1328 -0.2496
10737TIP3   OH253625   4.943   2.562   4.344 -0.1436 -0.2701 -0.5777
10737TIP3    H153626   4.902   2.542   4.428  0.7913 -0.4207 -0.1477
10737TIP3    H253627   4.910   2.649   4.322 -2.2093 -1.1858 -1.2072
10738TIP3   OH253628   1.846   1.364  15.330 -0.4356 -0.3417  0.1133
10738TIP3    H153629   1.779   1.422  15.366 -1.2256  0.4133 -2.4589
10738TIP3    H253630   1.906   1.422  15.284  0.2220 -1.3162 -0.2773
10739TIP3   OH253631   5.571   0.852   0.405 -0.4445 -0.1207 -0.1407
10739TIP3    H153632   5.576   0.756   0.411 -1.5146 -0.1496  0.3542
10739TIP3    H253633   5.606   0.882   0.489 -0.5749 -0.0915 -0.0970
10740TIP3   OH253634   2.559   6.005  13.441 -0.3215  0.2299 -0.2613
10740TIP3    H153635   2.595   6.082  13.484 -0.4181  1.1221 -1.7670
10740TIP3    H253636   2.609   5.932  13.478 -1.0617  0.8423  2.1008
10741TIP3   OH253637   0.021   6.407   2.606  0.1527  0.2211 -0.2873
10741TIP3    H153638  -0.013   6.345   2.542  0.2640 -1.7559  1.5157
10741TIP3    H253639  -0.027   6.388   2.687 -0.5402  3.1695  0.0746
10742TIP3   OH253640   2.843   2.579  17.077 -0.3347  0.5837  0.2572
10742TIP3    H153641   2.750   2.592  17.063 -0.6186 -1.0183  0.5740
10742TIP3    H253642   2.863   2.496  17.033  1.1637  1.4473 -0.7429
10743TIP3   OH253643   4.353   5.022   1.424  0.5383  0.1741  0.1396
10743TIP3    H153644   4.373   4.931   1.445  0.8397  0.2854  0.3481
10743TIP3    H253645   4.430   5.052   1.375 -0.3171 -0.1919 -1.4593
10744TIP3   OH253646   1.785   3.641  13.260  0.2236  0.4912 -0.1829
10744TIP3    H153647   1.783   3.620  13.353 -2.2365  0.0096 -0.3168
10744TIP3    H253648   1.878   3.651  13.240  0.8256 -0.0787  2.1615
10745TIP3   OH253649   2.252   5.789   0.959 -0.6156 -0.9901  0.5483
10745TIP3    H153650   2.179   5.726   0.965  1.6747 -3.8511 -0.5379
10745TIP3    H253651   2.237   5.835   0.876 -1.8527 -0.6853  0.9305
10746TIP3   OH253652   0.345   1.631  16.389 -0.2155  0.0779 -0.3664
10746TIP3    H153653   0.412   1.699  16.403  0.6450 -0.9829  0.7968
10746TIP3    H253654   0.298   1.659  16.310  0.3515  1.8449 -0.1039
10747TIP3   OH253655   5.322   4.888  12.585 -0.0707  0.4917 -0.1051
10747TIP3    H153656   5.360   4.948  12.649  0.2848  2.0374 -1.7299
10747TIP3    H253657   5.305   4.942  12.509 -1.2982 -1.1485 -1.0262
10748TIP3   OH253658   1.196   2.812   0.797  0.8762  0.4156 -0.4451
10748TIP3    H153659   1.286   2.834   0.771  1.4330 -0.5378  0.6335
10748TIP3    H253660   1.167   2.750   0.730  1.5429 -0.3914  0.0037
10749TIP3   OH253661   6.157   5.009   1.922  0.0971 -0.0703 -0.0592
10749TIP3    H153662   6.076   4.993   1.969  0.5569  1.8822  1.4765
10749TIP3    H253663   6.224   5.013   1.990  0.9626  1.5009 -0.9690
10750TIP3   OH253664   0.510   6.344   3.367  0.1371 -0.0485 -0.1092
10750TIP3    H153665   0.584   6.307   3.319  0.4497 -1.8908  1.6800
10750TIP3    H253666   0.485   6.274   3.428 -2.7105  0.7650 -0.2996
10751TIP3   OH253667   0.585   0.271   2.708  0.4479 -0.6694  0.6152
10751TIP3    H153668   0.662   0.301   2.757 -0.0701 -0.1354  1.1048
10751TIP3    H253669   0.513   0.275   2.772 -0.3104  0.4198 -0.2840
10752TIP3   OH253670   0.158   4.337   3.857  0.3967  0.4243  0.2309
10752TIP3    H153671   0.160   4.421   3.902  0.4525  1.3241 -1.4174
10752TIP3    H253672   0.150   4.272   3.927  2.6258  1.6584  1.6556
10753TIP3   OH253673   2.530   3.709   4.130  0.4239  0.4091 -0.6268
10753TIP3    H153674   2.580   3.791   4.128 -0.9319  1.2599 -0.4490
10753TIP3    H253675   2.441   3.736   4.109 -0.1034 -0.9749 -0.1632
10754TIP3   OH253676   2.174   0.496  14.816 -0.5986  0.5218  0.7257
10754TIP3    H153677   2.084   0.506  14.783 -0.5713 -1.4284  0.0068
10754TIP3    H253678   2.185   0.401  14.826  1.8184  0.6663 -0.3940
10755TIP3   OH253679   2.022   2.647  11.255  0.9586  0.4545 -0.1078
10755TIP3    H153680   1.951   2.589  11.282  1.4334 -0.0722  0.0191
10755TIP3    H253681   2.017   2.649  11.160  0.5363  0.7242 -0.0831
10756TIP3   OH253682   3.738   0.237  15.537  0.6131  0.0766  0.1122
10756TIP3    H153683   3.796   0.166  15.565  0.8136  0.1892 -0.0157
10756TIP3    H253684   3.670   0.241  15.604  0.0062 -0.9464 -0.4273
10757TIP3   OH253685   3.924   4.914   0.140  0.2401  0.1736  0.1066
10757TIP3    H153686   3.951   4.999   0.174  1.1926 -0.7941  1.8497
10757TIP3    H253687   3.864   4.878   0.206 -2.2100  0.5606 -1.8324
10758TIP3   OH253688   3.059   4.034  15.675  0.1012  0.5107  0.1880
10758TIP3    H153689   2.979   4.069  15.714 -0.6469 -0.0747 -0.7914
10758TIP3    H253690   3.130   4.072  15.727 -0.7612  1.9049  0.3788
10759TIP3   OH253691   2.155   4.452   3.224  0.4371  0.0637 -0.1002
10759TIP3    H153692   2.195   4.508   3.158 -1.6044  0.6515 -0.8700
10759TIP3    H253693   2.090   4.400   3.177 -0.5345 -0.0316  1.2827
10760TIP3   OH253694   1.126   4.903   4.823 -0.0854 -0.6108  0.3641
10760TIP3    H153695   1.158   4.830   4.771  1.7719  1.2653 -1.2411
10760TIP3    H253696   1.167   4.893   4.909  1.4803 -0.5757 -0.3649
10761TIP3   OH253697   6.287   2.601  16.485  0.1121 -0.3030 -0.1999
10761TIP3    H153698   6.275   2.650  16.567  1.5790 -0.4441  0.1129
10761TIP3    H253699   6.225   2.528  16.491 -3.5029  2.5299 -1.5173
10762TIP3   OH253700   0.125   1.606  11.476 -0.5767  0.0738 -0.3125
10762TIP3    H153701   0.212   1.613  11.437 -0.6151  0.4114 -0.3351
10762TIP3    H253702   0.083   1.690  11.459 -0.0623  0.7639  1.7243
10763TIP3   OH253703   5.079   4.958  14.300 -0.5483 -0.0176 -0.3740
10763TIP3    H153704   5.074   4.925  14.210  2.6231  0.7842 -0.8964
10763TIP3    H253705   5.055   5.051  14.293 -0.3935  0.0224 -0.3772
10764TIP3   OH253706   1.118   0.672  12.577  0.0601  0.0787  0.2438
10764TIP3    H153707   1.059   0.747  12.589 -0.9687 -0.8266  0.9024
10764TIP3    H253708   1.121   0.659  12.482 -3.6625 -2.0904  0.3320
10765TIP3   OH253709   3.805   3.046   2.507  0.3838  0.3283  0.6759
10765TIP3    H153710   3.805   2.973   2.445  2.5037  0.6925  0.2074
10765TIP3    H253711   3.762   3.012   2.585 -0.9436 -0.6129 -0.4364
10766TIP3   OH253712   5.639   0.751  15.330 -0.5550  0.2022  0.0848
10766TIP3    H153713   5.671   0.792  15.411  0.8498  1.3450 -1.0333
10766TIP3    H253714   5.580   0.682  15.360 -0.0539  0.6205  2.0907
10767TIP3   OH253715   1.994   0.296  12.685  0.0547  0.0957 -0.1351
10767TIP3    H153716   1.955   0.353  12.618 -0.8061 -1.0532 -0.6388
10767TIP3    H253717   1.927   0.291  12.753  0.2588 -0.0406  0.0548
10768TIP3   OH253718   0.655   3.737   1.172 -0.6556  0.5710 -0.0133
10768TIP3    H153719   0.565   3.708   1.180 -0.5476  0.4587  0.8463
10768TIP3    H253720   0.707   3.659   1.188 -0.4063  0.5769 -0.7706
10769TIP3   OH253721   0.413   5.713  13.937 -0.5513 -0.0751 -0.4524
10769TIP3    H153722   0.380   5.685  14.022  2.7730  0.4062  1.0783
10769TIP3    H253723   0.493   5.663  13.924  0.8640  2.3856 -1.6476
10770TIP3   OH253724   4.213   2.590   0.934 -0.2783  0.1218  0.5321
10770TIP3    H153725   4.246   2.602   1.023  0.2507  0.8397  0.2513
10770TIP3    H253726   4.164   2.670   0.916 -0.6494 -0.1587  0.2937
10771TIP3   OH253727   3.280   3.025   0.939  0.1857 -0.0179  0.2208
10771TIP3    H153728   3.375   3.035   0.933  0.1453 -0.5739 -1.4549
10771TIP3    H253729   3.261   2.943   0.894 -0.7567 -1.6914  3.4915
10772TIP3   OH253730   0.458   1.170   4.038  0.1052  0.0492  0.5098
10772TIP3    H153731   0.464   1.093   4.095  0.3022  0.2758  0.7942
10772TIP3    H253732   0.471   1.244   4.097 -1.4522  0.3673  0.4755
10773TIP3   OH253733   6.469   5.835  15.743 -0.0070  0.7428 -0.0528
10773TIP3    H153734   6.386   5.793  15.719 -0.6419  1.4559  0.8673
10773TIP3    H253735   6.458   5.926  15.715  1.6594  0.1716 -2.7580
10774TIP3   OH253736   0.545   1.619   3.994  0.1794  0.6381  0.3057
10774TIP3    H153737   0.469   1.652   3.946 -0.0185  0.0065  0.1898
10774TIP3    H253738   0.606   1.693   3.995  0.6286  0.3288 -1.8354
10775TIP3   OH253739   4.703   6.032   5.324 -0.7932  0.1153 -0.2157
10775TIP3    H153740   4.637   6.085   5.368 -2.7670 -0.3032 -2.4976
10775TIP3    H253741   4.723   6.081   5.244  0.2345 -0.7008 -0.4616
10776TIP3   OH253742   6.114   3.395  11.404  0.2737 -0.5929 -0.0849
10776TIP3    H153743   6.143   3.467  11.460  1.4495 -1.0639 -0.0711
10776TIP3    H253744   6.176   3.395  11.331  0.2605 -1.5570 -0.1039
10777TIP3   OH253745   3.217   4.386  15.224 -0.0830 -0.1488 -0.2888
10777TIP3    H153746   3.134   4.429  15.202  0.7452  0.8873 -1.4896
10777TIP3    H253747   3.256   4.442  15.292  1.1652  1.2457 -2.1119
10778TIP3   OH253748   6.104   3.414   5.125  0.2034 -0.1892 -0.0193
10778TIP3    H153749   6.018   3.448   5.153  0.1816 -1.2158  1.1776
10778TIP3    H253750   6.084   3.329   5.086  0.7471 -0.6182  0.6571
10779TIP3   OH253751   5.438   3.217   0.868 -0.6865  0.2989  0.2646
10779TIP3    H153752   5.388   3.298   0.858  1.0507  1.2417 -1.3432
10779TIP3    H253753   5.409   3.180   0.952 -2.4933  1.8721  0.3610
10780TIP3   OH253754   2.711   1.108  14.671 -0.4654 -0.6758  0.1982
10780TIP3    H153755   2.670   1.024  14.690  0.7995 -1.1378  0.9889
10780TIP3    H253756   2.639   1.165  14.645 -1.5738 -1.4794  1.4556
10781TIP3   OH253757   4.322   0.156   5.590  0.0332  0.2734 -0.7216
10781TIP3    H153758   4.349   0.068   5.615 -0.6772 -0.1317 -1.3759
10781TIP3    H253759   4.404   0.204   5.580  0.4261 -0.3327 -0.4333
10782TIP3   OH253760   2.392   6.430  12.031  0.1299  0.2978  0.0914
10782TIP3    H153761   2.333   6.356  12.046  0.6234 -0.4980 -1.7232
10782TIP3    H253762   2.466   6.392  11.984  1.0629  1.7027  0.3938
10783TIP3   OH253763   6.531   0.056  14.171  0.0285 -0.2468  0.2874
10783TIP3    H153764   6.581  -0.007  14.223  1.3085  0.0332 -0.5692
10783TIP3    H253765   6.596   0.119  14.141 -0.8738  0.2238 -0.7222
10784TIP3   OH253766   5.124   3.785   5.395 -0.0025 -0.2629  0.1182
10784TIP3    H153767   5.081   3.854   5.446  0.0569 -0.5193  0.5123
10784TIP3    H253768   5.075   3.706   5.414 -2.0403  0.2070 -2.7444
10785TIP3   OH253769   4.082   2.293   5.581 -0.1153  0.1008  0.1939
10785TIP3    H153770   4.066   2.383   5.610  2.1287  0.7071 -0.3981
10785TIP3    H253771   4.100   2.300   5.487 -2.2994 -1.2672 -0.3669
10786TIP3   OH253772   6.275   4.909   4.148 -0.1352 -0.1533 -0.1234
10786TIP3    H153773   6.255   4.983   4.205  1.9654  1.3126 -1.1985
10786TIP3    H253774   6.194   4.893   4.100 -0.3591  2.1682 -0.6007
10787TIP3   OH253775   6.636   2.393  16.238  0.0086 -0.0362  0.6897
10787TIP3    H153776   6.585   2.349  16.307 -0.4784  0.1480  0.4488
10787TIP3    H253777   6.653   2.324  16.174  1.9899 -0.6504  1.8278
10788TIP3   OH253778   3.346   1.417  10.875  0.0366  0.3368 -0.2925
10788TIP3    H153779   3.253   1.399  10.882  0.2616 -0.6895  0.2450
10788TIP3    H253780   3.373   1.373  10.794  0.1386  0.2650 -0.2204
10789TIP3   OH253781   0.184   3.460   3.967  0.2976 -0.0809 -0.5730
10789TIP3    H153782   0.104   3.485   3.920  0.6891 -0.7703 -1.6123
10789TIP3    H253783   0.197   3.367   3.945 -0.2684 -0.8081  1.9785
10790TIP3   OH253784   2.210   0.520   2.316 -0.2967  0.3788  0.1759
10790TIP3    H153785   2.281   0.572   2.279 -0.6185 -0.9712 -2.4698
10790TIP3    H253786   2.254   0.440   2.347 -0.5677 -0.3243 -1.1882
10791TIP3   OH253787   4.687   6.500   0.401 -0.1508  0.2003 -0.1064
10791TIP3    H153788   4.638   6.463   0.327  1.1815  0.0729 -0.9524
10791TIP3    H253789   4.777   6.471   0.387  0.0413 -0.1993  1.8433
10792TIP3   OH253790   3.647   2.816   0.767 -0.3466  0.4534 -0.7185
10792TIP3    H153791   3.644   2.901   0.722 -0.7712  1.2988  0.8448
10792TIP3    H253792   3.603   2.833   0.851  1.0004 -0.8953  0.2704
10793TIP3   OH253793   5.099   3.557   2.837 -0.0847 -0.0809  0.1946
10793TIP3    H153794   5.131   3.471   2.811 -0.1056 -0.2761  0.8045
10793TIP3    H253795   5.150   3.580   2.914  1.6347  1.5397 -1.3807
10794TIP3   OH253796   6.389   0.136   3.876  0.7850  1.0589  0.6226
10794TIP3    H153797   6.400   0.041   3.879 -0.6117  0.9131  2.6086
10794TIP3    H253798   6.446   0.169   3.945  0.7830  1.5913  0.3702
10795TIP3   OH253799   2.479   4.597  11.381 -0.2527 -0.3364  0.6882
10795TIP3    H153800   2.504   4.689  11.392  0.5335 -0.1828 -2.0037
10795TIP3    H253801   2.387   4.601  11.355 -0.0297 -0.2577 -0.1034
10796TIP3   OH253802   5.708   3.923   2.546  0.1224  0.1547 -0.4805
10796TIP3    H153803   5.648   3.996   2.555 -1.2909 -1.0892  0.5534
10796TIP3    H253804   5.656   3.854   2.504  0.3363 -1.4543  1.7995
10797TIP3   OH253805   2.600   5.768  14.549 -0.2243  0.5281  0.0263
10797TIP3    H153806   2.623   5.685  14.591  0.5819  0.5642 -0.3448
10797TIP3    H253807   2.509   5.782  14.574 -0.2018 -0.1950  0.5451
10798TIP3   OH253808   0.775   0.553  16.634  0.1755  0.5462  0.0948
10798TIP3    H153809   0.794   0.472  16.587 -0.3457  1.0474 -1.0056
10798TIP3    H253810   0.844   0.614  16.606  0.6904  0.4296  1.0804
10799TIP3   OH253811   1.968   3.536   4.008 -0.4768 -0.2627 -0.6490
10799TIP3    H153812   2.038   3.575   4.061 -1.1930  0.5629 -0.3121
10799TIP3    H253813   2.004   3.535   3.919 -0.7443  1.9111 -0.8143
10800TIP3   OH253814   4.241   4.016  11.945  0.2315 -0.1656 -0.2108
10800TIP3    H153815   4.230   3.921  11.932  1.3976 -0.2481 -0.6494
10800TIP3    H253816   4.330   4.034  11.914  0.2690  0.9604  0.5433
10801TIP3   OH253817   1.749   1.919   0.862 -0.0967  0.2531  0.5969
10801TIP3    H153818   1.817   1.947   0.924  0.7487  1.1650 -0.7047
10801TIP3    H253819   1.704   2.000   0.837 -0.4955 -0.1176  0.0923
10802TIP3   OH253820   3.275   6.373  11.564 -0.0250 -0.3842 -0.3324
10802TIP3    H153821   3.258   6.376  11.470  1.4022 -0.5526 -0.6002
10802TIP3    H253822   3.370   6.377  11.572 -0.1658  0.4673  1.1410
10803TIP3   OH253823   1.323   2.984  11.090 -0.8115 -0.1669 -0.2444
10803TIP3    H153824   1.272   2.958  11.013 -1.1477  0.7077 -0.3240
10803TIP3    H253825   1.350   3.074  11.071 -1.4714  0.2955  0.9539
10804TIP3   OH253826   3.023   0.997   2.886 -0.3057  0.3072  0.0704
10804TIP3    H153827   3.112   0.988   2.852  0.7344  2.7394  1.9734
10804TIP3    H253828   3.017   0.935   2.958  0.1183  0.6840  0.4300
10805TIP3   OH253829   3.481   2.978  17.030  0.1670  0.4701 -0.0139
10805TIP3    H153830   3.461   2.885  17.021  3.6531 -0.4367  1.1836
10805TIP3    H253831   3.404   3.014  17.074 -1.7521 -1.5781 -1.5766
10806TIP3   OH253832   4.972   1.676  16.671 -0.3876  0.0391  0.1066
10806TIP3    H153833   4.963   1.581  16.664  0.7304 -0.0592 -0.1971
10806TIP3    H253834   4.883   1.710  16.672 -0.8066 -1.0775  1.0873
10807TIP3   OH253835   3.986   6.294   5.276 -0.7313 -0.3197 -0.7572
10807TIP3    H153836   4.044   6.257   5.209  0.9263 -0.4714  0.7322
10807TIP3    H253837   4.008   6.387   5.277  2.3498 -0.9457  2.4604
10808TIP3   OH253838   0.801   5.733   0.735  0.2209  0.3305 -0.1496
10808TIP3    H153839   0.714   5.772   0.724  0.2619  0.8617  1.3643
10808TIP3    H253840   0.783   5.640   0.751 -0.2751  0.9546  3.2799
10809TIP3   OH253841   3.015   2.016  16.380  0.0232  0.0340 -0.3302
10809TIP3    H153842   3.040   2.050  16.466 -0.5298 -1.0498  0.2688
10809TIP3    H253843   2.962   1.938  16.399  1.8904 -1.6048 -1.6925
10810TIP3   OH253844   2.735   1.675   2.719 -0.3401 -0.2467  0.0390
10810TIP3    H153845   2.773   1.606   2.774  1.1600 -0.2362 -0.9496
10810TIP3    H253846   2.666   1.631   2.669  1.6868 -1.4602 -1.7870
10811TIP3   OH253847   3.659   3.812   5.102  0.7259 -0.1344 -0.3495
10811TIP3    H153848   3.631   3.822   5.011  3.5570 -3.0042 -1.6449
10811TIP3    H253849   3.615   3.732   5.131  1.5226 -0.4377  0.0457
10812TIP3   OH253850   5.637   0.040  15.346 -0.0904  0.0422 -0.0687
10812TIP3    H153851   5.650   0.118  15.292  1.5334 -2.1040 -2.9311
10812TIP3    H253852   5.565  -0.006  15.303  1.6310 -2.0006 -0.8093
10813TIP3   OH253853   5.223   4.311  12.817  0.6668  0.1463  0.2975
10813TIP3    H153854   5.303   4.363  12.823  0.4661  0.5598 -0.5195
10813TIP3    H253855   5.176   4.349  12.742  0.0179 -0.5165  0.3697
10814TIP3   OH253856   2.398   4.016   5.596 -0.6881  0.5067 -0.2688
10814TIP3    H153857   2.320   3.979   5.639 -0.9736  0.5213 -0.7730
10814TIP3    H253858   2.469   4.001   5.659 -0.3269 -3.0193 -1.4145
10815TIP3   OH253859   2.221   2.373  15.055  0.4267 -0.2264  0.2165
10815TIP3    H153860   2.172   2.444  15.014  0.4487  0.1959  0.9071
10815TIP3    H253861   2.309   2.408  15.065  0.4892 -0.4290  0.3720
10816TIP3   OH253862   4.140   0.768   6.435 -0.2517 -0.2718 -0.2922
10816TIP3    H153863   4.050   0.741   6.416  0.3640 -2.5908 -0.0289
10816TIP3    H253864   4.186   0.758   6.352 -0.1535  0.6056 -0.3476
10817TIP3   OH253865   2.123   3.296   4.493 -0.3959 -0.4856 -0.1826
10817TIP3    H153866   2.073   3.342   4.426 -1.5384  1.6966  2.0582
10817TIP3    H253867   2.115   3.352   4.571  2.9788 -1.6496  1.0765
10818TIP3   OH253868   0.178   3.436   0.892 -0.3668 -0.1141  0.2967
10818TIP3    H153869   0.113   3.369   0.870 -1.8654  1.2216  0.6033
10818TIP3    H253870   0.260   3.403   0.854 -1.2643 -1.6970 -0.3120
10819TIP3   OH253871   2.967   1.958   2.481  0.0997  0.4647 -0.1188
10819TIP3    H153872   2.942   1.940   2.572  2.3495 -1.2310  0.2332
10819TIP3    H253873   3.054   1.997   2.488 -0.5164  2.1141 -1.4728
10820TIP3   OH253874   4.264   4.066  11.461 -0.2451  0.6598  0.4323
10820TIP3    H153875   4.260   4.066  11.366 -0.2220 -1.2500  0.4062
10820TIP3    H253876   4.298   3.979  11.484  0.3730  1.3360  2.1507
10821TIP3   OH253877   6.351   5.884  11.408 -0.9395 -1.1237 -0.4743
10821TIP3    H153878   6.434   5.853  11.370 -0.6904  0.6850 -1.4781
10821TIP3    H253879   6.365   5.880  11.502  0.8980  0.6614 -0.6390
10822TIP3   OH253880   3.653   0.014   5.343 -0.0831  0.3669  0.2855
10822TIP3    H153881   3.622   0.103   5.360  0.3839  0.6462 -0.3245
10822TIP3    H253882   3.594  -0.042   5.393 -1.4420  0.9051 -0.6943
10823TIP3   OH253883   1.348   1.605   2.937  0.1144  0.0080  0.1659
10823TIP3    H153884   1.342   1.691   2.896  0.4010 -0.6107 -1.1847
10823TIP3    H253885   1.259   1.570   2.932  0.3471 -0.4505 -0.7674
10824TIP3   OH253886   1.411   0.155  16.434 -0.1974  0.6458  0.5448
10824TIP3    H153887   1.442   0.187  16.350 -0.5845 -0.9964 -0.2427
10824TIP3    H253888   1.417   0.059  16.427  1.8385  0.5134  3.1653
10825TIP3   OH253889   1.400   4.900  11.527 -0.2953  0.0896 -0.2229
10825TIP3    H153890   1.313   4.883  11.563 -0.0603  0.6248  0.6051
10825TIP3    H253891   1.422   4.820  11.479 -1.4321  0.1251 -0.8247
10826TIP3   OH253892   3.113   0.654  14.930 -0.3868 -0.3868  0.1542
10826TIP3    H153893   3.055   0.702  14.990  0.1534 -0.3285  0.6377
10826TIP3    H253894   3.074   0.666  14.844 -1.3557 -0.7362  0.5351
10827TIP3   OH253895   3.161   6.163  11.712  0.5114  0.1850 -0.2190
10827TIP3    H153896   3.184   6.247  11.672  2.1861 -0.3333 -0.3618
10827TIP3    H253897   3.073   6.145  11.679  0.6312  1.2824 -1.1831
10828TIP3   OH253898   1.731   6.105   5.311 -0.2126  0.3692  0.5440
10828TIP3    H153899   1.695   6.046   5.245  3.4479 -0.8519 -0.5091
10828TIP3    H253900   1.733   6.052   5.391 -1.5905  0.7535  0.8371
10829TIP3   OH253901   0.557   2.766  11.984 -0.1224 -0.1889  0.4970
10829TIP3    H153902   0.497   2.767  11.909 -2.0498 -0.1767  2.0106
10829TIP3    H253903   0.615   2.841  11.970 -0.3381 -0.3051 -1.0683
10830TIP3   OH253904   5.234   2.669   3.105 -0.1311  0.3381 -0.2326
10830TIP3    H153905   5.177   2.699   3.176  1.3647 -1.9959  2.0773
10830TIP3    H253906   5.315   2.719   3.116 -0.0052  0.1789 -0.4271
10831TIP3   OH253907   1.205   3.130  14.420  0.3079  0.1209 -0.3063
10831TIP3    H153908   1.263   3.058  14.395 -0.4720 -0.1538 -1.3466
10831TIP3    H253909   1.264   3.197  14.453  1.1179 -0.6448 -0.1588
10832TIP3   OH253910   1.835   6.349  12.880  0.1272 -0.3914 -0.0291
10832TIP3    H153911   1.859   6.380  12.967  2.4708 -0.5982 -0.5728
10832TIP3    H253912   1.759   6.292  12.895  2.2754 -2.7522  2.2293
10833TIP3   OH253913   0.471   0.384   3.347 -0.4384  0.3366  0.1320
10833TIP3    H153914   0.475   0.306   3.292  0.6631  1.1186 -0.9598
10833TIP3    H253915   0.390   0.376   3.396  0.2733 -2.1011  0.9828
10834TIP3   OH253916   0.993   0.647  14.534  0.0459  0.4760  0.6639
10834TIP3    H153917   0.899   0.658  14.547 -0.2314 -0.8007 -0.2048
10834TIP3    H253918   1.027   0.626  14.622 -0.5868  0.1856  0.8431
10835TIP3   OH253919   2.697   6.320   6.407 -0.1149  0.0733 -0.4056
10835TIP3    H153920   2.685   6.350   6.497 -1.6750 -0.4434 -0.4106
10835TIP3    H253921   2.657   6.388   6.353 -2.7712 -1.4344 -0.4646
10836TIP3   OH253922   3.024   1.688  16.208 -0.3085  0.2495 -0.4710
10836TIP3    H153923   3.113   1.693  16.244  0.1116  0.1736 -1.4788
10836TIP3    H253924   3.008   1.595  16.195 -0.8631  0.2080  0.5050
10837TIP3   OH253925   4.230   4.018  10.902  0.2185 -0.3002 -0.0424
10837TIP3    H153926   4.209   4.079  10.831  0.5743 -2.0582 -1.6941
10837TIP3    H253927   4.323   3.999  10.891  0.0489 -1.3461  0.2839
10838TIP3   OH253928   6.692   3.011  14.380 -0.2148 -0.2225 -0.1486
10838TIP3    H153929   6.618   2.952  14.394 -0.3261 -0.1121 -0.2708
10838TIP3    H253930   6.712   3.003  14.287 -1.2986  1.1835 -0.5144
10839TIP3   OH253931   1.574   1.867   2.434  0.1696  1.0648 -0.5792
10839TIP3    H153932   1.592   1.803   2.503 -1.5850 -2.3653 -3.1361
10839TIP3    H253933   1.654   1.918   2.427  1.3466 -0.2875  2.1502
10840TIP3   OH253934   0.768   0.962   6.756 -0.2757  0.5745  0.9101
10840TIP3    H153935   0.707   1.023   6.796  1.5016  1.9053  1.6605
10840TIP3    H253936   0.849   1.012   6.745  1.3492 -1.7104  1.9025
10841TIP3   OH253937   4.710   1.300  14.612  0.1189  0.0058  0.3928
10841TIP3    H153938   4.665   1.332  14.691 -1.7123  0.5766 -0.8258
10841TIP3    H253939   4.749   1.217  14.638 -2.0717 -0.7484  1.4078
10842TIP3   OH253940   4.046   4.437   3.226  0.2961  0.4861 -0.1287
10842TIP3    H153941   4.109   4.450   3.297 -1.1873 -0.2190  1.3629
10842TIP3    H253942   3.963   4.468   3.262 -0.9385 -1.9853 -0.7280
10843TIP3   OH253943   0.740   2.010   6.505  0.1559 -0.1300  0.3328
10843TIP3    H153944   0.821   2.023   6.455 -1.0644 -0.0731 -1.7002
10843TIP3    H253945   0.707   1.925   6.477 -0.9655  0.2578  0.4287
10844TIP3   OH253946   3.930   1.973  15.925 -0.2621  0.4862 -0.3028
10844TIP3    H153947   3.985   1.950  15.851  0.8480 -0.1679  0.7203
10844TIP3    H253948   3.907   2.065  15.910 -1.0420  0.0064 -2.0713
10845TIP3   OH253949   4.542   5.073   0.774 -0.2582 -0.0262  0.0247
10845TIP3    H153950   4.605   5.088   0.844 -0.9721  0.2762  0.6004
10845TIP3    H253951   4.514   4.982   0.786  0.6400 -0.4179 -0.7077
10846TIP3   OH253952   1.819   4.172  13.658 -0.3853  0.0005  0.2551
10846TIP3    H153953   1.735   4.204  13.626  0.5465  1.5190 -0.7379
10846TIP3    H253954   1.884   4.223  13.610  1.1252 -1.7769  0.3480
10847TIP3   OH253955   4.422   2.273  17.233  0.1113  0.0930  0.0664
10847TIP3    H153956   4.352   2.250  17.294  0.0292  0.4998  0.1259
10847TIP3    H253957   4.379   2.280  17.148  0.4622 -1.8404 -0.2902
10848TIP3   OH253958   1.573   5.993   2.666 -0.2990 -0.3678  0.2918
10848TIP3    H153959   1.532   5.990   2.580  2.0106  1.6842 -0.9405
10848TIP3    H253960   1.640   5.925   2.664 -0.3027 -0.3768  0.4881
10849TIP3   OH253961   4.486   2.736  14.742  0.5420  0.1128  0.7694
10849TIP3    H153962   4.500   2.753  14.835 -0.0710  1.6771  0.5868
10849TIP3    H253963   4.529   2.809  14.697  0.2897 -0.3017 -0.1515
10850TIP3   OH253964   3.630   6.415  16.210  0.2771  0.0127 -0.1267
10850TIP3    H153965   3.710   6.363  16.217  0.5258  0.5911  1.6463
10850TIP3    H253966   3.560   6.354  16.236  0.3804  0.0926  0.3434
10851TIP3   OH253967   6.747   3.268   0.840 -0.8224  0.5836 -0.2215
10851TIP3    H153968   6.770   3.178   0.860  2.2410  1.1516 -0.9717
10851TIP3    H253969   6.691   3.295   0.913 -0.3732 -1.3591  0.8846
10852TIP3   OH253970   2.123   5.860   3.573  0.0486 -0.2279  0.1684
10852TIP3    H153971   2.048   5.908   3.540  1.6549  0.9808 -1.8291
10852TIP3    H253972   2.171   5.923   3.627  0.1096 -0.7085  0.6764
10853TIP3   OH253973   1.537   3.666  16.006  0.2264 -0.5264 -0.1539
10853TIP3    H153974   1.546   3.672  16.101  0.1316  0.6429 -0.2040
10853TIP3    H253975   1.442   3.660  15.991  0.1729  0.3540 -0.2124
10854TIP3   OH253976   3.626   5.151  15.403  0.2393  0.1384  0.0712
10854TIP3    H153977   3.621   5.242  15.432  3.6493  0.0710  1.0340
10854TIP3    H253978   3.664   5.155  15.315 -0.4487 -0.3245 -0.2559
10855TIP3   OH253979   0.666   4.862   5.650 -0.0134 -0.0434  0.4686
10855TIP3    H153980   0.651   4.778   5.694 -0.2912 -0.3244 -0.1598
10855TIP3    H253981   0.667   4.926   5.721 -0.4996 -0.4922  0.8855
10856TIP3   OH253982   2.889   6.334  12.166  0.1290  0.4361 -0.8051
10856TIP3    H153983   2.944   6.322  12.244 -1.6901  0.1479  0.4461
10856TIP3    H253984   2.839   6.253  12.160  0.6129  0.2536 -2.5836
10857TIP3   OH253985   2.566   1.507  11.527 -0.1264  0.2592 -0.3481
10857TIP3    H153986   2.534   1.419  11.544 -0.1093  0.2851 -0.1746
10857TIP3    H253987   2.641   1.517  11.587  0.0994  0.2581 -0.6295
10858TIP3   OH253988   0.165   5.932  15.729  0.0252  0.6130 -0.5814
10858TIP3    H153989   0.083   5.978  15.748  1.0004  1.6688  1.2414
10858TIP3    H253990   0.154   5.845  15.768 -1.2342 -0.2109 -2.6965
10859TIP3   OH253991   4.313   0.814   1.390 -0.2019  0.1869  0.5054
10859TIP3    H153992   4.283   0.725   1.379  0.3319 -0.1756  1.7980
10859TIP3    H253993   4.403   0.805   1.424  0.4210  1.2125 -0.8299
10860TIP3   OH253994   4.777   4.747  14.200 -0.5900  0.2796 -0.1817
10860TIP3    H153995   4.770   4.816  14.266 -1.1444  0.1460 -0.0991
10860TIP3    H253996   4.790   4.667  14.251 -1.3098  0.1340 -0.2111
10861TIP3   OH253997   4.972   2.066  14.846 -0.2550 -0.1665  0.0218
10861TIP3    H153998   4.882   2.059  14.877 -0.3926  0.2411 -0.2839
10861TIP3    H253999   4.968   2.131  14.775 -0.0515 -1.5450 -1.2804
10862TIP3   OH254000   2.239   2.725   4.474 -0.2481  0.8074  0.2096
10862TIP3    H154001   2.286   2.660   4.527  1.3072  0.5288 -1.4815
10862TIP3    H254002   2.279   2.809   4.500  0.4048  0.6874 -0.4011
10863TIP3   OH254003   2.220   2.509  13.416 -0.1783  0.0102 -0.0550
10863TIP3    H154004   2.298   2.476  13.370  0.8564  2.2460  0.0175
10863TIP3    H254005   2.210   2.450  13.491  1.0249 -0.7354 -0.4627
10864TIP3   OH254006   4.544   4.940  13.500  0.7422  0.3108 -0.0022
10864TIP3    H154007   4.510   4.857  13.467 -0.9904  0.9434  0.1232
10864TIP3    H254008   4.521   4.941  13.592 -0.1863  1.3831 -0.2356
10865TIP3   OH254009   0.464   3.784  16.985 -0.1038 -0.4735 -0.2661
10865TIP3    H154010   0.379   3.752  16.955 -0.4809  0.3469 -0.0800
10865TIP3    H254011   0.522   3.708  16.979 -0.1668 -0.3464 -3.1119
10866TIP3   OH254012   2.088   0.065  14.191  0.0624 -0.1786  0.3660
10866TIP3    H154013   2.052  -0.023  14.196 -0.0167 -0.1209  0.8058
10866TIP3    H254014   2.102   0.080  14.097 -1.4738 -0.0252  0.1531
10867TIP3   OH254015   1.573   0.945   2.787  0.0383 -0.4774 -0.1142
10867TIP3    H154016   1.593   1.017   2.846 -1.2959  1.1278 -1.5589
10867TIP3    H254017   1.620   0.870   2.823  1.4572  1.1168  1.4158
10868TIP3   OH254018   5.423   4.588  14.907 -0.1285  0.2137 -0.1332
10868TIP3    H154019   5.418   4.671  14.954  0.5253 -0.5714  1.3598
10868TIP3    H254020   5.337   4.549  14.918 -0.6041  0.9244 -1.2854
10869TIP3   OH254021   0.494   3.331  15.986 -0.2329 -0.1686 -0.5138
10869TIP3    H154022   0.403   3.302  15.984 -1.2596  2.9439 -0.9049
10869TIP3    H254023   0.515   3.336  16.079 -0.6025 -0.4321 -0.4125
10870TIP3   OH254024   5.431   1.830  14.533  0.2089  0.1494 -0.1030
10870TIP3    H154025   5.494   1.782  14.479 -1.4566 -0.4038 -1.5877
10870TIP3    H254026   5.444   1.922  14.511 -0.8911 -0.1150 -1.9562
10871TIP3   OH254027   5.639   4.299   0.213 -0.0605  0.3489 -0.2205
10871TIP3    H154028   5.653   4.204   0.212  0.3869  0.4235 -1.0065
10871TIP3    H254029   5.580   4.314   0.288 -2.3624 -0.8621 -1.7314
10872TIP3   OH254030   5.410   1.993  12.683 -0.4576 -0.1314 -0.3729
10872TIP3    H154031   5.417   1.926  12.615  2.5416  0.2215 -0.4821
10872TIP3    H254032   5.409   1.944  12.765  1.5189 -0.3283 -0.4611
10873TIP3   OH254033   1.369   2.145  11.423  0.1388  0.4555 -0.1612
10873TIP3    H154034   1.448   2.185  11.385  0.8391  1.0847  1.8861
10873TIP3    H254035   1.332   2.092  11.352  3.0015 -0.7392 -0.8130
10874TIP3   OH254036   6.370   3.049   2.145 -0.2527  0.3429 -0.6095
10874TIP3    H154037   6.300   3.094   2.097  0.0459  1.4047 -0.0545
10874TIP3    H254038   6.352   3.069   2.237  0.9326  0.8339 -0.4843
10875TIP3   OH254039   6.234   0.951   3.379 -0.7268  0.4922  0.4607
10875TIP3    H154040   6.289   0.895   3.432 -0.6626  0.1452  0.0312
10875TIP3    H254041   6.276   1.037   3.382  1.0122 -0.2363 -1.5674
10876TIP3   OH254042   5.781   0.283  16.260  0.2131 -0.7511 -0.0564
10876TIP3    H154043   5.742   0.198  16.244  0.9800 -1.0230 -0.5048
10876TIP3    H254044   5.815   0.278  16.350  1.2009 -1.2866 -0.4560
10877TIP3   OH254045   3.485   5.233   1.947  0.0905  0.3034  0.5095
10877TIP3    H154046   3.533   5.313   1.927  1.2185 -0.4109  0.2908
10877TIP3    H254047   3.553   5.167   1.961 -0.8089 -0.4979  1.2092
10878TIP3   OH254048   6.702   4.094  10.586  0.1192 -0.2369  0.1857
10878TIP3    H154049   6.751   4.086  10.505 -0.6859 -0.8665 -0.2461
10878TIP3    H254050   6.627   4.035  10.575 -1.3839  1.5936  0.3445
10879TIP3   OH254051   3.086   6.015  16.274  0.3441 -0.1447  0.2625
10879TIP3    H154052   3.040   6.006  16.358 -0.5377  1.2281 -0.0502
10879TIP3    H254053   3.056   5.941  16.222  1.0699 -1.1376  1.2209
10880TIP3   OH254054   0.028   1.492   1.186 -0.3937 -0.3828  0.1632
10880TIP3    H154055  -0.030   1.521   1.257 -0.8201 -3.9968  1.3749
10880TIP3    H254056   0.092   1.434   1.229  2.0568  0.7929 -1.7238
10881TIP3   OH254057   6.307   2.369   4.872  0.3922  0.5815 -0.4535
10881TIP3    H154058   6.297   2.312   4.948 -1.2423  1.6941  0.1983
10881TIP3    H254059   6.342   2.312   4.803  3.4546 -0.0737  1.5702
10882TIP3   OH254060   3.474   1.738   5.756 -0.0026 -0.2885 -0.0968
10882TIP3    H154061   3.488   1.832   5.750 -0.7099 -0.2621 -1.7889
10882TIP3    H254062   3.381   1.726   5.738 -0.2113 -1.2080  1.4823
10883TIP3   OH254063   3.668   5.852   5.415  0.3974  0.2260 -0.3339
10883TIP3    H154064   3.619   5.934   5.403  0.2219 -0.0490 -1.4888
10883TIP3    H254065   3.759   5.877   5.401  0.1305 -0.2398 -3.0351
10884TIP3   OH254066   4.057   1.085  11.167  0.1681  0.0483  0.3307
10884TIP3    H154067   3.991   1.141  11.208 -2.1198 -1.1162 -1.6078
10884TIP3    H254068   4.115   1.145  11.121 -1.4227  0.9580 -0.5435
10885TIP3   OH254069   3.391   2.086  12.163  0.2789 -0.2901  0.3348
10885TIP3    H154070   3.362   2.088  12.072  0.2763  1.0217  0.3525
10885TIP3    H254071   3.473   2.136  12.163 -0.4551  0.9352  1.2859
10886TIP3   OH254072   5.089   3.675   4.064  0.0317  0.0574 -0.6128
10886TIP3    H154073   5.165   3.624   4.034  0.7630  1.2271 -0.8054
10886TIP3    H254074   5.075   3.645   4.154  0.1031 -0.8809 -0.9095
10887TIP3   OH254075   4.047   4.020  15.475 -0.0392 -0.2947 -0.2469
10887TIP3    H154076   4.048   3.950  15.409 -3.1234  0.2429 -0.9513
10887TIP3    H254077   4.116   4.080  15.447  0.1073 -1.1616 -1.7988
10888TIP3   OH254078   4.126   2.313  15.967 -0.1516  0.3222 -0.0053
10888TIP3    H154079   4.174   2.235  15.992  0.0496  0.9899  1.7549
10888TIP3    H254080   4.096   2.350  16.049 -2.3434  0.7758 -0.9734
10889TIP3   OH254081   1.149   4.652   4.737  0.2848 -0.1403  0.5275
10889TIP3    H154082   1.062   4.617   4.720  0.6440 -0.8127  0.0722
10889TIP3    H254083   1.191   4.587   4.793  0.5841  0.0569  0.5362
10890TIP3   OH254084   5.556   4.325  13.077  0.3210  0.6378  0.2087
10890TIP3    H154085   5.560   4.419  13.057  0.6273  0.6599  0.3680
10890TIP3    H254086   5.647   4.296  13.073  0.3040  0.4897  0.8356
10891TIP3   OH254087   0.540   5.823  13.071  0.1576  0.0369 -0.3215
10891TIP3    H154088   0.606   5.758  13.047  0.3402  0.3402 -0.6433
10891TIP3    H254089   0.458   5.773  13.076  0.0703  0.0162 -1.8410
10892TIP3   OH254090   2.162   5.973   1.177 -0.1674  0.0653  0.5341
10892TIP3    H154091   2.216   5.937   1.107  0.5027  1.0722  0.5208
10892TIP3    H254092   2.072   5.961   1.146  0.1500  3.1203 -1.8846
10893TIP3   OH254093   5.134   3.312  14.997  0.5581 -0.7497  0.0362
10893TIP3    H154094   5.169   3.401  14.992  1.7637 -1.2983 -2.2353
10893TIP3    H254095   5.039   3.322  15.001  0.6958  0.6202 -0.2114
10894TIP3   OH254096   4.482   4.038   1.490  0.1110 -0.1873  0.3976
10894TIP3    H154097   4.498   4.036   1.584  0.6658 -2.5790  0.2750
10894TIP3    H254098   4.414   3.973   1.476 -1.6079  1.7713 -0.5887
10895TIP3   OH254099   2.203   5.036   4.043  0.2262  0.0833  0.3215
10895TIP3    H154100   2.205   5.130   4.024 -0.3864  0.4067  1.7537
10895TIP3    H254101   2.133   5.002   3.986  0.2946  0.5338 -0.0351
10896TIP3   OH254102   4.232   5.149   3.751 -0.3991  0.3682  0.0736
10896TIP3    H154103   4.261   5.065   3.718 -2.4020  0.1256 -1.1497
10896TIP3    H254104   4.243   5.143   3.846 -1.0613 -1.4956  0.0493
10897TIP3   OH254105   4.861   0.507  14.640 -0.0524  0.5047 -0.2334
10897TIP3    H154106   4.879   0.507  14.546  1.7234 -1.7735  0.0473
10897TIP3    H254107   4.939   0.546  14.680 -0.5787  0.9957  0.3313
10898TIP3   OH254108   4.654   1.707  16.323 -0.1368  0.4144 -0.1704
10898TIP3    H154109   4.560   1.726  16.327 -0.9639 -3.3513 -0.1385
10898TIP3    H254110   4.667   1.668  16.237  1.1499 -0.4012  0.3903
10899TIP3   OH254111   4.410   4.849  12.032  0.2476 -0.0923  0.1161
10899TIP3    H154112   4.464   4.771  12.045  1.3116  0.5370 -0.5413
10899TIP3    H254113   4.444   4.890  11.953 -2.0777 -0.4155 -1.0902
10900TIP3   OH254114   3.420   2.528  15.274  0.3680 -0.4176  0.2133
10900TIP3    H154115   3.327   2.529  15.298  0.1405 -0.3158 -0.6406
10900TIP3    H254116   3.464   2.487  15.348 -0.5094 -1.5432  0.1265
10901TIP3   OH254117   2.208   4.994   1.741 -0.0008 -0.1812 -0.1380
10901TIP3    H154118   2.246   5.055   1.678  2.3127  1.4697  2.7620
10901TIP3    H254119   2.261   4.915   1.733 -0.4749 -0.4204 -1.0599
10902TIP3   OH254120   4.036   4.608   4.707 -0.1542  0.1446 -0.3990
10902TIP3    H154121   4.007   4.670   4.773  1.0513 -2.2403  2.4689
10902TIP3    H254122   3.963   4.546   4.698  0.3682 -0.5245 -0.0406
10903TIP3   OH254123   4.221   3.853   4.693  0.4300  0.1467  0.0848
10903TIP3    H154124   4.221   3.796   4.616  0.7829  2.8512 -1.9779
10903TIP3    H254125   4.262   3.800   4.761 -0.3826 -2.5094 -1.3958
10904TIP3   OH254126   3.411   1.665   0.506 -0.2337 -0.1200  0.0407
10904TIP3    H154127   3.422   1.755   0.537 -0.1854  0.1910 -0.8654
10904TIP3    H254128   3.347   1.672   0.436 -1.8027 -1.0894  1.3329
10905TIP3   OH254129   6.046   1.856  17.139 -0.3622 -0.4231 -0.4091
10905TIP3    H154130   6.015   1.893  17.056 -2.0731 -1.3389 -0.2175
10905TIP3    H254131   6.105   1.785  17.114  0.4070  0.3541 -0.8112
10906TIP3   OH254132   1.293   1.516   3.741 -0.1312 -0.6013 -0.3294
10906TIP3    H154133   1.371   1.494   3.791 -1.1569 -2.0345  0.6957
10906TIP3    H254134   1.284   1.445   3.677 -1.2216 -1.0737  0.3311
10907TIP3   OH254135   0.117   6.493   5.344 -0.4142  0.0734  0.0815
10907TIP3    H154136   0.073   6.455   5.420 -0.0965  1.8235  1.1540
10907TIP3    H254137   0.135   6.418   5.288 -1.7636 -1.0904  1.1496
10908TIP3   OH254138   3.744   3.362  15.219  0.2400 -0.1607  0.8255
10908TIP3    H154139   3.799   3.439  15.231  0.5344 -0.5252  1.8949
10908TIP3    H254140   3.701   3.349  15.304  0.9484 -1.7399  0.9744
10909TIP3   OH254141   1.317   3.226  13.604  0.0504 -0.7080 -0.0596
10909TIP3    H154142   1.370   3.193  13.532  0.2088  0.3442 -0.4309
10909TIP3    H254143   1.357   3.189  13.683 -0.0303 -1.7243 -0.4984
10910TIP3   OH254144   5.964   4.620  12.243 -0.1825  0.1262 -0.4545
10910TIP3    H154145   5.942   4.549  12.183 -0.4214 -0.1947  0.0116
10910TIP3    H254146   6.048   4.653  12.211  0.6482 -1.3180  0.1828
10911TIP3   OH254147   0.943   0.742   6.393  0.7318 -0.1317  0.3716
10911TIP3    H154148   0.978   0.730   6.305 -1.4593 -1.5074 -0.3199
10911TIP3    H254149   0.937   0.837   6.403 -1.3413  0.0225 -1.9269
10912TIP3   OH254150   5.170   4.609   0.991  0.4132  0.0533  0.3380
10912TIP3    H154151   5.166   4.660   1.072  0.3037 -1.0643  1.0431
10912TIP3    H254152   5.258   4.624   0.958  1.1086 -0.9721  1.6623
10913TIP3   OH254153   0.620   5.654  12.244  0.1409 -0.2452 -0.4771
10913TIP3    H154154   0.694   5.613  12.199  0.3182 -2.0133  1.3757
10913TIP3    H254155   0.659   5.693  12.323 -0.7330 -0.2274 -0.0513
10914TIP3   OH254156   3.997   5.525  12.516 -0.1189 -0.3567 -0.6192
10914TIP3    H154157   4.045   5.480  12.446 -1.8646  0.1016 -2.1502
10914TIP3    H254158   3.943   5.456  12.556 -0.4068 -0.2610 -0.8481
10915TIP3   OH254159   1.692   1.481   1.636 -0.1388 -0.3118  0.4981
10915TIP3    H154160   1.708   1.400   1.587  0.0165  0.2221 -0.3505
10915TIP3    H254161   1.778   1.518   1.651 -0.2891  0.4003 -0.3428
10916TIP3   OH254162   5.952   2.369   4.631 -0.3081 -0.4692  0.1553
10916TIP3    H154163   5.914   2.290   4.671  1.8125 -1.7799 -0.3413
10916TIP3    H254164   6.005   2.336   4.559  0.0920  1.4800 -0.4642
10917TIP3   OH254165   1.995   3.948   4.162  0.3273 -0.4087 -0.7540
10917TIP3    H154166   1.991   4.041   4.183  4.0093 -0.0237 -1.4287
10917TIP3    H254167   1.966   3.904   4.242 -0.7799  1.2715 -0.2011
10918TIP3   OH254168   0.054   4.487  12.914  0.6035  0.3153 -0.2987
10918TIP3    H154169  -0.027   4.537  12.909  0.6864  0.4758 -0.0278
10918TIP3    H254170   0.109   4.523  12.844  0.1896 -0.2434 -0.9102
10919TIP3   OH254171   1.230   0.302  12.177 -0.1919  0.4380  0.2046
10919TIP3    H154172   1.273   0.353  12.246 -0.3001 -1.1048  1.4317
10919TIP3    H254173   1.299   0.287  12.112  0.1693  1.0250  0.4456
10920TIP3   OH254174   3.188   6.707  16.212 -0.7730 -0.0909  0.0870
10920TIP3    H154175   3.277   6.674  16.225 -0.9017 -1.1228 -1.5561
10920TIP3    H254176   3.148   6.702  16.299  0.4134 -0.6994  0.6123
10921TIP3   OH254177   5.155   4.055  12.884 -0.0641  0.2437  0.0068
10921TIP3    H154178   5.190   4.142  12.864 -1.7425  0.6111 -1.4413
10921TIP3    H254179   5.231   3.997  12.877  0.5273  1.1962 -1.8647
10922TIP3   OH254180   2.230   0.075   4.246 -0.0636  0.2035  0.2298
10922TIP3    H154181   2.161   0.115   4.195 -1.0395 -0.7795  0.7598
10922TIP3    H254182   2.302   0.063   4.184 -0.3055  1.3667 -0.2818
10923TIP3   OH254183   6.639   0.684  17.032 -0.3101  0.2358 -0.2960
10923TIP3    H154184   6.676   0.743  16.966  2.3948 -2.4273 -1.3031
10923TIP3    H254185   6.568   0.638  16.986  0.2731 -0.1982 -0.7738
10924TIP3   OH254186   1.417   5.886  15.634 -0.1305 -0.2446  0.0556
10924TIP3    H154187   1.384   5.975  15.626 -1.7201 -0.8783 -0.8231
10924TIP3    H254188   1.354   5.843  15.692  0.6944 -0.7623  0.5748
10925TIP3   OH254189   2.314   1.159   5.033 -0.1460  0.0299  0.5253
10925TIP3    H154190   2.328   1.134   5.125 -0.3866 -2.2623 -0.0379
10925TIP3    H254191   2.357   1.245   5.025 -1.9954  1.3166  3.3356
10926TIP3   OH254192   6.244   3.532   4.790 -0.1167  0.3893 -0.0316
10926TIP3    H154193   6.207   3.445   4.775  1.8916 -0.2705 -1.4707
10926TIP3    H254194   6.188   3.591   4.739 -0.4965 -0.2928 -0.4151
10927TIP3   OH254195   1.051   0.593   3.611  0.6071 -0.4474  0.3414
10927TIP3    H154196   1.043   0.573   3.518  1.2357 -0.2698  0.2517
10927TIP3    H254197   0.992   0.667   3.625  0.1737 -0.7616  0.1728
10928TIP3   OH254198   4.762   3.184   2.449 -0.3772  0.0799 -0.0343
10928TIP3    H154199   4.687   3.124   2.449 -0.1542 -0.2064  1.5590
10928TIP3    H254200   4.729   3.264   2.490  0.5114 -0.4687  1.7793
10929TIP3   OH254201   0.751   3.001  13.929  0.2636  0.5590 -0.2431
10929TIP3    H154202   0.693   3.028  14.000 -0.6109  0.9505 -1.1005
10929TIP3    H254203   0.834   3.045  13.949 -0.1503  1.1557  0.2171
10930TIP3   OH254204   1.444   1.510  15.424 -0.6168  0.0843 -0.4971
10930TIP3    H154205   1.371   1.459  15.389  0.5330 -1.0345 -1.3103
10930TIP3    H254206   1.490   1.450  15.483 -0.6888  0.9698  0.4808
10931TIP3   OH254207   2.907   6.327   0.249 -0.4556  0.1099 -0.8418
10931TIP3    H154208   2.917   6.382   0.327  0.6738 -1.3899  0.0903
10931TIP3    H254209   2.817   6.295   0.254 -1.0151  1.5682 -1.2096
10932TIP3   OH254210   0.037   1.641   2.786 -0.2369  0.5560 -0.1433
10932TIP3    H154211  -0.005   1.652   2.871 -1.1998  1.7720 -0.7540
10932TIP3    H254212  -0.000   1.561   2.750 -0.8061  0.7491  0.0172
10933TIP3   OH254213   3.074   6.242   1.835 -0.3793 -0.8931 -0.1446
10933TIP3    H154214   3.025   6.212   1.912  1.4506 -1.3032  0.8697
10933TIP3    H254215   3.018   6.310   1.797 -1.6631 -1.2238  1.0946
10934TIP3   OH254216   6.667   6.599  15.471 -0.1647  0.3881 -0.2252
10934TIP3    H154217   6.611   6.634  15.540 -0.4817  0.3148 -0.4452
10934TIP3    H254218   6.737   6.554  15.518  0.4963  1.6995  0.0645
10935TIP3   OH254219   3.574   2.002  12.363 -0.2739  0.4072  0.0170
10935TIP3    H154220   3.609   2.080  12.405 -0.3426  0.3789  0.1271
10935TIP3    H254221   3.509   2.035  12.301 -0.4542  0.4255  0.2142
10936TIP3   OH254222   6.617   2.935  14.113  0.2261 -0.1061 -0.1270
10936TIP3    H154223   6.543   2.968  14.062 -0.4332 -1.2279  0.0698
10936TIP3    H254224   6.643   2.855  14.066  0.0574 -0.7708  0.9107
10937TIP3   OH254225   3.898   1.933  11.322  0.1629 -0.4141  0.2935
10937TIP3    H154226   3.806   1.915  11.306  0.1111  0.2963 -0.2179
10937TIP3    H254227   3.914   1.901  11.411 -0.5475 -0.6451  0.3362
10938TIP3   OH254228   4.812   2.434  11.737  0.1341  0.5131 -0.0051
10938TIP3    H154229   4.830   2.360  11.795 -0.0082  2.0219  2.0659
10938TIP3    H254230   4.897   2.458  11.701  0.3948  0.2030  0.4035
10939TIP3   OH254231   2.625   2.470   1.604  0.0598 -0.2681 -0.1692
10939TIP3    H154232   2.624   2.564   1.586  0.3034 -0.3008 -0.3613
10939TIP3    H254233   2.567   2.459   1.679 -0.0763  0.0183 -0.2321
10940TIP3   OH254234   2.140   4.193   2.116  0.0541 -0.1699 -0.4528
10940TIP3    H154235   2.108   4.283   2.118 -0.2575 -0.2121 -2.6664
10940TIP3    H254236   2.233   4.201   2.097  0.0055 -0.3209 -0.7533
10941TIP3   OH254237   6.701   2.089  15.667 -0.1791  0.2630 -0.2630
10941TIP3    H154238   6.627   2.043  15.706 -0.9080  0.2445 -1.6685
10941TIP3    H254239   6.702   2.175  15.710 -0.0334 -0.3187  0.9096
10942TIP3   OH254240   0.843   0.740   1.081 -0.0680 -0.4432 -0.2722
10942TIP3    H154241   0.773   0.805   1.078 -0.9362 -1.3698 -0.0818
10942TIP3    H254242   0.819   0.674   1.016 -0.4076 -1.7961  1.1980
10943TIP3   OH254243   2.865   2.154   2.038 -0.6272 -0.0208  0.0205
10943TIP3    H154244   2.911   2.146   1.954  1.3182  2.1219  0.8057
10943TIP3    H254245   2.909   2.092   2.096 -1.8047 -1.3171 -0.4436
10944TIP3   OH254246   0.851   1.358   1.002  0.0951  0.1191 -0.2470
10944TIP3    H154247   0.910   1.433   0.992 -1.8792  1.6427 -0.7469
10944TIP3    H254248   0.805   1.374   1.084  1.0965 -1.6014  0.6812
10945TIP3   OH254249   1.683   1.156   4.865  0.0264  0.0141  0.2485
10945TIP3    H154250   1.650   1.208   4.938 -0.1506 -0.1554  0.2897
10945TIP3    H254251   1.612   1.154   4.802  1.0804  2.3001 -1.0753
10946TIP3   OH254252   1.381   1.923  13.736  0.4558 -0.0180  0.2701
10946TIP3    H154253   1.467   1.943  13.774  0.1977 -1.2634  1.5703
10946TIP3    H254254   1.399   1.907  13.644  1.5781  0.0180  0.4757
10947TIP3   OH254255   3.213   4.096   4.302 -0.3216  0.3165  0.4584
10947TIP3    H154256   3.157   4.019   4.290 -2.5321  1.7024  1.4671
10947TIP3    H254257   3.151   4.168   4.314  1.6833  1.7106  2.8486
10948TIP3   OH254258   4.296   1.780   2.389  0.4276  0.0974  0.0570
10948TIP3    H154259   4.231   1.845   2.416  0.5660  0.5215 -0.6219
10948TIP3    H254260   4.270   1.756   2.300  2.2484  1.6330 -0.9353
10949TIP3   OH254261   2.782   6.434   5.550  0.0029 -0.0846  0.4908
10949TIP3    H154262   2.703   6.408   5.503  1.1015 -3.0521  0.2087
10949TIP3    H254263   2.854   6.405   5.495  1.3206  1.1481  1.5136
10950TIP3   OH254264   5.602   2.949   3.890  0.0315 -0.3119 -0.0812
10950TIP3    H154265   5.693   2.978   3.902 -0.0607  0.2378 -0.7001
10950TIP3    H254266   5.592   2.938   3.795 -0.5534 -0.3541 -0.0177
10951TIP3   OH254267   3.579   5.809   4.199  0.2812 -0.0361 -0.0356
10951TIP3    H154268   3.555   5.892   4.158 -1.3059 -0.7122 -0.4961
10951TIP3    H254269   3.627   5.762   4.130  2.9648  1.2609  0.8467
10952TIP3   OH254270   2.508   5.198  13.836 -0.2643 -0.3269  0.0622
10952TIP3    H154271   2.499   5.236  13.748  0.8239 -1.0104 -0.3658
10952TIP3    H254272   2.492   5.271  13.895  0.8172  0.5968 -0.7374
10953TIP3   OH254273   2.530   1.433   4.075 -0.5422 -0.2059 -1.0579
10953TIP3    H154274   2.459   1.412   4.014 -1.3678 -0.3080 -0.0775
10953TIP3    H254275   2.553   1.523   4.055 -1.6923  0.1821 -0.6719
10954TIP3   OH254276   1.818   2.038   5.815  0.0037 -0.2568 -0.0366
10954TIP3    H154277   1.742   2.062   5.763  1.2156 -0.8086 -2.0811
10954TIP3    H254278   1.848   2.121   5.852 -0.8402  0.1402 -0.2263
10955TIP3   OH254279   3.427   2.134   2.921 -0.2113 -0.3717  0.3091
10955TIP3    H154280   3.423   2.197   2.992  0.1160 -0.8380  0.7411
10955TIP3    H254281   3.364   2.065   2.945  0.3828 -0.8603  0.4684
10956TIP3   OH254282   6.655   4.264  13.599  0.0777 -0.2194  0.1883
10956TIP3    H154283   6.670   4.272  13.504 -0.6290 -0.8810  0.0216
10956TIP3    H254284   6.741   4.239  13.634  0.2236 -0.4598 -0.3331
10957TIP3   OH254285   2.172   3.591   5.554 -0.5830 -0.5254 -0.0363
10957TIP3    H154286   2.241   3.525   5.567 -2.1038 -2.1330  0.0359
10957TIP3    H254287   2.131   3.600   5.640 -1.0602 -0.2525 -0.2899
10958TIP3   OH254288   6.020   0.041  13.613  0.0957 -0.3756  0.5477
10958TIP3    H154289   5.989   0.111  13.670  1.3790  1.1961 -0.6209
10958TIP3    H254290   5.982   0.061  13.527  1.0921 -0.6568  0.0223
10959TIP3   OH254291   4.699   0.398  13.460 -0.8324 -0.1813  0.4675
10959TIP3    H154292   4.741   0.398  13.374 -0.2583 -0.5076  0.7438
10959TIP3    H254293   4.764   0.437  13.519  0.9085 -4.6048  1.7340
10960TIP3   OH254294   1.623   4.746  14.026 -0.3110 -0.6380 -0.1319
10960TIP3    H154295   1.588   4.767  13.939 -1.1937 -1.0645  0.1183
10960TIP3    H254296   1.637   4.651  14.023  0.3192 -0.5520 -0.0400
10961TIP3   OH254297   1.782   6.604   3.326 -0.0321 -0.7518 -0.2830
10961TIP3    H154298   1.753   6.594   3.416 -1.1950  1.1258 -0.4183
10961TIP3    H254299   1.720   6.553   3.275  0.7240 -1.9507 -0.0211
10962TIP3   OH254300   3.619   3.470  17.036  0.4488  0.1689  0.6276
10962TIP3    H154301   3.535   3.504  17.007 -0.4431 -1.0777  1.7082
10962TIP3    H254302   3.683   3.510  16.976 -0.9560  0.6349 -0.5958
10963TIP3   OH254303   5.868   5.154  13.217  0.0509 -0.7543 -0.5794
10963TIP3    H154304   5.918   5.083  13.257  2.9480  1.3715 -0.2796
10963TIP3    H254305   5.843   5.209  13.291  0.2556  0.0216 -1.0864
10964TIP3   OH254306   2.892   4.769   3.424 -0.8460 -0.2264 -0.3717
10964TIP3    H154307   2.921   4.859   3.442 -1.1363 -0.2236  0.1061
10964TIP3    H254308   2.811   4.780   3.374 -2.3561 -0.1656  1.9635
10965TIP3   OH254309   2.804   6.388   3.930 -0.0091 -0.4640 -0.0290
10965TIP3    H154310   2.784   6.467   3.879  0.0855 -1.0223 -0.9318
10965TIP3    H254311   2.899   6.377   3.920  0.3706  0.6225  2.0097
10966TIP3   OH254312   3.899   0.021  16.029  0.0138 -0.5078 -0.0382
10966TIP3    H154313   3.840  -0.051  16.049 -1.2435  0.4234 -0.3787
10966TIP3    H254314   3.979  -0.022  15.997  0.4628 -1.8455  2.7806
10967TIP3   OH254315   0.391   4.154  12.483 -0.7200 -0.0623 -0.0165
10967TIP3    H154316   0.472   4.182  12.525 -0.3696  1.4097 -1.6310
10967TIP3    H254317   0.329   4.146  12.555  0.5024  0.1124  1.0783
10968TIP3   OH254318   2.578   6.075  15.178 -0.0607  0.0273  0.3677
10968TIP3    H154319   2.557   6.165  15.204 -1.5489  0.4375 -2.0749
10968TIP3    H254320   2.657   6.083  15.124 -0.3369 -0.1023 -0.0553
10969TIP3   OH254321   4.656   4.037  12.715 -0.6615 -0.2647 -0.0074
10969TIP3    H154322   4.688   3.955  12.752 -1.1746 -0.4098  0.1259
10969TIP3    H254323   4.566   4.044  12.748 -0.3484  0.7547  0.6355
10970TIP3   OH254324   0.328   3.743   5.762  0.4104 -0.1879 -0.4621
10970TIP3    H154325   0.375   3.708   5.837  0.7889  0.7405 -0.2568
10970TIP3    H254326   0.393   3.750   5.693  0.2805 -0.1389 -0.5803
10971TIP3   OH254327   2.158   6.105  14.710 -0.3358  0.6596 -0.1193
10971TIP3    H154328   2.212   6.026  14.708  0.3534  1.0877  1.1952
10971TIP3    H254329   2.131   6.113  14.801 -1.5377  1.1878 -0.5161
10972TIP3   OH254330   5.023   2.233   3.486 -0.2277 -0.3545  0.2443
10972TIP3    H154331   5.028   2.146   3.526  1.0610 -0.0422  0.7871
10972TIP3    H254332   5.020   2.293   3.561 -0.3020  0.1112 -0.1290
10973TIP3   OH254333   5.991   0.323  16.500 -0.5442  0.4332  0.3025
10973TIP3    H154334   5.981   0.229  16.490 -3.1099  0.9052 -2.1065
10973TIP3    H254335   5.988   0.337  16.595 -2.6467 -1.6699  0.5809
10974TIP3   OH254336   5.518   4.149  16.068 -0.5082 -0.0075  0.2391
10974TIP3    H154337   5.530   4.063  16.108  0.9953 -0.6921 -1.6108
10974TIP3    H254338   5.604   4.191  16.075  0.4272 -0.9993 -4.1496
10975TIP3   OH254339   1.117   5.416  14.033 -0.0026 -0.2684  0.5992
10975TIP3    H154340   1.132   5.380  14.121  0.6529  0.7099  0.8911
10975TIP3    H254341   1.177   5.490  14.027 -1.9517  1.3157  0.3271
10976TIP3   OH254342   1.749   4.781  16.815  0.2908  0.1085  0.0659
10976TIP3    H154343   1.687   4.850  16.791 -0.0998  0.0645  0.9241
10976TIP3    H254344   1.699   4.700  16.805  0.1858  0.0761  0.8257
10977TIP3   OH254345   6.756   5.415  15.725 -0.1001  0.1887 -0.0058
10977TIP3    H154346   6.743   5.429  15.819 -0.4933  0.4938 -0.1058
10977TIP3    H254347   6.675   5.374  15.696 -0.3941  1.0368 -0.4057
10978TIP3   OH254348   5.032   2.078  13.720 -0.5985  0.2073 -0.2408
10978TIP3    H154349   4.952   2.101  13.672 -0.0338 -0.5445 -1.5702
10978TIP3    H254350   5.080   2.021  13.660  0.2017 -0.6282  1.1727
10979TIP3   OH254351   6.405   1.032   6.982  0.2741  0.2156 -0.3632
10979TIP3    H154352   6.495   1.008   7.005 -0.2463 -0.4488  1.0328
10979TIP3    H254353   6.399   1.016   6.888  2.3476  2.5846 -0.9806
10980TIP3   OH254354   0.365   1.573  12.561  0.2469 -0.6617 -0.1610
10980TIP3    H154355   0.322   1.602  12.481  1.2459 -0.1118 -0.5133
10980TIP3    H254356   0.414   1.494  12.535  1.0004 -0.1798 -0.2301
10981TIP3   OH254357   3.514   4.761  17.144 -0.0517 -0.8402 -0.3394
10981TIP3    H154358   3.528   4.844  17.100  0.5322 -1.5774 -1.5812
10981TIP3    H254359   3.474   4.705  17.078 -1.1650 -1.3099  0.7212
10982TIP3   OH254360   2.769   4.192  15.238 -0.0170  0.1938 -0.2211
10982TIP3    H154361   2.796   4.130  15.306  0.5154  0.3911 -0.2466
10982TIP3    H254362   2.796   4.150  15.156  1.3684  0.9581 -0.1727
10983TIP3   OH254363   3.371   4.581  12.735  0.1383 -0.2755 -0.3493
10983TIP3    H154364   3.422   4.503  12.755  4.3550  2.8135  1.7141
10983TIP3    H254365   3.373   4.632  12.816 -0.6698  2.9253 -2.2719
10984TIP3   OH254366   3.370   1.559   4.505 -0.0764 -0.3708  0.2758
10984TIP3    H154367   3.279   1.533   4.518 -0.2904  1.4931  3.0031
10984TIP3    H254368   3.421   1.495   4.555  0.1012 -1.2143 -0.9726
10985TIP3   OH254369   3.114   2.512   0.947  0.2388 -0.2724  0.0063
10985TIP3    H154370   3.127   2.463   0.866  0.6447  2.1931 -1.4679
10985TIP3    H254371   3.183   2.481   1.005  0.5359 -1.3726 -0.9174
10986TIP3   OH254372   0.542   2.740   1.311 -0.9828  0.4642 -0.4955
10986TIP3    H154373   0.523   2.819   1.261  0.4245  0.6376 -0.7687
10986TIP3    H254374   0.487   2.748   1.389  0.1737  2.4187  0.1733
10987TIP3   OH254375   6.220   0.472  14.616  0.0529 -0.5249 -0.1923
10987TIP3    H154376   6.228   0.534  14.689 -0.8473  0.2954 -0.7785
10987TIP3    H254377   6.146   0.416  14.641 -0.8520  0.3341 -0.8691
10988TIP3   OH254378   3.292   2.499   1.176  0.5838 -0.1436 -0.1096
10988TIP3    H154379   3.291   2.554   1.255  2.6656 -0.0552 -0.1240
10988TIP3    H254380   3.308   2.410   1.209 -1.5507 -0.5902 -0.1951
10989TIP3   OH254381   6.191   4.964   4.888 -0.2889 -0.3345 -0.2826
10989TIP3    H154382   6.285   4.966   4.871 -0.3829 -1.5129 -0.9516
10989TIP3    H254383   6.176   4.880   4.931 -1.0448 -0.1723 -0.2228
10990TIP3   OH254384   2.476   1.402   4.961  0.9639 -0.6508 -0.1035
10990TIP3    H154385   2.501   1.399   4.868  1.4652  0.3806  0.0001
10990TIP3    H254386   2.420   1.479   4.969  2.2210  0.1778  0.7761
10991TIP3   OH254387   2.600   6.404   2.723  0.2704 -0.6366  0.4981
10991TIP3    H154388   2.664   6.334   2.727 -1.4281 -2.3974 -2.1172
10991TIP3    H254389   2.572   6.408   2.632  0.4716  3.6321  0.4932
10992TIP3   OH254390   2.139   6.641  13.496  0.4259 -0.0312 -0.0129
10992TIP3    H154391   2.198   6.710  13.525  0.5528  0.5280 -1.5130
10992TIP3    H254392   2.182   6.603  13.420  0.3430 -1.7735  0.7941
10993TIP3   OH254393   1.614   1.424   2.600 -0.1589 -0.1610 -0.2453
10993TIP3    H154394   1.524   1.445   2.574 -0.4428 -1.2493 -0.1529
10993TIP3    H254395   1.630   1.337   2.564  0.7514 -0.1047  0.0097
10994TIP3   OH254396   0.426   6.152  10.547 -0.0353 -0.1930 -0.1024
10994TIP3    H154397   0.345   6.131  10.502 -0.1147 -1.4520  0.6002
10994TIP3    H254398   0.448   6.241  10.518 -1.3923 -0.0397 -0.6705
10995TIP3   OH254399   0.965   5.821   2.573 -0.3445  0.6549  0.1132
10995TIP3    H154400   0.899   5.790   2.511  0.1244  2.1668 -1.2090
10995TIP3    H254401   0.970   5.916   2.556  0.9920  0.8096  1.3074
10996TIP3   OH254402   3.341   3.384   6.202  0.0082 -0.5427 -0.0619
10996TIP3    H154403   3.387   3.350   6.125 -1.9883 -2.0514 -0.6368
10996TIP3    H254404   3.398   3.363   6.275  0.5645 -1.7742 -0.8267
10997TIP3   OH254405   6.083   4.275   1.975 -0.0751 -0.1653  0.0530
10997TIP3    H154406   6.141   4.273   1.899 -0.0752 -1.1292  0.0751
10997TIP3    H254407   6.099   4.192   2.020  0.1544  0.5204  1.2817
10998TIP3   OH254408   5.683   3.944   4.652 -0.2606  0.3255  0.5506
10998TIP3    H154409   5.602   3.963   4.604  0.3073  1.8161  0.1652
10998TIP3    H254410   5.652   3.923   4.741 -1.1189  0.2255  0.2389
10999TIP3   OH254411   4.447   5.960  11.820  0.2327  0.1270  0.2107
10999TIP3    H154412   4.506   5.885  11.826 -0.1705 -0.3059 -0.9932
10999TIP3    H254413   4.360   5.923  11.835 -0.1610  0.0167 -2.0745
11000TIP3   OH254414   0.552   4.330  13.938 -0.6162  0.1104  0.5191
11000TIP3    H154415   0.573   4.401  13.998  1.8309  0.8912 -1.2124
11000TIP3    H254416   0.594   4.253  13.977  1.6822  0.7786 -0.5809
11001TIP3   OH254417   0.156   3.797  15.909  0.0237  0.7394 -0.2478
11001TIP3    H154418   0.156   3.794  15.813 -1.5505 -1.5827 -0.2070
11001TIP3    H254419   0.213   3.724  15.935 -3.3055 -1.6836  0.5650
11002TIP3   OH254420   4.962   1.979   3.047  0.0850  0.4260  1.0168
11002TIP3    H154421   4.963   2.069   3.082  0.5095  0.6645  0.3955
11002TIP3    H254422   5.002   1.927   3.117  0.8069  0.8838  0.9567
11003TIP3   OH254423   1.491   0.896  13.175 -0.3151 -0.0213  0.5106
11003TIP3    H154424   1.464   0.912  13.084 -0.9379  0.7713  0.8252
11003TIP3    H254425   1.428   0.831  13.207 -0.3450  0.0024  0.5008
11004TIP3   OH254426   6.502   2.683   1.260 -0.2140  0.6183  0.7208
11004TIP3    H154427   6.502   2.713   1.169  1.5305 -0.2118  0.4229
11004TIP3    H254428   6.414   2.702   1.292 -0.1715  2.9785 -0.4558
11005TIP3   OH254429   3.979   4.513   1.232  0.1766  0.0541 -0.1453
11005TIP3    H154430   4.061   4.462   1.238 -0.9118 -1.6794  0.5538
11005TIP3    H254431   3.949   4.521   1.323 -1.0483 -0.3904 -0.4968
11006TIP3   OH254432   3.220   4.350   4.880  0.0312 -0.1145  0.3665
11006TIP3    H154433   3.297   4.406   4.889  0.6468 -0.8092 -0.5705
11006TIP3    H254434   3.232   4.304   4.797 -0.6882 -1.3022  0.8963
11007TIP3   OH254435   4.233   0.337   3.637  0.2986  0.2015 -0.0267
11007TIP3    H154436   4.200   0.425   3.619 -0.0966 -0.1117 -0.8994
11007TIP3    H254437   4.278   0.312   3.556  0.3487 -0.4195  0.1933
11008TIP3   OH254438   2.829   3.581   4.834  0.3725 -0.3704 -0.2816
11008TIP3    H154439   2.744   3.614   4.863  1.6026  1.5877  1.1512
11008TIP3    H254440   2.861   3.529   4.908  1.1144  0.1861 -0.2054
11009TIP3   OH254441   0.758   5.113   4.657  0.3075  0.8533 -0.2406
11009TIP3    H154442   0.797   5.026   4.650  0.0648  0.9170 -2.7408
11009TIP3    H254443   0.792   5.147   4.740  0.3759 -1.6047  0.7954
11010TIP3   OH254444   3.457   2.363   3.151 -0.3654  0.8486 -0.3135
11010TIP3    H154445   3.434   2.382   3.242 -0.1459  0.3874 -0.1563
11010TIP3    H254446   3.379   2.387   3.101 -0.9804 -0.1212  0.1502
11011TIP3   OH254447   2.731   6.406  15.205  0.2642  0.5025  0.3573
11011TIP3    H154448   2.646   6.402  15.248 -0.7140 -1.0051 -1.6576
11011TIP3    H254449   2.714   6.450  15.122  1.4395  0.1556 -0.0762
11012TIP3   OH254450   0.649   0.011   0.808  0.3423 -0.4424  0.2669
11012TIP3    H154451   0.703   0.023   0.886 -0.6136  3.1820  0.4472
11012TIP3    H254452   0.711  -0.013   0.740  2.0655  2.2918  0.7871
11013TIP3   OH254453   1.432   2.152  15.968  0.3670  0.4090  0.4932
11013TIP3    H154454   1.498   2.130  15.902 -0.5698 -0.4424 -0.1795
11013TIP3    H254455   1.474   2.133  16.051  0.5633 -1.2368  0.0225
11014TIP3   OH254456   4.001   5.980   3.151 -0.3826 -0.4564 -0.2232
11014TIP3    H154457   4.040   6.017   3.072  1.0470  1.9109  1.5315
11014TIP3    H254458   4.063   6.001   3.221 -3.9835  2.0778  2.3975
11015TIP3   OH254459   5.979   5.502   1.439 -0.4579 -0.0159 -0.1816
11015TIP3    H154460   5.955   5.566   1.371 -2.5709 -0.1311  0.4267
11015TIP3    H254461   5.919   5.430   1.426  2.0533 -2.0436 -0.9799
11016TIP3   OH254462   3.845   1.500   5.079  0.2934 -0.3314  0.3157
11016TIP3    H154463   3.897   1.569   5.120  0.5779  0.1303 -0.7912
11016TIP3    H254464   3.793   1.462   5.150  2.1607 -0.8142  1.4329
11017TIP3   OH254465   0.799   6.756   0.328  0.2143  0.8171  0.4020
11017TIP3    H154466   0.865   6.687   0.323  1.5949  2.0675  0.9412
11017TIP3    H254467   0.791   6.788   0.238  0.1670  0.5117  0.2965
11018TIP3   OH254468   4.277   5.597  12.378 -0.4425 -0.1086  0.0391
11018TIP3    H154469   4.249   5.674  12.427  0.6193 -0.1049  0.6650
11018TIP3    H254470   4.341   5.555  12.435 -0.0087 -0.7009 -0.8803
11019TIP3   OH254471   1.532   0.587  11.834  0.4040  0.2326  0.2055
11019TIP3    H154472   1.440   0.562  11.834  0.1255  1.2045 -0.5808
11019TIP3    H254473   1.533   0.676  11.797  1.6596  0.2086  0.1382
11020TIP3   OH254474   2.301   4.203   4.791 -0.3561 -0.1833 -0.7277
11020TIP3    H154475   2.388   4.221   4.826 -0.2745 -0.6220 -0.7044
11020TIP3    H254476   2.300   4.246   4.705  0.1619 -0.8532 -1.0742
11021TIP3   OH254477   1.260   6.317   5.504  0.7512  0.6415 -0.4076
11021TIP3    H154478   1.307   6.309   5.421  1.4999  2.8921 -0.2340
11021TIP3    H254479   1.213   6.400   5.497 -0.9515 -0.2171  0.5554
11022TIP3   OH254480   2.522   5.004   0.269 -0.4841 -0.1111  0.6705
11022TIP3    H154481   2.605   5.012   0.222 -0.8680 -1.0387 -0.1945
11022TIP3    H254482   2.478   5.088   0.256 -2.4064 -1.6625 -4.2452
11023TIP3   OH254483   5.658   1.479   0.723 -0.0860  0.5365  0.2285
11023TIP3    H154484   5.589   1.438   0.775  1.9047  0.1033  2.5944
11023TIP3    H254485   5.739   1.443   0.758  1.4000  1.7170 -1.9078
11024TIP3   OH254486   2.628   4.717   2.565 -0.2924 -0.3283  0.1632
11024TIP3    H154487   2.669   4.632   2.548  1.8685  0.6677  0.1409
11024TIP3    H254488   2.664   4.744   2.650 -1.3098  0.3453  0.3855
11025TIP3   OH254489   4.262   5.684   4.998  0.2002 -0.3785  0.8366
11025TIP3    H154490   4.268   5.764   4.946 -1.3986 -1.9457 -1.8533
11025TIP3    H254491   4.178   5.693   5.045 -0.1413 -0.6222  0.2750
11026TIP3   OH254492   4.866   1.314  14.207 -0.1399  0.2584 -0.1641
11026TIP3    H154493   4.798   1.372  14.241 -0.5679 -1.3274  1.7754
11026TIP3    H254494   4.931   1.308  14.277  1.3799  0.6950 -1.4818
11027TIP3   OH254495   0.244   1.270  14.724 -0.1755  0.0266  0.4375
11027TIP3    H154496   0.166   1.325  14.727 -1.7040 -2.1176  1.9877
11027TIP3    H254497   0.274   1.266  14.815 -0.2526 -1.8730  0.4047
11028TIP3   OH254498   2.720   0.891   3.124  0.2601  0.3741  0.1061
11028TIP3    H154499   2.793   0.918   3.180 -0.3173 -0.9871  1.5593
11028TIP3    H254500   2.707   0.799   3.144 -2.0759  0.6775  0.1446
11029TIP3   OH254501   5.153   5.549  14.096  0.1523 -0.2457  0.3015
11029TIP3    H154502   5.170   5.522  14.186 -0.1993 -0.3290  0.3418
11029TIP3    H254503   5.058   5.543  14.086  0.4611 -3.6670 -1.1814
11030TIP3   OH254504   3.908   4.520  12.866  0.7026 -0.2536 -0.1673
11030TIP3    H154505   3.970   4.504  12.795 -0.9214 -0.3035 -1.5797
11030TIP3    H254506   3.846   4.583  12.831  1.3258  1.6795  2.0728
11031TIP3   OH254507   3.716   0.263  16.387  0.0317 -0.2638 -0.3482
11031TIP3    H154508   3.664   0.328  16.435  1.1745  0.8085 -0.5209
11031TIP3    H254509   3.674   0.179  16.406 -0.9895  0.4351  0.5379
11032TIP3   OH254510   3.882   2.878  13.939  0.3323 -0.6336 -0.0828
11032TIP3    H154511   3.885   2.831  14.023  0.7101 -2.4257 -1.0717
11032TIP3    H254512   3.966   2.921  13.932  0.0773  0.0006  0.7339
11033TIP3   OH254513   3.825   6.166  16.293  0.9749  0.5932  0.3441
11033TIP3    H154514   3.862   6.084  16.325  1.8837  0.9266  0.1589
11033TIP3    H254515   3.869   6.234  16.345 -1.1028  0.8870  1.7892
11034TIP3   OH254516   1.610   4.715  11.993 -0.4449  0.0770  0.3979
11034TIP3    H154517   1.611   4.779  12.063  1.3159  1.4053 -0.7998
11034TIP3    H254518   1.683   4.656  12.014 -0.4766 -0.0513  0.1516
11035TIP3   OH254519   3.590   1.502  13.525  0.2686 -0.0897 -0.5139
11035TIP3    H154520   3.538   1.572  13.485  3.1768  1.8834 -1.0117
11035TIP3    H254521   3.634   1.545  13.599  0.9274 -1.7955  0.1061
11036TIP3   OH254522   0.479   5.274   0.770 -0.4318  0.4089  0.3077
11036TIP3    H154523   0.454   5.332   0.698  1.6128  1.5304  0.4613
11036TIP3    H254524   0.550   5.221   0.734  0.9950  1.3631  1.6339
11037TIP3   OH254525   2.136   5.304  14.510  0.0313  0.0693 -0.1582
11037TIP3    H154526   2.044   5.297  14.539  0.3528  1.0912  1.1872
11037TIP3    H254527   2.132   5.359  14.432 -0.5751 -0.4188 -0.4739
11038TIP3   OH254528   0.100   4.189   4.083  0.4970  0.3030 -0.5985
11038TIP3    H154529   0.056   4.213   4.164 -0.0748 -3.3799  0.2781
11038TIP3    H254530   0.168   4.127   4.110  1.4539  0.3720 -2.7452
11039TIP3   OH254531   1.428   5.902  16.442 -0.1691 -0.0865  0.3330
11039TIP3    H154532   1.490   5.834  16.468 -1.1077 -1.2272 -0.3702
11039TIP3    H254533   1.482   5.981  16.432  1.2225 -1.1141 -0.5242
11040TIP3   OH254534   1.216   6.163   4.023 -0.5848  0.3895  0.0316
11040TIP3    H154535   1.262   6.213   4.090  0.0551  0.5012 -0.4804
11040TIP3    H254536   1.286   6.117   3.976 -1.2762 -2.3710  1.5982
11041TIP3   OH254537   6.602   0.053   0.646 -0.0635  0.0671 -0.3396
11041TIP3    H154538   6.590  -0.036   0.614  0.5377 -0.2417  0.2851
11041TIP3    H254539   6.582   0.048   0.739  2.6347  0.0127  0.2653
11042TIP3   OH254540   0.873   6.223   2.439  0.0344 -0.2019 -0.8626
11042TIP3    H154541   0.941   6.291   2.443 -0.0567 -0.1139 -0.8137
11042TIP3    H254542   0.804   6.261   2.386 -0.0508 -0.2272 -0.7699
11043TIP3   OH254543   6.397   1.557   3.808 -0.1937  0.1557 -0.1706
11043TIP3    H154544   6.304   1.554   3.786 -0.0917 -1.4521 -0.4914
11043TIP3    H254545   6.412   1.646   3.840 -1.8269  0.4445 -0.1705
11044TIP3   OH254546   6.367   5.291  15.085  0.5776 -0.0520 -0.4425
11044TIP3    H154547   6.416   5.248  15.015  1.3047 -1.1619  0.7239
11044TIP3    H254548   6.421   5.365  15.112  1.3590 -0.9377  0.4521
11045TIP3   OH254549   0.449   1.780   0.422  0.4837  0.3670 -0.3928
11045TIP3    H154550   0.368   1.820   0.454  0.5992  0.6251 -0.4205
11045TIP3    H254551   0.428   1.750   0.334  0.0009 -0.8472  0.1377
11046TIP3   OH254552   0.931   0.625   3.928  0.0239  0.1016  0.1365
11046TIP3    H154553   0.989   0.566   3.880 -1.2071 -0.9305 -0.1182
11046TIP3    H254554   0.880   0.669   3.860 -0.9345 -0.5273  0.4483
11047TIP3   OH254555   1.281   5.856  13.678 -0.0319  0.0221 -0.4783
11047TIP3    H154556   1.207   5.808  13.716 -0.5945  0.5307 -0.9313
11047TIP3    H254557   1.327   5.791  13.625  0.9483 -0.7835  1.3185
11048TIP3   OH254558   5.368   0.065   0.541 -0.1010 -0.5034  0.0343
11048TIP3    H154559   5.404   0.151   0.561  1.7076 -1.1132 -0.5228
11048TIP3    H254560   5.315   0.079   0.462 -0.6733  0.2950  0.5528
11049TIP3   OH254561   4.294   5.533   4.537 -0.4086  0.0851 -0.1589
11049TIP3    H154562   4.373   5.586   4.540 -0.4208  0.0065  2.0128
11049TIP3    H254563   4.323   5.444   4.557 -1.2870  0.3687  2.5198
11050TIP3   OH254564   0.654   2.883  12.275  0.4557  0.1244 -0.4862
11050TIP3    H154565   0.722   2.921  12.220  0.0073 -0.0394 -1.1601
11050TIP3    H254566   0.587   2.853  12.214 -0.6151  1.0464  0.2107
11051TIP3   OH254567   1.977   6.488  14.684  0.2454 -0.3958 -0.0027
11051TIP3    H154568   1.909   6.448  14.737  1.4066 -0.9125  1.1206
11051TIP3    H254569   2.036   6.416  14.663  0.6179  0.1058 -0.7034
11052TIP3   OH254570   1.722   5.572   0.193  0.1402  0.0383 -0.1447
11052TIP3    H154571   1.771   5.573   0.111 -0.3912  0.1037 -0.4698
11052TIP3    H254572   1.785   5.597   0.260 -0.0626  2.8280 -0.9163
11053TIP3   OH254573   3.788   4.576   4.544  0.2475  0.0725  0.5402
11053TIP3    H154574   3.863   4.610   4.495  0.7193 -2.8100 -0.8649
11053TIP3    H254575   3.743   4.519   4.481 -1.8825  0.0605  2.0333
11054TIP3   OH254576   4.008   1.739   2.901 -0.5272  0.3988 -0.0536
11054TIP3    H154577   3.924   1.741   2.856 -1.3368  0.3317  1.4457
11054TIP3    H254578   4.020   1.828   2.934 -1.2416 -0.2537  1.9801
11055TIP3   OH254579   3.639   2.023   4.556 -0.1517 -0.0744 -0.2765
11055TIP3    H154580   3.591   1.945   4.582  0.0204  0.6573  2.3618
11055TIP3    H254581   3.575   2.094   4.565  0.1902  0.3279 -0.9739
11056TIP3   OH254582   2.941   2.540   3.447 -0.1983  0.5116  0.3240
11056TIP3    H154583   2.995   2.472   3.488  0.6159 -0.5921 -2.4677
11056TIP3    H254584   3.002   2.610   3.425 -0.3797  0.5022 -0.2324
11057TIP3   OH254585   3.703   3.241  14.129 -0.0886 -0.2551 -0.2135
11057TIP3    H154586   3.758   3.281  14.197  0.1233  0.5614 -0.8576
11057TIP3    H254587   3.640   3.309  14.105  0.8418  0.0166 -1.9629
11058TIP3   OH254588   1.201   6.615   2.164 -0.1367  0.1602 -0.6059
11058TIP3    H154589   1.247   6.540   2.127 -0.8782 -0.1267 -0.9505
11058TIP3    H254590   1.260   6.689   2.147  0.4648 -0.2925 -0.5154
11059TIP3   OH254591   2.549   2.875  14.644  0.3423 -0.0032 -0.2853
11059TIP3    H154592   2.596   2.793  14.660 -0.3337 -0.0977  1.2910
11059TIP3    H254593   2.533   2.911  14.731 -1.9575  0.3335 -0.8179
11060TIP3   OH254594   6.639   5.457  13.750 -0.0752 -0.3127 -0.2155
11060TIP3    H154595   6.708   5.396  13.725  1.5755  1.2281  0.4722
11060TIP3    H254596   6.640   5.524  13.681 -0.9085 -0.3010 -0.2182
11061TIP3   OH254597   4.949   5.216  16.179 -0.4262 -0.0331  0.1635
11061TIP3    H154598   4.944   5.137  16.125 -1.1390  1.8430 -2.5723
11061TIP3    H254599   4.998   5.279  16.126  0.1331  1.4196  2.3103
11062TIP3   OH254600   3.796   5.656  14.382 -0.1023  0.4914 -0.0601
11062TIP3    H154601   3.838   5.731  14.425 -2.3629  1.5326  0.3684
11062TIP3    H254602   3.747   5.612  14.451  0.4033 -0.8401 -0.5235
11063TIP3   OH254603   0.687   4.272   5.325 -0.4409 -0.4902  0.2120
11063TIP3    H154604   0.750   4.293   5.395  0.5784  0.6557 -1.0267
11063TIP3    H254605   0.602   4.296   5.361  0.2689  1.8270  0.3952
11064TIP3   OH254606   5.849   5.029  16.534 -0.2020 -0.1357 -0.6443
11064TIP3    H154607   5.914   5.098  16.522 -0.1782 -0.5257 -3.0486
11064TIP3    H254608   5.882   4.977  16.607  2.0699 -0.1653 -1.6544
11065TIP3   OH254609   5.118   6.189  12.751 -0.7656  0.0186  0.4569
11065TIP3    H154610   5.134   6.220  12.661  0.2474 -1.2916  0.1841
11065TIP3    H254611   5.042   6.131  12.743 -0.7600  0.0075  0.4846
11066TIP3   OH254612   5.667   5.074   2.884  0.4526  0.0816  0.3727
11066TIP3    H154613   5.586   5.117   2.856  1.3843  0.7936 -1.2843
11066TIP3    H254614   5.736   5.135   2.860  1.4263 -0.0684  2.7185
11067TIP3   OH254615   3.702   2.431   3.033 -0.0526  0.1824 -0.2809
11067TIP3    H154616   3.609   2.426   3.053  0.1343 -0.7454  0.3677
11067TIP3    H254617   3.745   2.387   3.106  0.9033  0.7387 -0.5040
11068TIP3   OH254618   4.285   5.131   5.122  0.0890  0.0283  0.6920
11068TIP3    H154619   4.198   5.091   5.131 -0.6960  1.7737  1.3459
11068TIP3    H254620   4.332   5.104   5.201 -0.1638 -0.2522  0.7461
11069TIP3   OH254621   6.116   1.779   1.330  0.3378  0.5414  0.2019
11069TIP3    H154622   6.042   1.840   1.319 -0.0364  0.2204  0.9273
11069TIP3    H254623   6.076   1.700   1.367  1.2086  0.7338  1.5458
11070TIP3   OH254624   3.434   3.153   4.112  0.3769 -0.5364  0.0713
11070TIP3    H154625   3.398   3.067   4.091  0.0047 -0.7618  1.6210
11070TIP3    H254626   3.490   3.138   4.188  0.1055  0.6481  0.5080
11071TIP3   OH254627   6.380   5.661  16.391 -0.1100  0.3171 -0.1648
11071TIP3    H154628   6.420   5.637  16.308  0.3728  2.1504 -0.4902
11071TIP3    H254629   6.374   5.578  16.440 -0.3457 -0.7592 -1.9733
11072TIP3   OH254630   5.631   3.891  14.596  0.2623 -0.0226  0.1995
11072TIP3    H154631   5.537   3.876  14.601  0.1729  0.6070  0.4851
11072TIP3    H254632   5.652   3.940  14.676  0.7902  0.0547  0.0181
11073TIP3   OH254633   6.391   0.910   2.253  0.2503  0.0741 -0.1419
11073TIP3    H154634   6.364   0.950   2.170 -0.5633  0.3089  0.2292
11073TIP3    H254635   6.476   0.872   2.234  0.0195  0.0186 -1.1233
11074TIP3   OH254636   5.727   6.373   2.864  0.0755  0.7468  0.4856
11074TIP3    H154637   5.743   6.445   2.925  0.6474  0.8869  0.1685
11074TIP3    H254638   5.714   6.415   2.779  0.0340  0.5007  0.3691
11075TIP3   OH254639   3.925   5.237   0.547 -0.2557  0.0689 -0.6636
11075TIP3    H154640   3.866   5.263   0.618  1.5542 -0.1163  0.9273
11075TIP3    H254641   3.996   5.300   0.550  0.8614 -1.1537 -0.9916
11076TIP3   OH254642   0.141   3.490  14.196 -0.2511 -0.0513 -0.1409
11076TIP3    H154643   0.110   3.558  14.137 -0.0376 -0.3408 -0.5898
11076TIP3    H254644   0.148   3.412  14.141  1.6943  0.1133 -0.1630
11077TIP3   OH254645   2.437   1.623  14.932 -0.2908  0.9153  0.5444
11077TIP3    H154646   2.521   1.585  14.907 -1.3479 -0.5042 -0.9703
11077TIP3    H254647   2.429   1.702  14.879 -0.3319  0.5311 -0.0262
11078TIP3   OH254648   2.630   5.964  12.509 -0.0723 -0.2702 -0.1707
11078TIP3    H154649   2.595   6.005  12.588  0.6511  1.3093 -0.6482
11078TIP3    H254650   2.679   5.888  12.541  0.6986  0.6836  0.9655
11079TIP3   OH254651   1.300   5.191  12.808 -0.5832  0.6918 -0.0584
11079TIP3    H154652   1.374   5.156  12.758  0.6769  1.1680  1.4468
11079TIP3    H254653   1.223   5.165  12.757  0.4078 -2.7847  0.0907
11080TIP3   OH254654   2.637   2.782   5.463 -0.1447  0.4630  0.7999
11080TIP3    H154655   2.587   2.703   5.443 -0.3451  0.7829  0.0529
11080TIP3    H254656   2.721   2.749   5.494 -0.4670 -0.0557  1.1495
11081TIP3   OH254657   1.097   2.913   1.799 -0.0755  0.2985  0.3930
11081TIP3    H154658   1.100   2.965   1.718 -0.0313 -0.4330 -0.0807
11081TIP3    H254659   1.170   2.853   1.791 -0.5775 -0.3371  0.5942
11082TIP3   OH254660   3.722   2.683   0.231 -0.6583 -0.0001 -0.0860
11082TIP3    H154661   3.703   2.776   0.239 -0.8246 -0.1934  2.2280
11082TIP3    H254662   3.651   2.640   0.278  1.6901 -1.0526  2.6437
11083TIP3   OH254663   5.418   0.746   3.865  0.2787  0.8019  0.0125
11083TIP3    H154664   5.439   0.692   3.789 -1.1733 -0.3308  0.3778
11083TIP3    H254665   5.412   0.835   3.831  0.4777  0.4175 -1.0289
11084TIP3   OH254666   1.911   2.440  13.428 -0.4335 -0.2210  0.0629
11084TIP3    H154667   1.978   2.505  13.447  0.1266 -1.0623  1.0128
11084TIP3    H254668   1.886   2.405  13.513 -1.4539 -0.5360 -0.3535
11085TIP3   OH254669   6.145   4.291  11.283  0.2669  0.3058  0.9472
11085TIP3    H154670   6.111   4.253  11.202 -1.0256 -0.0209  1.6391
11085TIP3    H254671   6.094   4.371  11.295 -0.1542 -0.0891  1.8888
11086TIP3   OH254672   0.653   4.654   3.752  0.0937 -0.1834 -0.0479
11086TIP3    H154673   0.634   4.565   3.722 -0.9848  0.0255  0.0305
11086TIP3    H254674   0.579   4.706   3.722  0.2438  0.5068  0.7727
11087TIP3   OH254675   5.304   5.956  12.477  0.3662 -0.1895  0.2975
11087TIP3    H154676   5.230   5.992  12.429  0.4137 -0.7974 -0.2342
11087TIP3    H254677   5.337   6.029  12.529  0.1963  0.4200 -0.4496
11088TIP3   OH254678   6.217   6.165  17.053  0.1196  0.2616 -0.1935
11088TIP3    H154679   6.212   6.126  16.966 -0.7236 -1.3059  0.5368
11088TIP3    H254680   6.304   6.205  17.056  0.6538 -0.7952 -1.2966
11089TIP3   OH254681   0.110   5.942   3.589 -0.1271  0.2963  0.0780
11089TIP3    H154682   0.114   6.008   3.519  0.5833  0.4799  0.2839
11089TIP3    H254683   0.069   5.987   3.662 -0.4617  0.2402 -0.0743
11090TIP3   OH254684   6.464   1.495   2.855  0.2892 -0.2054 -0.2845
11090TIP3    H154685   6.410   1.424   2.889 -1.6071  1.3684  0.0745
11090TIP3    H254686   6.542   1.495   2.911  0.2681 -1.9049 -0.2251
11091TIP3   OH254687   4.080   5.755  13.851  0.2918  0.2766  0.1588
11091TIP3    H154688   4.021   5.781  13.780  0.5918  0.5510  0.0108
11091TIP3    H254689   4.160   5.804  13.835  1.2061 -1.4669 -0.6604
11092TIP3   OH254690   4.189   3.413  15.200 -0.9007  0.2712  0.4548
11092TIP3    H154691   4.274   3.371  15.191 -0.5072  1.0442  0.4892
11092TIP3    H254692   4.141   3.390  15.120  0.1662  1.6724 -0.6273
11093TIP3   OH254693   3.505   3.156  16.820  0.3087 -0.3526 -0.6392
11093TIP3    H154694   3.516   3.082  16.881  0.5298  1.1731  1.1959
11093TIP3    H254695   3.548   3.229  16.863 -1.8273  1.4167 -1.4439
11094TIP3   OH254696   2.447   3.193   4.309 -0.4191  0.0936  0.1289
11094TIP3    H154697   2.385   3.169   4.378 -1.1085  0.3518 -0.3863
11094TIP3    H254698   2.520   3.133   4.320 -0.6901 -0.1074  0.8575
11095TIP3   OH254699   3.087   4.491   5.391 -0.8875  0.2550  0.1794
11095TIP3    H154700   3.146   4.462   5.322 -1.6270 -0.8107 -0.0122
11095TIP3    H254701   3.031   4.416   5.409 -0.8996  0.6019  1.7353
11096TIP3   OH254702   5.299   4.338  10.982 -0.0603 -0.0260 -0.3633
11096TIP3    H154703   5.227   4.318  10.921 -0.5375  0.7274 -0.0538
11096TIP3    H254704   5.344   4.413  10.942 -0.7236  0.8389  0.4895
11097TIP3   OH254705   4.741   6.279  11.979  0.6828  0.3109 -0.1210
11097TIP3    H154706   4.686   6.239  11.912 -0.7243 -0.5559  1.5154
11097TIP3    H254707   4.737   6.373  11.960 -0.2144  0.1287 -0.8622
11098TIP3   OH254708   2.378   0.527   5.632 -0.4717  0.4057  0.1035
11098TIP3    H154709   2.366   0.602   5.573  0.7094  0.2109 -0.4028
11098TIP3    H254710   2.292   0.485   5.635 -1.3606  2.2480  1.0513
11099TIP3   OH254711   0.243   1.533   1.810  0.4077  0.8122 -0.4506
11099TIP3    H154712   0.227   1.563   1.899 -0.4385  1.8605 -0.9470
11099TIP3    H254713   0.255   1.438   1.818  0.2492  0.8927  0.7639
11100TIP3   OH254714   5.105   5.413   0.037 -0.1617 -0.8146  0.4531
11100TIP3    H154715   5.151   5.468  -0.027 -0.4378  0.5773  1.4300
11100TIP3    H254716   5.160   5.335   0.045 -0.0938 -0.9849 -1.4344
11101TIP3   OH254717   0.855   2.168  15.989 -0.2466 -0.1010  0.0047
11101TIP3    H154718   0.794   2.199  15.922 -0.7590 -1.0082  0.0475
11101TIP3    H254719   0.844   2.229  16.061 -1.7466 -0.7656  0.3553
11102TIP3   OH254720   2.622   1.203   5.105 -0.0363 -0.1920  0.7797
11102TIP3    H154721   2.633   1.257   5.026 -0.2683 -1.4152 -0.1110
11102TIP3    H254722   2.568   1.257   5.163 -1.1752  0.1140 -0.5256
11103TIP3   OH254723   5.798   3.980   1.438 -0.0495  0.4327 -0.2268
11103TIP3    H154724   5.850   3.915   1.389  1.0696  0.6329  0.6692
11103TIP3    H254725   5.728   4.005   1.377  0.1207 -0.8335 -0.9685
11104TIP3   OH254726   4.824   4.877  11.911 -0.2214  0.1058 -0.2769
11104TIP3    H154727   4.794   4.937  11.979  0.7319  0.3352 -0.0526
11104TIP3    H254728   4.788   4.912  11.830 -1.8278 -0.4733  0.1668
11105TIP3   OH254729   2.248   1.382   2.174 -0.0592  0.1620 -0.0013
11105TIP3    H154730   2.223   1.418   2.259  0.9383 -1.5786  1.0549
11105TIP3    H254731   2.344   1.376   2.179 -0.0877 -1.0625 -0.7744
11106TIP3   OH254732   3.437   0.313   0.883  0.2992 -0.1169 -0.4211
11106TIP3    H154733   3.412   0.289   0.794  0.5785  0.4933 -0.6658
11106TIP3    H254734   3.393   0.249   0.939  1.7015 -1.7426 -1.1198
11107TIP3   OH254735   6.204   2.141   2.442  0.1058  0.2486 -0.3781
11107TIP3    H154736   6.230   2.057   2.479  2.5134  1.0107 -0.2542
11107TIP3    H254737   6.266   2.156   2.370  1.0930  2.8584  0.9266
11108TIP3   OH254738   3.819   2.259  12.398  0.1057 -0.1481 -0.4569
11108TIP3    H154739   3.863   2.175  12.409  1.2979  0.7547  1.9221
11108TIP3    H254740   3.738   2.251  12.449 -0.6777 -0.4687 -1.7239
11109TIP3   OH254741   1.439   2.449   0.241  0.7411 -0.0188 -0.3937
11109TIP3    H154742   1.422   2.429   0.149 -0.9956 -0.9526  0.1003
11109TIP3    H254743   1.451   2.363   0.282 -1.5749  0.1826  0.7911
11110TIP3   OH254744   4.535   4.770  12.928  0.4762 -0.0996 -0.6124
11110TIP3    H154745   4.528   4.763  12.833 -0.5536 -0.7473 -0.4930
11110TIP3    H254746   4.539   4.679  12.958  1.1459  0.1052 -0.0554
11111TIP3   OH254747   2.926   3.503   1.171  0.1610 -0.4360  0.0092
11111TIP3    H154748   2.977   3.438   1.122 -0.1565 -0.2902 -0.5214
11111TIP3    H254749   2.945   3.485   1.263  0.4664 -0.9594 -0.1575
11112TIP3   OH254750   3.532   5.147   3.385  0.5133  0.0422  0.1683
11112TIP3    H154751   3.476   5.076   3.355  3.0585 -1.8720 -0.2482
11112TIP3    H254752   3.507   5.161   3.476  0.4205 -1.8552  0.4479
11113TIP3   OH254753   3.441   2.034  17.196  0.7196 -0.5561 -0.5539
11113TIP3    H154754   3.420   2.093  17.268 -0.7224 -2.2818  0.4730
11113TIP3    H254755   3.526   2.064  17.164  1.7515 -0.2144  2.3482
11114TIP3   OH254756   5.841   3.511   1.883 -0.2158 -0.4807  0.3016
11114TIP3    H154757   5.908   3.575   1.905  3.3931 -4.0028  0.0228
11114TIP3    H254758   5.826   3.522   1.789 -1.3393  1.4151  0.6684
11115TIP3   OH254759   4.059   4.804  14.660  0.1929  0.1365  0.3262
11115TIP3    H154760   4.053   4.764  14.747  1.4442 -0.5137  0.1193
11115TIP3    H254761   3.975   4.784  14.618 -0.5723  0.7881  1.5216
11116TIP3   OH254762   1.815   1.809  14.912 -0.0245  0.2337  0.0276
11116TIP3    H154763   1.812   1.736  14.850 -0.5759 -0.7619  1.1964
11116TIP3    H254764   1.807   1.767  14.998  1.5231  1.5098  0.8169
11117TIP3   OH254765   2.206   6.415   4.069 -0.4094  0.1902  0.5245
11117TIP3    H154766   2.219   6.413   3.974 -1.0321  3.0531  0.3311
11117TIP3    H254767   2.295   6.419   4.104 -0.2019  1.7567 -0.0920
11118TIP3   OH254768   1.852   5.505  11.936 -0.8102  0.0625  0.1900
11118TIP3    H154769   1.919   5.571  11.919 -0.2071 -0.8275 -1.0119
11118TIP3    H254770   1.771   5.543  11.902  0.1013 -1.0512 -3.4266
11119TIP3   OH254771   5.469   1.431   5.431 -0.3002 -0.4879 -0.5421
11119TIP3    H154772   5.505   1.519   5.439 -1.1050 -0.3692  2.2579
11119TIP3    H254773   5.544   1.375   5.414  0.5919  0.3833  0.4638
11120TIP3   OH254774   2.289   2.039   4.268 -0.8843  0.0093  0.1201
11120TIP3    H154775   2.260   2.058   4.179  1.2891 -1.6115 -0.9703
11120TIP3    H254776   2.342   2.115   4.293 -0.9672  0.1772 -0.2152
11121TIP3   OH254777   5.589   3.684  15.995  0.4600 -0.3806  0.3875
11121TIP3    H154778   5.582   3.777  16.015  0.9917 -0.2689  0.0597
11121TIP3    H254779   5.640   3.648  16.067 -0.4369 -0.5688  0.9414
11122TIP3   OH254780   0.862   2.361  12.537  0.3305  0.7209  0.7017
11122TIP3    H154781   0.822   2.447  12.549 -0.7147  0.6641 -2.0513
11122TIP3    H254782   0.862   2.322  12.625 -1.7035  2.4558  1.5071
11123TIP3   OH254783   0.417   4.745  16.537  0.0855 -0.0592 -0.1028
11123TIP3    H154784   0.509   4.765  16.554 -0.3163  3.7126 -1.8981
11123TIP3    H254785   0.402   4.773  16.447 -2.6574 -1.3385 -0.1041
11124TIP3   OH254786   6.334   6.617   6.618 -0.6289 -0.2917  0.0846
11124TIP3    H154787   6.407   6.665   6.581 -0.9537  0.2764  0.1776
11124TIP3    H254788   6.347   6.621   6.712  0.3495 -1.9758  0.0319
11125TIP3   OH254789   5.610   0.309  15.235 -0.3969 -0.0991  0.4243
11125TIP3    H154790   5.608   0.375  15.305 -0.8007 -0.0907  0.4091
11125TIP3    H254791   5.580   0.356  15.157 -1.0921 -0.4035  0.5044
11126TIP3   OH254792   2.338   5.209   3.177  0.4546  0.3069 -0.2597
11126TIP3    H154793   2.308   5.297   3.199 -1.1311 -0.5571  1.2848
11126TIP3    H254794   2.407   5.191   3.241  0.2538  0.1678 -0.0786
11127TIP3   OH254795   6.082   5.006  14.958  0.1818 -0.2111  0.7345
11127TIP3    H154796   6.091   4.916  14.925 -0.7346  0.3500 -1.1254
11127TIP3    H254797   6.005   5.003  15.014 -0.8332 -0.2231 -0.6535
11128TIP3   OH254798   0.058   1.881  14.816  0.2853  0.1289  0.8717
11128TIP3    H154799   0.152   1.887  14.831  0.5275 -0.3954 -0.3552
11128TIP3    H254800   0.050   1.830  14.736 -0.8798  3.3368 -1.1814
11129TIP3   OH254801   6.353   3.547  13.402 -0.1982 -0.3974  0.6989
11129TIP3    H154802   6.281   3.556  13.340  1.1695 -2.9879 -1.3399
11129TIP3    H254803   6.328   3.472  13.457  0.9228 -1.2746  0.0141
11130TIP3   OH254804   6.229   2.889   5.516 -0.1036 -0.1882  0.1855
11130TIP3    H154805   6.304   2.839   5.485  0.1324  0.0209  0.4134
11130TIP3    H254806   6.153   2.846   5.476  0.1688 -0.1271 -0.4052
11131TIP3   OH254807   0.749   3.933   4.622  0.5763 -0.2667  0.5941
11131TIP3    H154808   0.762   3.925   4.717 -1.3747 -1.2843  0.7924
11131TIP3    H254809   0.764   3.844   4.589 -1.1542 -0.4360  0.2560
11132TIP3   OH254810   3.338   6.064  12.902  0.0362  0.3977 -0.1511
11132TIP3    H154811   3.309   6.033  12.988  0.2768 -1.2516 -0.6530
11132TIP3    H254812   3.398   6.136  12.922 -1.6458  1.5056  0.9832
11133TIP3   OH254813   4.505   4.074  15.402 -0.5563 -0.2059 -0.1109
11133TIP3    H154814   4.527   4.167  15.415  0.0248 -0.3770  0.1518
11133TIP3    H254815   4.460   4.049  15.483 -0.4741 -0.2246 -0.0717
11134TIP3   OH254816   5.295   5.376  13.515 -0.6335  0.1652  0.2401
11134TIP3    H154817   5.265   5.292  13.551  1.6374 -1.1175 -0.7483
11134TIP3    H254818   5.357   5.409  13.580 -3.0384  2.1623  1.6369
11135TIP3   OH254819   2.547   6.102  14.213  0.7696  0.6266 -0.5855
11135TIP3    H154820   2.599   6.104  14.133  1.2526 -1.3298 -0.3420
11135TIP3    H254821   2.456   6.097  14.183  1.0098 -1.5977 -1.0693
11136TIP3   OH254822   4.646   0.622   4.222 -0.8616 -0.1019  0.4251
11136TIP3    H154823   4.686   0.613   4.308  1.3349  0.6372 -0.4795
11136TIP3    H254824   4.718   0.646   4.164 -2.1186 -1.5135 -1.8117
11137TIP3   OH254825   4.748   4.239  14.439  0.2792 -0.6004  0.3674
11137TIP3    H154826   4.714   4.182  14.370  2.7610 -1.7217  0.0046
11137TIP3    H254827   4.738   4.188  14.519 -1.3924  0.1768  0.6695
11138TIP3   OH254828   3.785   2.276   3.265  0.0720  0.1382 -0.1469
11138TIP3    H154829   3.693   2.291   3.287 -0.5322  0.0647 -2.4076
11138TIP3    H254830   3.813   2.207   3.325 -1.8199 -0.9611 -0.4541
11139TIP3   OH254831   4.420   6.784   3.228  0.0285  0.3467 -0.3404
11139TIP3    H154832   4.450   6.699   3.260 -0.2581  0.4586  0.2353
11139TIP3    H254833   4.454   6.790   3.139  0.5865 -0.0988 -0.1589
11140TIP3   OH254834   2.798   2.177   2.371  0.2989 -0.3569 -0.4281
11140TIP3    H154835   2.831   2.096   2.411 -1.3701 -2.0415 -2.3072
11140TIP3    H254836   2.865   2.242   2.390  1.9886 -2.3271  0.6267
11141TIP3   OH254837   6.670   4.968  14.281  0.4013  0.3855  0.3264
11141TIP3    H154838   6.732   5.025  14.328  0.2762 -0.2447  1.2685
11141TIP3    H254839   6.606   5.029  14.244  1.2118  0.9947 -0.1054
11142TIP3   OH254840   6.699   3.260  12.620 -0.0781 -0.0509  0.3924
11142TIP3    H154841   6.662   3.344  12.646  1.0964  0.1827  1.3735
11142TIP3    H254842   6.629   3.216  12.572 -0.0697  2.2690 -1.8114
11143TIP3   OH254843   0.038   0.351   3.863  0.3533  0.1267  0.0533
11143TIP3    H154844  -0.015   0.398   3.798 -0.0986 -0.0387  0.2951
11143TIP3    H254845   0.075   0.420   3.918  0.8093  0.2714 -0.4358
11144TIP3   OH254846   4.248   2.300  11.993 -0.3611 -0.2769 -0.2650
11144TIP3    H154847   4.256   2.325  12.085 -0.0929  1.1011 -0.6530
11144TIP3    H254848   4.256   2.205  11.993  2.2470 -0.0943  0.8755
11145TIP3   OH254849   5.068   1.998   5.717 -0.2232 -0.2126  0.4441
11145TIP3    H154850   5.131   1.960   5.777 -0.4870 -0.2621  0.6936
11145TIP3    H254851   5.007   2.046   5.773 -0.8580 -0.8196  0.2743
11146TIP3   OH254852   5.544   3.747   3.928  0.5761  0.0567 -0.3866
11146TIP3    H154853   5.560   3.814   3.995 -0.0158 -1.4847  1.3457
11146TIP3    H254854   5.466   3.777   3.882  0.9739  1.1220 -0.3706
11147TIP3   OH254855   1.580   2.056  15.597 -0.4548  0.2569  0.1582
11147TIP3    H154856   1.609   2.023  15.682 -1.9699 -1.1609  0.1556
11147TIP3    H254857   1.660   2.087  15.555  0.5835 -0.6762  1.3791
11148TIP3   OH254858   5.597   3.198  16.609 -0.3855  0.0636 -0.0441
11148TIP3    H154859   5.682   3.155  16.593 -0.8015 -0.9774  0.5217
11148TIP3    H254860   5.532   3.133  16.584 -1.0463  1.2837 -1.6202
11149TIP3   OH254861   1.415   6.316  11.381  0.6129  0.0739 -0.2931
11149TIP3    H154862   1.449   6.405  11.392  2.5020 -0.5414 -0.9259
11149TIP3    H254863   1.339   6.312  11.439  1.5239  1.5539  1.0455
11150TIP3   OH254864   3.975   6.412  14.873 -0.4822  0.2980  0.5865
11150TIP3    H154865   4.011   6.357  14.804  0.6564 -0.6570  1.9324
11150TIP3    H254866   4.016   6.498  14.859 -1.3081  0.4870 -0.7464
11151TIP3   OH254867   1.166   2.791   4.674  0.2025  0.0544  0.9148
11151TIP3    H154868   1.192   2.883   4.676  0.3386  0.0212  0.6424
11151TIP3    H254869   1.236   2.747   4.626 -0.3467 -0.0355  0.1927
11152TIP3   OH254870   1.903   2.420  14.914  0.2743  0.1455  0.1523
11152TIP3    H154871   1.996   2.441  14.920  0.5367 -0.6168 -0.9701
11152TIP3    H254872   1.870   2.477  14.845 -0.5840  2.0051  2.0854
11153TIP3   OH254873   5.079   4.024   1.022 -0.2127  0.5377 -0.5579
11153TIP3    H154874   5.086   4.067   1.108 -0.8812 -0.9185  0.2280
11153TIP3    H254875   4.987   4.033   0.998 -0.0228  0.9557 -1.1487
11154TIP3   OH254876   1.325   1.250   0.010  0.6808  0.2902 -0.1347
11154TIP3    H154877   1.233   1.225   0.017  1.2945 -2.4707 -1.4934
11154TIP3    H254878   1.330   1.302  -0.070  0.4605 -0.3576 -0.5751
11155TIP3   OH254879   4.878   4.839  16.183  0.5120  0.1367  0.5111
11155TIP3    H154880   4.864   4.746  16.199 -0.0220  0.1091 -0.1006
11155TIP3    H254881   4.969   4.855  16.208  0.6856 -0.6093  0.3418
11156TIP3   OH254882   2.738   4.597   3.883  0.2415 -0.4108 -0.4490
11156TIP3    H154883   2.711   4.510   3.910  1.5373 -0.4924  0.5954
11156TIP3    H254884   2.765   4.587   3.792 -1.0245 -0.7855 -0.7920
11157TIP3   OH254885   6.343   2.303   3.741  0.3318 -0.4183 -0.5434
11157TIP3    H154886   6.276   2.238   3.765 -0.2191  0.5047  0.4314
11157TIP3    H254887   6.305   2.349   3.666 -0.9612  1.3776  1.1841
11158TIP3   OH254888   6.086   3.020   3.387 -0.2675 -0.4962  0.0460
11158TIP3    H154889   6.037   2.948   3.428 -1.9055  0.2353 -0.6113
11158TIP3    H254890   6.171   2.981   3.367 -0.8649 -2.0448  0.3889
11159TIP3   OH254891   1.325   1.112  12.951 -0.3152  0.1396  0.4222
11159TIP3    H154892   1.249   1.055  12.940 -0.3735  0.4866 -1.0880
11159TIP3    H254893   1.298   1.174  13.019 -1.3533  0.2143 -0.0448
11160TIP3   OH254894   2.856   5.723  15.679 -0.0863  0.2986  0.1235
11160TIP3    H154895   2.935   5.758  15.719  0.4020 -0.3297 -0.2901
11160TIP3    H254896   2.816   5.799  15.635  1.9446  0.0055 -2.3408
11161TIP3   OH254897   6.757   6.397  12.169  0.2995  0.2090 -0.5607
11161TIP3    H154898   6.786   6.404  12.260  0.4814 -0.8912 -0.5246
11161TIP3    H254899   6.743   6.487  12.141 -0.7974  0.5017  0.8913
11162TIP3   OH254900   4.274   0.507   2.056  0.5783 -0.0621 -0.5346
11162TIP3    H154901   4.364   0.525   2.031  1.1245 -1.1991  0.5974
11162TIP3    H254902   4.266   0.540   2.145  0.7518 -2.6109  0.4781
11163TIP3   OH254903   4.195   1.441   5.176  0.3088 -0.6001  0.3449
11163TIP3    H154904   4.121   1.497   5.201  1.0050 -0.4618  2.1171
11163TIP3    H254905   4.159   1.384   5.108 -0.9166  0.7392 -0.1588
11164TIP3   OH254906   5.005   2.960   2.766 -0.1440 -0.6260 -0.5867
11164TIP3    H154907   4.991   3.001   2.681  0.1044 -0.1655 -0.4084
11164TIP3    H254908   4.957   2.877   2.761 -0.6932 -0.2892 -0.9313
11165TIP3   OH254909   4.564   6.582  17.239 -0.5438  0.0232  0.0234
11165TIP3    H154910   4.539   6.514  17.176  0.2764  1.0538 -1.4395
11165TIP3    H254911   4.559   6.664  17.190  1.2552  0.7196  0.9393
11166TIP3   OH254912   2.528   1.444  16.151  0.0026  0.4070 -0.5829
11166TIP3    H154913   2.507   1.399  16.069 -0.0887 -0.1777 -0.2409
11166TIP3    H254914   2.588   1.515  16.126  0.6477 -0.2987 -1.0333
11167TIP3   OH254915   6.332   1.865   0.110 -0.2376  0.1876  0.0634
11167TIP3    H154916   6.309   1.871   0.017 -0.2671  1.0380  0.1274
11167TIP3    H254917   6.375   1.948   0.130 -0.5123  0.1332  0.8909
11168TIP3   OH254918   2.322   4.522  11.856 -0.1445  0.7815  0.3820
11168TIP3    H154919   2.323   4.567  11.771  1.4464  1.4357  0.7304
11168TIP3    H254920   2.284   4.586  11.916 -1.0561  0.4013  0.2242
11169TIP3   OH254921   3.974   3.090   3.688  0.2064 -0.1538  0.3115
11169TIP3    H154922   3.911   3.134   3.630  1.2955  0.9684 -0.0180
11169TIP3    H254923   3.957   2.997   3.673 -0.4176  0.1270 -0.8356
11170TIP3   OH254924   3.502   0.113  15.824 -0.3404 -0.0087 -0.6413
11170TIP3    H154925   3.502   0.050  15.897  3.3228  1.7747  1.0456
11170TIP3    H254926   3.454   0.188  15.858  1.7870  1.0148  0.1750
11171TIP3   OH254927   4.953   5.896   6.044  0.0377  0.2194 -0.1996
11171TIP3    H154928   4.863   5.926   6.050 -0.0376  0.5157 -2.3953
11171TIP3    H254929   5.005   5.976   6.035  0.3754 -0.0342 -0.5248
11172TIP3   OH254930   5.317   5.638  11.050  0.1026 -0.6916  0.0009
11172TIP3    H154931   5.358   5.671  10.970 -1.8501 -1.1779 -1.2367
11172TIP3    H254932   5.271   5.559  11.022  0.6196 -1.6960  1.9307
11173TIP3   OH254933   0.357   5.529   3.624 -0.5374 -0.0048 -0.3042
11173TIP3    H154934   0.324   5.496   3.707  0.5006  0.6758  0.3871
11173TIP3    H254935   0.351   5.624   3.631 -0.6645  0.0501 -1.1033
11174TIP3   OH254936   1.580   5.636  10.803 -0.3129  0.0343  0.1709
11174TIP3    H154937   1.518   5.570  10.770 -0.1638  0.2689 -0.5852
11174TIP3    H254938   1.540   5.720  10.782 -0.7067  0.1943  1.5257
11175TIP3   OH254939   1.630   6.142  11.643 -0.0759  0.5664  0.2443
11175TIP3    H154940   1.680   6.172  11.718 -1.7457  1.6162  0.9762
11175TIP3    H254941   1.685   6.162  11.567  0.3248  2.3357  0.9793
11176TIP3   OH254942   2.443   6.419   2.492  0.2602 -1.1887  0.1241
11176TIP3    H154943   2.347   6.412   2.496  0.0697  0.4283 -1.3596
11176TIP3    H254944   2.460   6.474   2.416  2.3790 -1.3565  0.4585
11177TIP3   OH254945   5.459   4.426   1.103  0.6419  0.0837 -0.8672
11177TIP3    H154946   5.395   4.364   1.137 -0.7558  1.2741 -1.3161
11177TIP3    H254947   5.479   4.394   1.014  0.0238  0.1949 -1.0477
11178TIP3   OH254948   2.387   5.277   3.903  0.4226 -0.1152 -0.1209
11178TIP3    H154949   2.405   5.366   3.872  0.4340 -0.4434 -1.0510
11178TIP3    H254950   2.471   5.233   3.901  0.7383  0.3435  1.9727
11179TIP3   OH254951   3.978   0.910   3.094  0.4922 -0.2655 -0.0050
11179TIP3    H154952   4.021   0.944   3.173  0.7006  0.0209 -0.2412
11179TIP3    H254953   4.008   0.820   3.087 -0.2307 -0.5781  0.7496
11180TIP3   OH254954   4.032   5.108   5.491  0.7667 -0.1074  0.0062
11180TIP3    H154955   4.110   5.061   5.519  0.6030 -0.1026  0.4756
11180TIP3    H254956   4.052   5.201   5.504 -0.1016 -0.1973  2.2088
11181TIP3   OH254957   6.746   2.721  15.558  0.1597  0.3249  0.3252
11181TIP3    H154958   6.756   2.690  15.648  1.8932  1.3127  0.5107
11181TIP3    H254959   6.658   2.759  15.556  0.2052  0.5453  1.6868
11182TIP3   OH254960   0.713   3.797   3.818 -0.4719  0.1227 -0.0321
11182TIP3    H154961   0.792   3.849   3.800 -2.1239  3.1331  1.1484
11182TIP3    H254962   0.693   3.755   3.735  0.4596  2.0381 -1.2614
11183TIP3   OH254963   5.811   1.208   4.196 -0.0194 -0.1481 -0.1278
11183TIP3    H154964   5.730   1.251   4.225 -1.0306 -1.7061 -0.5561
11183TIP3    H254965   5.855   1.274   4.142 -1.1663  0.6304 -0.1386
11184TIP3   OH254966   2.902   5.317   2.593 -0.4300  0.1107 -0.1870
11184TIP3    H154967   2.870   5.405   2.575  0.9446  0.7878  0.5740
11184TIP3    H254968   2.823   5.264   2.605 -1.2775  1.7324  1.6827
11185TIP3   OH254969   2.200   0.468   0.628 -0.2536 -0.4817  1.1153
11185TIP3    H154970   2.222   0.515   0.708 -0.6143 -0.5134  1.2345
11185TIP3    H254971   2.172   0.536   0.567  0.6126 -0.3938  0.8129
11186TIP3   OH254972   0.076   4.852  16.583 -0.3196  0.4756  0.2936
11186TIP3    H154973   0.151   4.894  16.542 -0.0782 -1.8933 -1.8656
11186TIP3    H254974   0.112   4.808  16.660  0.4388 -0.2064 -0.4347
11187TIP3   OH254975   5.154   1.664  13.342  0.3273 -0.0531  0.0513
11187TIP3    H154976   5.168   1.604  13.269  0.3512  1.1843 -0.9759
11187TIP3    H254977   5.239   1.671  13.385  0.2045 -1.1455  0.4872
11188TIP3   OH254978   4.726   3.565   5.093  0.4343  0.5544 -0.3419
11188TIP3    H154979   4.660   3.627   5.124 -0.4918 -1.0479  0.9958
11188TIP3    H254980   4.809   3.601   5.121 -0.1196  1.0514  0.7021
11189TIP3   OH254981   4.995   5.516  10.852 -0.0698  0.3045  0.8001
11189TIP3    H154982   5.024   5.591  10.905 -2.0089 -0.2565  2.7401
11189TIP3    H254983   4.900   5.525  10.848 -0.0544 -0.3186 -1.6835
11190TIP3   OH254984   0.896   5.377   5.074  0.0602  0.1918 -0.1720
11190TIP3    H154985   0.932   5.381   5.163  1.4293 -0.1151 -0.7036
11190TIP3    H254986   0.968   5.405   5.018 -0.5551 -0.3621 -1.2509
11191TIP3   OH254987   2.699   2.370  10.252  0.3846  0.1765  0.2252
11191TIP3    H154988   2.628   2.316  10.216 -0.0734  0.4823  0.6636
11191TIP3    H254989   2.656   2.450  10.280  1.2342  1.2559 -1.4405
11192TIP3   OH254990   3.494   0.851  17.046 -0.7585  0.3182 -0.1620
11192TIP3    H154991   3.536   0.830  16.963 -1.1675  0.0047 -0.2888
11192TIP3    H254992   3.413   0.799  17.046 -0.2249 -0.5398  0.9228
11193TIP3   OH254993   4.759   3.812  13.949 -0.1848 -0.3021  0.1221
11193TIP3    H154994   4.685   3.822  13.890 -1.4883  0.5217  1.8602
11193TIP3    H254995   4.765   3.718  13.967 -1.8328 -0.1980  1.2612
11194TIP3   OH254996   1.287   1.829   4.941  0.7370  0.3885  0.2737
11194TIP3    H154997   1.346   1.815   5.015  0.3948  0.7808  0.6179
11194TIP3    H254998   1.201   1.840   4.980  0.8199  2.3750 -0.0471
11195TIP3   OH254999   4.081   3.391   1.060 -0.3592 -0.0582  0.4326
11195TIP3    H155000   4.059   3.466   1.115 -0.5663  0.2951 -0.1248
11195TIP3    H255001   4.079   3.425   0.971 -0.2490 -0.6785  0.1882
11196TIP3   OH255002   0.940   1.853  13.387 -0.2357  0.0435  0.4415
11196TIP3    H155003   0.957   1.791  13.315  0.5008  0.4828  0.2400
11196TIP3    H255004   1.011   1.838  13.449 -1.7583 -1.4760  1.8665
11197TIP3   OH255005   2.719   0.758  13.619  0.5712 -0.3941 -0.6878
11197TIP3    H155006   2.799   0.736  13.570 -1.2549 -1.6945 -3.1705
11197TIP3    H255007   2.651   0.765  13.552 -1.3337  1.2396  1.3288
11198TIP3   OH255008   1.645   4.041   5.043  0.3159 -0.0820 -0.7771
11198TIP3    H155009   1.723   4.042   4.989  0.2279 -1.3930 -0.9419
11198TIP3    H255010   1.582   4.095   4.996  0.5855 -0.3718 -1.4657
11199TIP3   OH255011   5.169   5.277  13.091 -0.4802 -0.2136 -0.5153
11199TIP3    H155012   5.243   5.327  13.058 -0.1590 -2.0120 -2.6567
11199TIP3    H255013   5.099   5.292  13.028 -1.4360  0.1889  0.6288
11200TIP3   OH255014   3.825   2.902  17.149 -0.0980  0.3348  0.7185
11200TIP3    H155015   3.883   2.957  17.098 -1.3524  1.6414  0.6549
11200TIP3    H255016   3.787   2.841  17.086 -2.8501  2.9638 -0.2828
11201TIP3   OH255017   2.606   1.861   3.218  0.1673 -0.5379 -0.2924
11201TIP3    H155018   2.531   1.804   3.231  0.3803 -0.8593 -0.4456
11201TIP3    H255019   2.627   1.851   3.125  1.3806 -1.6809  0.0912
11202TIP3   OH255020   1.913   1.110  14.676  0.0246  0.5973  0.6331
11202TIP3    H155021   1.824   1.135  14.651 -1.1679  0.0300  4.0745
11202TIP3    H255022   1.906   1.081  14.767  3.6647  0.1230  0.8634
11203TIP3   OH255023   0.642   4.396  10.770 -0.1755 -0.1904 -0.3298
11203TIP3    H155024   0.605   4.338  10.703 -2.0949  1.4212 -0.7110
11203TIP3    H255025   0.574   4.404  10.836  1.4341 -1.1694  1.5000
11204TIP3   OH255026   5.321   4.214   1.212 -0.6638 -0.0572 -0.2696
11204TIP3    H155027   5.247   4.255   1.256  0.7931 -0.3365  2.5458
11204TIP3    H255028   5.371   4.172   1.282  1.4882 -0.9569 -2.2579
11205TIP3   OH255029   2.462   5.783  16.965 -0.3267  0.0842 -0.8608
11205TIP3    H155030   2.477   5.877  16.976 -0.2505 -0.1339  0.9269
11205TIP3    H255031   2.445   5.773  16.871 -1.3584  2.0244 -0.9005
11206TIP3   OH255032   5.716   4.697  15.515 -0.3363 -0.3779 -0.3038
11206TIP3    H155033   5.675   4.768  15.564 -1.3269 -1.1891  0.0737
11206TIP3    H255034   5.699   4.719  15.423  0.5543  0.5665 -0.2540
11207TIP3   OH255035   3.146   6.667  12.593 -0.1434 -0.6491 -0.2406
11207TIP3    H155036   3.100   6.746  12.622  1.2609  0.0444  0.1511
11207TIP3    H255037   3.147   6.610  12.669  1.0583  0.0079  0.2489
11208TIP3   OH255038   6.050   5.144   0.441  0.1158  0.0659 -0.8723
11208TIP3    H155039   6.127   5.129   0.385  0.2157 -1.0085 -0.4601
11208TIP3    H255040   6.087   5.174   0.524 -0.0218  1.4719 -1.3062
11209TIP3   OH255041   0.023   1.283   0.870 -0.4173  0.0572  0.1165
11209TIP3    H155042   0.067   1.342   0.808 -0.2476 -2.5843 -2.3533
11209TIP3    H255043   0.092   1.259   0.932  0.5801 -0.7606 -1.2774
11210TIP3   OH255044   3.588   0.677  16.159 -0.3655  0.6832  0.5645
11210TIP3    H155045   3.642   0.753  16.175 -0.1543  0.3783  1.3105
11210TIP3    H255046   3.570   0.641  16.246 -0.0659 -0.3894  0.1905
11211TIP3   OH255047   0.435   0.077   5.737 -0.2683  0.3680  0.2868
11211TIP3    H155048   0.482  -0.006   5.747 -0.3214  0.4603  1.3789
11211TIP3    H255049   0.497   0.144   5.765 -0.2237  0.6972 -0.6005
11212TIP3   OH255050   2.682   1.221  11.572 -0.4053  0.1826 -0.1545
11212TIP3    H155051   2.731   1.193  11.650 -0.2747  1.9363  0.4069
11212TIP3    H255052   2.749   1.236  11.506 -0.5875 -2.2495 -0.9300
11213TIP3   OH255053   2.596   3.114   4.900 -0.3050  0.3310  0.2575
11213TIP3    H155054   2.559   3.084   4.818  0.6138  0.7495 -0.3198
11213TIP3    H255055   2.554   3.198   4.917 -1.5376 -0.4246  0.9402
11214TIP3   OH255056   3.590   4.908  15.011  0.8286 -0.0430  0.7305
11214TIP3    H155057   3.514   4.916  14.954 -0.0874  0.6331  2.0329
11214TIP3    H255058   3.661   4.881  14.952  0.3715  2.5206 -1.1011
11215TIP3   OH255059   5.562   4.552   0.123  0.2822  0.3671 -0.6823
11215TIP3    H155060   5.600   4.607   0.191  1.0800  0.6324 -1.3376
11215TIP3    H255061   5.605   4.467   0.133 -0.9495 -0.1547  0.3305
11216TIP3   OH255062   5.026   0.153  16.077 -0.1646 -0.2677 -0.1461
11216TIP3    H155063   4.979   0.111  16.149 -2.6941  1.7743 -0.5439
11216TIP3    H255064   4.990   0.114  15.998  0.3716 -0.2480 -0.4039
11217TIP3   OH255065   3.841   2.790  10.595 -0.2116 -0.3273 -0.0665
11217TIP3    H155066   3.830   2.882  10.572 -1.2598 -0.3320  0.3784
11217TIP3    H255067   3.788   2.743  10.530  0.4142 -0.6272 -0.3635
11218TIP3   OH255068   4.840   0.865   6.197 -0.4434  0.5661 -0.8635
11218TIP3    H155069   4.915   0.808   6.177 -2.0948 -1.4471 -1.5269
11218TIP3    H255070   4.793   0.871   6.114 -0.2599  2.9785 -0.8028
11219TIP3   OH255071   0.009   1.576  16.434 -0.9094 -0.7045 -0.1126
11219TIP3    H155072  -0.050   1.641  16.471  0.3615 -0.1284  0.9537
11219TIP3    H255073   0.070   1.626  16.380 -1.5158 -1.3126 -1.3688
11220TIP3   OH255074   1.407   4.681  12.751 -0.3205  0.3641 -0.1993
11220TIP3    H155075   1.321   4.650  12.721 -0.6384  1.8508 -0.9083
11220TIP3    H255076   1.385   4.749  12.815  0.3212  1.0267 -0.6791
11221TIP3   OH255077   5.517   2.240  13.489  1.2871  0.1623 -0.1189
11221TIP3    H155078   5.561   2.279  13.414  1.0346  0.6865  0.0067
11221TIP3    H255079   5.431   2.214  13.455  1.1746  0.3947 -0.0157
11222TIP3   OH255080   2.512   5.797  11.677  0.9245  0.2345 -0.0795
11222TIP3    H155081   2.557   5.714  11.663  1.4320 -0.0008  2.6360
11222TIP3    H255082   2.577   5.853  11.720  0.2233  1.6538 -0.8234
11223TIP3   OH255083   6.305   1.661   5.111  0.3473  0.7329  0.2440
11223TIP3    H155084   6.286   1.577   5.069 -1.5750  0.6333  1.2147
11223TIP3    H255085   6.294   1.726   5.042 -2.3214  0.5291  0.4011
11224TIP3   OH255086   3.212   6.656  11.547  0.4606  0.0424  0.4140
11224TIP3    H155087   3.292   6.702  11.569 -0.6917  0.8719  3.0609
11224TIP3    H255088   3.231   6.564  11.565  1.0077  0.1463  0.3726
11225TIP3   OH255089   3.393   5.528   1.438  0.2005  0.8626 -0.1835
11225TIP3    H155090   3.380   5.473   1.515 -0.6053  0.9963 -0.2210
11225TIP3    H255091   3.321   5.505   1.380  1.6340 -0.3376 -1.5474
11226TIP3   OH255092   2.899   2.931  11.293  0.0025  0.5821 -0.1025
11226TIP3    H155093   2.903   2.836  11.292  1.1049  0.6246 -0.7055
11226TIP3    H255094   2.990   2.959  11.304 -0.3992  1.5526  0.9155
11227TIP3   OH255095   0.939   5.853  16.986  0.2466  0.4129 -0.0814
11227TIP3    H155096   0.893   5.935  16.968  0.8263  1.0000  1.0562
11227TIP3    H255097   0.964   5.860  17.078  1.7194 -0.3483 -0.4182
11228TIP3   OH255098   3.834   3.636  13.383 -0.6276 -0.1847  0.3564
11228TIP3    H155099   3.753   3.656  13.336 -0.8028 -2.6488 -0.5009
11228TIP3    H255100   3.818   3.665  13.472 -1.4836  1.6966 -0.3938
11229TIP3   OH255101   0.473   0.868  15.177 -0.6740  0.6423  0.4943
11229TIP3    H155102   0.466   0.945  15.119 -2.2718  0.3270  0.2474
11229TIP3    H255103   0.455   0.794  15.119  0.1233  0.1236  0.9024
11230TIP3   OH255104   0.269   2.273  14.337 -0.2904  0.1742 -0.1290
11230TIP3    H155105   0.313   2.340  14.389 -1.1318 -0.3984  1.3701
11230TIP3    H255106   0.186   2.258  14.384 -1.7448  0.7170 -2.4745
11231TIP3   OH255107   4.741   1.147   1.695 -0.6411  0.6412  0.1076
11231TIP3    H155108   4.692   1.064   1.705  0.7512 -0.2585 -0.4787
11231TIP3    H255109   4.674   1.215   1.706 -2.0613 -0.5727 -0.7712
11232TIP3   OH255110   5.111   3.030   3.921 -0.2936 -0.2280 -0.0535
11232TIP3    H155111   5.132   3.071   4.005  2.1959 -2.3390  0.4320
11232TIP3    H255112   5.023   2.995   3.932  0.4758 -1.5916  2.1774
11233TIP3   OH255113   2.230   2.554  11.376 -0.3382 -0.2695  0.2462
11233TIP3    H155114   2.140   2.586  11.363 -0.4817 -0.5051  0.6395
11233TIP3    H255115   2.220   2.475  11.428  0.1934  0.5495  1.6344
11234TIP3   OH255116   0.196   3.714   6.314 -0.2763 -0.0876 -0.2481
11234TIP3    H155117   0.201   3.787   6.252  0.6497  0.0567 -0.0080
11234TIP3    H255118   0.217   3.752   6.399 -0.7312 -0.4475  0.0294
11235TIP3   OH255119   0.833   4.520   3.361  0.3847  0.0741 -0.3174
11235TIP3    H155120   0.927   4.531   3.346  0.7400  0.9350  2.4445
11235TIP3    H255121   0.826   4.445   3.420 -0.7933 -1.0215 -1.7949
11236TIP3   OH255122   5.715   4.276   4.332 -0.1345 -0.3936 -0.7076
11236TIP3    H155123   5.661   4.219   4.388 -1.2975  1.0780 -0.2822
11236TIP3    H255124   5.751   4.217   4.266  0.2468 -1.9529  0.8417
11237TIP3   OH255125   4.143   4.225  12.436  0.7234 -0.7191 -0.0942
11237TIP3    H155126   4.170   4.144  12.393  1.5229 -0.7501  0.4606
11237TIP3    H255127   4.129   4.200  12.527  1.5214 -0.1214  0.1986
11238TIP3   OH255128   2.613   1.532   1.865 -0.3270  0.5914 -0.0853
11238TIP3    H155129   2.529   1.502   1.898 -0.6977 -1.7888 -2.9676
11238TIP3    H255130   2.592   1.602   1.804 -0.4317 -1.0061 -1.9587
11239TIP3   OH255131   3.202   5.289   4.824  0.5465  0.2576 -0.1870
11239TIP3    H155132   3.282   5.305   4.773  1.5589 -0.0951  1.2637
11239TIP3    H255133   3.163   5.376   4.834  0.8265  0.4582 -0.7587
11240TIP3   OH255134   6.018   0.601   0.320 -0.2076  0.3903 -0.3441
11240TIP3    H155135   5.971   0.547   0.256 -0.0372 -0.6312  0.3739
11240TIP3    H255136   6.087   0.544   0.354  0.0021  1.0764  0.4022
11241TIP3   OH255137   5.280   4.601  12.665  0.4454  0.4407 -0.0248
11241TIP3    H155138   5.334   4.567  12.736  1.3707 -0.9270 -1.3394
11241TIP3    H255139   5.297   4.695  12.665 -0.2265  0.5781  2.0855
11242TIP3   OH255140   0.059   6.417   1.316  0.2596 -0.2941  0.0621
11242TIP3    H155141   0.076   6.462   1.399  1.0144 -1.2547  0.4279
11242TIP3    H255142  -0.035   6.431   1.301 -0.1575 -1.1837  1.7105
11243TIP3   OH255143   2.037   2.817   3.704  0.2710 -0.2743  0.7028
11243TIP3    H155144   2.033   2.907   3.672 -1.5240 -0.1560  1.1708
11243TIP3    H255145   2.118   2.812   3.755  0.5012  1.0040  0.4602
11244TIP3   OH255146   4.927   0.264  14.086  0.7553 -0.6273  0.0220
11244TIP3    H155147   4.832   0.272  14.077  0.9138 -1.2472 -2.4629
11244TIP3    H255148   4.962   0.319  14.017  2.2133 -0.6947  0.6965
11245TIP3   OH255149   0.549   3.870   2.087 -0.3629 -0.7865  0.1155
11245TIP3    H155150   0.602   3.877   2.008 -0.4939 -0.7783  0.0283
11245TIP3    H255151   0.557   3.957   2.128 -0.3961 -0.7510  0.0473
11246TIP3   OH255152   4.851   2.012  13.910 -0.3465  0.1939  0.2769
11246TIP3    H155153   4.942   2.022  13.884 -0.5178  0.2140 -0.3260
11246TIP3    H255154   4.832   1.919  13.895 -0.5108  0.2526  0.1272
11247TIP3   OH255155   4.685   0.713   1.177 -0.4017  0.1232 -0.4369
11247TIP3    H155156   4.711   0.804   1.190 -0.0581  0.0148 -0.3553
11247TIP3    H255157   4.713   0.692   1.088  1.8633 -0.6817  0.4210
11248TIP3   OH255158   0.866   3.050  12.479 -0.1649  0.4344 -0.0583
11248TIP3    H155159   0.889   2.977  12.421  0.1068 -0.8781  1.6664
11248TIP3    H255160   0.848   3.123  12.419 -1.1312 -1.2216 -1.8459
11249TIP3   OH255161   5.381   1.159  13.837 -0.0681 -0.2044 -0.7968
11249TIP3    H155162   5.465   1.206  13.836  0.7247 -1.6107 -0.5725
11249TIP3    H255163   5.379   1.114  13.753  0.0922 -1.4036 -0.1557
11250TIP3   OH255164   1.697   2.892   0.774 -0.1792 -0.2792  0.2653
11250TIP3    H155165   1.687   2.819   0.712  0.8535 -1.8863  1.9547
11250TIP3    H255166   1.630   2.876   0.840  0.4234  0.0036  0.9410
11251TIP3   OH255167   1.024   4.767  14.654 -0.5271 -0.0599 -0.3155
11251TIP3    H155168   1.010   4.675  14.678 -0.1815  0.1461  0.6601
11251TIP3    H255169   0.956   4.815  14.701 -0.4395  0.2410 -0.4936
11252TIP3   OH255170   3.294   1.383   0.272  0.3921  0.2265  0.2771
11252TIP3    H155171   3.328   1.430   0.196  1.2479 -0.6460  0.1195
11252TIP3    H255172   3.369   1.373   0.330 -0.3882  1.4376  1.5334
11253TIP3   OH255173   3.564   1.767   5.195  0.4916  0.1892  0.2620
11253TIP3    H155174   3.537   1.845   5.146  0.8358  0.8862  1.1510
11253TIP3    H255175   3.655   1.786   5.221  1.2120 -1.3197 -1.1129
11254TIP3   OH255176   0.768   4.150   2.446  0.7646 -0.5280  0.1757
11254TIP3    H155177   0.760   4.226   2.389  2.5471 -1.1438 -0.9221
11254TIP3    H255178   0.703   4.088   2.413  2.3797 -1.2222 -1.7592
11255TIP3   OH255179   5.358   4.141  11.485  0.3151  0.0600 -0.5667
11255TIP3    H155180   5.386   4.051  11.501  2.3537  1.3642  4.0978
11255TIP3    H255181   5.414   4.172  11.414  1.5642 -1.4768 -0.2758
11256TIP3   OH255182   1.226   6.143   4.723 -0.3864  0.1801 -0.5136
11256TIP3    H155183   1.211   6.065   4.777  0.7279 -0.4690 -1.1031
11256TIP3    H255184   1.314   6.129   4.687 -0.5461  1.2977 -1.3325
11257TIP3   OH255185   4.885   1.801  14.656 -0.6494  0.1245 -0.5125
11257TIP3    H155186   4.874   1.773  14.747 -0.4623  0.7865 -0.2776
11257TIP3    H255187   4.979   1.816  14.647 -0.6220 -0.2975 -0.9260
11258TIP3   OH255188   3.286   4.918   5.251 -0.2751 -0.0028 -0.5438
11258TIP3    H155189   3.279   5.013   5.253  1.3975  0.1370 -0.4705
11258TIP3    H255190   3.280   4.896   5.158  1.3036  0.3691 -0.7569
11259TIP3   OH255191   0.054   1.237   0.302 -0.4191  0.3175 -0.0332
11259TIP3    H155192  -0.035   1.244   0.266 -0.2790 -1.7615 -0.8096
11259TIP3    H255193   0.064   1.145   0.324  1.7972  0.4169 -0.5410
11260TIP3   OH255194   3.022   1.060  14.963 -0.4556  0.2785 -0.7403
11260TIP3    H155195   3.108   1.031  14.933  0.3935  1.8930  0.1003
11260TIP3    H255196   2.970   0.980  14.965  1.3961 -0.9523 -0.0119
11261TIP3   OH255197   1.716   4.079   3.561 -0.0699  0.0619  0.0971
11261TIP3    H155198   1.776   4.038   3.623  1.4593  2.0716 -0.0189
11261TIP3    H255199   1.644   4.111   3.615  0.5313  0.4866  0.6545
11262TIP3   OH255200   3.893   5.558  13.386  0.7819 -0.1599 -0.1252
11262TIP3    H155201   3.864   5.618  13.317  3.4248  1.7332  0.3519
11262TIP3    H255202   3.931   5.484  13.338  0.3473 -0.0097 -0.7113
11263TIP3   OH255203   6.232   4.622  12.149 -0.6526 -0.1666  0.1552
11263TIP3    H155204   6.262   4.532  12.167  1.3476  0.1895 -1.1850
11263TIP3    H255205   6.277   4.675  12.215 -1.2656 -0.0563  0.4862
11264TIP3   OH255206   1.991   2.005  16.418  0.0201  0.4794  0.5006
11264TIP3    H155207   1.908   1.977  16.458 -0.5266  0.6070 -0.5053
11264TIP3    H255208   1.980   1.984  16.325  1.0610  0.6464  0.3427
11265TIP3   OH255209   4.357   0.076  15.360 -0.0437  0.0699  0.4099
11265TIP3    H155210   4.400   0.013  15.302  0.2181  0.3556  0.2959
11265TIP3    H255211   4.428   0.128  15.397 -0.1713 -0.3825  1.3187
11266TIP3   OH255212   3.954   0.687   0.670 -0.3981 -0.0379 -0.1629
11266TIP3    H155213   3.865   0.717   0.690 -1.1720 -2.0664 -0.5093
11266TIP3    H255214   3.993   0.667   0.755 -0.2476  0.8749 -0.0103
11267TIP3   OH255215   3.021   5.869   6.016 -0.5935 -0.2185  0.2804
11267TIP3    H155216   3.048   5.943   6.071 -0.2585 -0.4203  0.3904
11267TIP3    H255217   2.958   5.821   6.070 -2.9653  1.5359 -0.8525
11268TIP3   OH255218   2.510   1.683  14.120 -0.2536  0.1549 -0.1276
11268TIP3    H155219   2.564   1.691  14.199 -1.7814  0.2573  0.9287
11268TIP3    H255220   2.559   1.730  14.053  1.6329 -0.9191  0.4504
11269TIP3   OH255221   4.352   6.326   5.754 -0.0994  0.0690  0.2715
11269TIP3    H155222   4.360   6.233   5.771 -0.1168  0.1210  0.5629
11269TIP3    H255223   4.443   6.356   5.744 -0.0033  0.3135  1.7503
11270TIP3   OH255224   4.010   3.182  16.516  0.4730  0.0897  0.2237
11270TIP3    H155225   3.934   3.150  16.565  1.1300  0.3231  1.4190
11270TIP3    H255226   4.081   3.122  16.539  0.8110  0.2523 -0.3829
11271TIP3   OH255227   0.527   2.183  16.081  0.4805  0.2219 -0.2832
11271TIP3    H155228   0.472   2.131  16.139  0.7727  1.9290  1.5388
11271TIP3    H255229   0.475   2.193  16.001 -0.4310 -1.0425  0.1328
11272TIP3   OH255230   4.613   6.000   1.520 -0.1409 -0.2127  0.3597
11272TIP3    H155231   4.670   5.937   1.475  0.3525  0.4182  0.0848
11272TIP3    H255232   4.674   6.064   1.558 -0.6199 -0.0903  0.9228
11273TIP3   OH255233   4.540   1.665   2.675 -0.1943 -0.2318 -0.6836
11273TIP3    H155234   4.494   1.711   2.745  0.9452 -0.1174 -0.0012
11273TIP3    H255235   4.564   1.580   2.714  1.7453  0.4166 -0.4413
11274TIP3   OH255236   5.472   0.059  11.619 -0.0145 -0.4411  0.6714
11274TIP3    H155237   5.516   0.071  11.534 -1.5599 -1.4122 -0.2964
11274TIP3    H255238   5.405  -0.007  11.602 -1.3729  0.4824  2.2817
11275TIP3   OH255239   6.364   0.233  17.127  0.5204  0.0446  0.0402
11275TIP3    H155240   6.328   0.175  17.060 -0.1460  0.5441 -0.0433
11275TIP3    H255241   6.358   0.182  17.208 -1.3674  0.4808  0.2111
11276TIP3   OH255242   0.500   2.076  13.909  0.6792 -0.2328  0.1977
11276TIP3    H155243   0.546   2.014  13.966  0.6816  0.5493  1.0609
11276TIP3    H255244   0.419   2.096  13.955  0.6154  0.2877 -0.1330
11277TIP3   OH255245   0.953   0.192   5.155 -0.8770  0.1982 -0.5312
11277TIP3    H155246   0.894   0.245   5.209 -0.5253  1.3699 -1.2684
11277TIP3    H255247   0.916   0.104   5.157 -1.5522  0.4965  0.6005
11278TIP3   OH255248   4.664   0.515   4.467 -0.1965 -0.6155  0.0896
11278TIP3    H155249   4.741   0.459   4.453 -0.7593 -1.4672  0.3737
11278TIP3    H255250   4.695   0.584   4.526  0.3335 -0.9836  0.2450
11279TIP3   OH255251   4.700   6.239   1.220 -0.0130  0.1659  0.5303
11279TIP3    H155252   4.668   6.270   1.136  0.6586 -0.1004  0.1710
11279TIP3    H255253   4.730   6.150   1.203 -4.0977 -1.6320  2.0472
11280TIP3   OH255254   1.249   5.773   2.850  0.1624  0.9543  0.1450
11280TIP3    H155255   1.271   5.855   2.806  1.5785  0.6185  0.1756
11280TIP3    H255256   1.248   5.794   2.943  2.3964  0.5749  0.2953
11281TIP3   OH255257   3.331   4.120  13.119 -0.1078  0.0840  0.3377
11281TIP3    H155258   3.394   4.161  13.061 -1.0812  0.3116 -0.5789
11281TIP3    H255259   3.379   4.103  13.200  0.9486  0.8104 -0.1387
11282TIP3   OH255260   1.143   0.604   6.668 -0.1860 -0.1716  0.1164
11282TIP3    H155261   1.073   0.540   6.683 -1.4379  0.7659 -1.5588
11282TIP3    H255262   1.119   0.678   6.724 -1.4593  0.8122 -1.6912
11283TIP3   OH255263   4.717   3.485   3.149  0.3423  0.0671 -0.0473
11283TIP3    H155264   4.686   3.395   3.135 -2.6236  0.8356  1.1895
11283TIP3    H255265   4.699   3.529   3.066 -2.1978  0.5601  0.7290
11284TIP3   OH255266   2.586   6.264   3.620 -0.1031 -0.2268  0.3517
11284TIP3    H155267   2.634   6.184   3.599 -1.1391 -0.7102 -0.1949
11284TIP3    H255268   2.507   6.259   3.566 -0.3313  0.9996  0.5714
11285TIP3   OH255269   6.235   1.577   3.092  0.0404 -0.1731  0.5776
11285TIP3    H155270   6.265   1.651   3.040 -2.1511  0.8650  0.7292
11285TIP3    H255271   6.271   1.500   3.048  0.9247  0.8803 -0.5710
11286TIP3   OH255272   4.004   0.131   1.937  0.2135 -0.8770  0.6071
11286TIP3    H155273   4.037   0.138   1.847  0.0496  0.3456  0.6351
11286TIP3    H255274   3.949   0.053   1.937  0.3119 -0.9470 -0.3229
11287TIP3   OH255275   3.349   6.229   3.038 -0.0532  0.2484  0.0656
11287TIP3    H155276   3.335   6.283   2.960 -0.1732  0.5254  0.2798
11287TIP3    H255277   3.435   6.255   3.071  1.2493 -1.8226 -1.5502
11288TIP3   OH255278   4.816   1.239   6.196  0.0779  0.1683  0.2255
11288TIP3    H155279   4.867   1.269   6.121 -1.5430  2.0917 -0.1461
11288TIP3    H255280   4.773   1.318   6.229 -1.0512 -1.0611  1.7617
11289TIP3   OH255281   3.305   6.595   4.245  0.1902  0.1747  0.3642
11289TIP3    H155282   3.223   6.634   4.275  0.2133  0.3663  0.1800
11289TIP3    H255283   3.371   6.629   4.305  0.0544 -0.4164  0.8557
11290TIP3   OH255284   3.868   4.939   5.310  0.1445  0.0340  0.3348
11290TIP3    H155285   3.799   5.000   5.284  1.1710  0.4627 -1.4531
11290TIP3    H255286   3.943   4.995   5.330  1.7767 -0.6636 -3.4196
11291TIP3   OH255287   2.697   0.883  13.049  0.5195  0.5335 -0.1338
11291TIP3    H155288   2.747   0.830  12.986  0.0372 -0.7529  0.5359
11291TIP3    H255289   2.749   0.878  13.130 -0.2715 -0.1368  0.3381
11292TIP3   OH255290   6.157   6.353  13.656  0.3853  0.2964  0.4693
11292TIP3    H155291   6.156   6.413  13.582 -1.1347 -1.0665 -0.6538
11292TIP3    H255292   6.164   6.410  13.733  0.5897  1.8075 -0.6411
11293TIP3   OH255293   2.008   5.222   4.938  0.6530  0.2700 -0.3997
11293TIP3    H155294   2.091   5.175   4.938  0.5243  0.0323 -1.5310
11293TIP3    H255295   1.971   5.206   4.851 -0.5768  0.3706  0.0886
11294TIP3   OH255296   3.381   2.829   4.953  0.2916 -0.4569 -0.5202
11294TIP3    H155297   3.389   2.735   4.969 -0.8758 -0.6569 -1.0540
11294TIP3    H255298   3.287   2.843   4.938  0.6714  0.4949 -2.2076
11295TIP3   OH255299   3.312   3.134  14.820  0.3099 -0.9358  0.5409
11295TIP3    H155300   3.376   3.066  14.801  0.9906 -0.9506  2.7794
11295TIP3    H255301   3.228   3.088  14.823  0.6006 -1.4497  0.7443
11296TIP3   OH255302   3.460   4.327   1.956 -0.2971 -0.2559 -0.7358
11296TIP3    H155303   3.510   4.284   2.025 -1.4521 -1.7103 -0.7946
11296TIP3    H255304   3.400   4.260   1.924 -0.3581  0.6470 -2.5781
11297TIP3   OH255305   3.084   2.086   0.987 -0.4801 -0.4420 -0.3044
11297TIP3    H155306   3.007   2.105   1.040 -1.1507  0.2550 -1.5092
11297TIP3    H255307   3.057   2.107   0.897  0.8503 -0.9593 -0.8329
11298TIP3   OH255308   1.462   0.849  15.806  0.5050 -0.0209 -0.4744
11298TIP3    H155309   1.544   0.800  15.796  1.0940  1.4176 -3.2948
11298TIP3    H255310   1.409   0.821  15.731 -0.6403  0.8353  0.0158
11299TIP3   OH255311   3.898   0.079  12.736 -0.1541 -0.4450 -0.2465
11299TIP3    H155312   3.923   0.027  12.813 -0.8697 -1.0368 -0.4070
11299TIP3    H255313   3.859   0.015  12.676  0.4067  0.0169 -1.1054
11300TIP3   OH255314   2.761   3.780  16.824 -0.1714 -0.1706  0.0818
11300TIP3    H155315   2.743   3.874  16.815 -0.4280 -0.1765  0.5362
11300TIP3    H255316   2.701   3.739  16.762  0.3331 -0.0011 -0.5287
11301TIP3   OH255317   4.865   4.176   2.924  0.5246 -0.2183  0.0857
11301TIP3    H155318   4.775   4.149   2.903  0.6459 -0.4411 -0.1408
11301TIP3    H255319   4.855   4.266   2.954  0.1615 -0.4140  0.5576
11302TIP3   OH255320   3.888   5.567   3.681 -0.0947 -0.0627 -0.2582
11302TIP3    H155321   3.900   5.475   3.702 -4.2270 -0.3662  1.1634
11302TIP3    H255322   3.818   5.568   3.615  0.5813  2.0245 -0.9956
11303TIP3   OH255323   1.535   6.073  13.475 -0.3960 -0.1757 -0.2059
11303TIP3    H155324   1.598   6.143  13.454  0.3860 -0.8058  0.0248
11303TIP3    H255325   1.579   6.022  13.543 -1.5212 -0.1095  0.5688
11304TIP3   OH255326   6.281   6.704  13.246 -0.2105  0.3747 -0.0990
11304TIP3    H155327   6.267   6.777  13.306 -0.0212  0.9783 -0.7831
11304TIP3    H255328   6.218   6.719  13.175 -0.2336 -0.1739 -0.1959
11305TIP3   OH255329   6.155   2.933   2.792  0.0702 -0.3442 -0.1306
11305TIP3    H155330   6.154   2.998   2.721  0.2834 -1.5685 -1.2847
11305TIP3    H255331   6.246   2.928   2.819  0.1688 -0.6456 -0.5089
11306TIP3   OH255332   2.827   1.533   5.311 -0.1663 -0.4537 -0.3650
11306TIP3    H155333   2.897   1.550   5.374 -0.3191 -0.0609 -0.2981
11306TIP3    H255334   2.824   1.611   5.257  0.5569 -1.1593 -1.4311
11307TIP3   OH255335   4.392   6.470  13.486 -0.3292 -0.6149 -0.0595
11307TIP3    H155336   4.448   6.517  13.425 -2.2374  2.0016  0.1046
11307TIP3    H255337   4.370   6.388  13.441  0.9198 -0.1735 -1.4876
11308TIP3   OH255338   5.717   1.246   0.991 -0.3292  0.0107 -1.1147
11308TIP3    H155339   5.789   1.190   0.964  0.6624  0.6926  0.0967
11308TIP3    H255340   5.689   1.210   1.076  0.3447  1.3679 -0.3064
11309TIP3   OH255341   2.623   2.168  13.036  0.0353  0.3758  0.2550
11309TIP3    H155342   2.611   2.076  13.016  0.0255  0.1771  1.1505
11309TIP3    H255343   2.644   2.170  13.130  2.4762  1.0866 -0.2576
11310TIP3   OH255344   2.212   5.816  13.664  0.0571  0.1895 -0.3815
11310TIP3    H155345   2.127   5.844  13.698 -0.0394  0.6909 -1.0191
11310TIP3    H255346   2.258   5.780  13.739 -0.9145 -0.5266 -0.1304
11311TIP3   OH255347   6.620   3.783  11.808 -0.2636 -0.4384 -0.3096
11311TIP3    H155348   6.705   3.779  11.851 -0.7668  1.5646  0.8894
11311TIP3    H255349   6.635   3.834  11.728 -0.5105  0.5742  0.2948
11312TIP3   OH255350   5.154   0.343  13.237 -0.0915  0.3764  0.0018
11312TIP3    H155351   5.081   0.290  13.203  1.3971 -1.4078 -0.4751
11312TIP3    H255352   5.181   0.396  13.162  0.0373 -0.0176 -0.2336
11313TIP3   OH255353   6.187   4.891   0.813 -0.1647 -0.0534  0.5188
11313TIP3    H155354   6.180   4.801   0.847 -0.3550  0.1598  1.0563
11313TIP3    H255355   6.281   4.909   0.813 -0.1586 -0.0789  0.8765
11314TIP3   OH255356   6.293   3.933  14.885  0.1389 -0.0560 -0.2284
11314TIP3    H155357   6.327   3.952  14.973 -2.4189  1.0304  0.6053
11314TIP3    H255358   6.283   4.019  14.844 -1.1712 -0.3526 -0.5651
11315TIP3   OH255359   3.537   5.472  13.383 -0.4143 -0.2119 -0.3246
11315TIP3    H155360   3.546   5.386  13.423 -0.1477 -0.1012 -0.1461
11315TIP3    H255361   3.562   5.459  13.291 -0.7340 -0.3990 -0.3888
11316TIP3   OH255362   1.250   4.070  16.082  0.3122  0.0321  0.5404
11316TIP3    H155363   1.188   3.997  16.079  0.6175 -0.2082 -0.1013
11316TIP3    H255364   1.291   4.064  16.169  0.0507 -0.3267  0.6394
11317TIP3   OH255365   3.113   3.773  12.116  0.9981  0.5861  0.9607
11317TIP3    H155366   3.134   3.688  12.078 -1.1417  0.2915  0.4140
11317TIP3    H255367   3.147   3.836  12.052 -0.6488  0.1009 -0.4384
11318TIP3   OH255368   6.145   1.648  12.699  0.6699 -0.0801 -0.3814
11318TIP3    H155369   6.150   1.555  12.722  2.3738 -0.2867 -1.5172
11318TIP3    H255370   6.236   1.676  12.689  0.2435  2.0474  1.1527
11319TIP3   OH255371   1.243   1.620   0.378 -0.0187  0.3550 -0.1193
11319TIP3    H155372   1.153   1.644   0.358 -0.4349 -0.8820  0.2765
11319TIP3    H255373   1.254   1.533   0.341  0.6804  0.0485  0.8067
11320TIP3   OH255374   4.970   0.403  11.283  0.4307  0.0098 -0.2868
11320TIP3    H155375   4.915   0.476  11.312  2.3921  0.7445  1.7442
11320TIP3    H255376   4.948   0.391  11.191 -3.2872  0.1141  0.5177
11321TIP3   OH255377   4.500   0.402  16.655 -0.1127 -0.2498 -0.0977
11321TIP3    H155378   4.417   0.443  16.631  0.5277  0.8879 -0.4278
11321TIP3    H255379   4.541   0.466  16.714 -0.7307 -2.0580  2.3701
11322TIP3   OH255380   2.125   1.391  15.699  0.0392  0.0947 -0.4037
11322TIP3    H155381   2.194   1.371  15.762  1.0041  0.6272 -1.2753
11322TIP3    H255382   2.128   1.319  15.637 -0.2739  0.0545 -0.3711
11323TIP3   OH255383   4.834   6.534  12.888  0.5323 -0.8634 -0.2126
11323TIP3    H155384   4.877   6.465  12.939 -1.0638 -2.2173 -0.6405
11323TIP3    H255385   4.859   6.516  12.797 -1.6995 -2.2631 -0.5761
11324TIP3   OH255386   0.670   4.441   6.472 -0.1878 -0.7653 -0.3610
11324TIP3    H155387   0.709   4.463   6.557 -1.2468 -0.3509  0.0262
11324TIP3    H255388   0.739   4.396   6.425 -0.1275 -2.5236  1.3591
11325TIP3   OH255389   1.935   0.561  12.105  0.6010  0.3036  0.6823
11325TIP3    H155390   2.003   0.573  12.039  0.5338  2.2807  0.9589
11325TIP3    H255391   1.880   0.491  12.070  0.0520  1.9066 -1.7652
11326TIP3   OH255392   5.636   2.242   0.343  0.1179  0.9493 -0.1764
11326TIP3    H155393   5.687   2.186   0.284 -0.9124 -0.0596 -0.1489
11326TIP3    H255394   5.685   2.324   0.348  1.3437  0.2634 -0.7142
11327TIP3   OH255395   2.624   2.892   3.531  0.1136 -0.5062  0.4395
11327TIP3    H155396   2.631   2.968   3.588 -1.2489 -0.4923  0.5966
11327TIP3    H255397   2.619   2.928   3.443 -0.5989 -0.4112  0.5189
11328TIP3   OH255398   3.957   1.459  14.428  0.2565  0.0054  0.1570
11328TIP3    H155399   3.951   1.414  14.344  2.7613  1.1333 -0.6731
11328TIP3    H255400   3.937   1.550  14.408 -0.1073  0.1010  0.9557
11329TIP3   OH255401   4.904   1.389  13.936  0.9587 -0.1597 -0.3692
11329TIP3    H155402   4.893   1.360  14.027  1.5861 -0.1430 -0.2856
11329TIP3    H255403   4.987   1.352  13.909  0.2073 -1.1709 -1.3440
11330TIP3   OH255404   5.358   2.249   2.582  0.0421  0.4346 -0.6592
11330TIP3    H155405   5.427   2.316   2.577 -0.5813  1.1579  0.3669
11330TIP3    H255406   5.320   2.260   2.669 -1.0086 -0.3365 -1.0130
11331TIP3   OH255407   1.034   2.074   4.634 -0.1636  0.6986 -0.0687
11331TIP3    H155408   1.107   2.025   4.672 -0.8340  1.5176  2.3759
11331TIP3    H255409   1.076   2.144   4.583  0.7732  0.8702  0.9219
11332TIP3   OH255410   0.541   1.201   2.854 -0.1322  0.3009  0.6094
11332TIP3    H155411   0.616   1.160   2.810 -1.6830  0.3994 -2.2428
11332TIP3    H255412   0.499   1.130   2.902  0.3253 -0.3200  0.0967
11333TIP3   OH255413   3.246   3.577   0.240  0.1099 -0.3187  0.0754
11333TIP3    H155414   3.239   3.623   0.324  1.7672 -0.1653  0.1543
11333TIP3    H255415   3.261   3.485   0.264  1.0759 -0.1983 -0.0306
11334TIP3   OH255416   2.885   0.336  16.633 -0.5391 -0.3696  0.1361
11334TIP3    H155417   2.910   0.244  16.627  0.6031 -0.1801  1.5774
11334TIP3    H255418   2.827   0.340  16.709 -1.5547 -0.0891 -0.6480
11335TIP3   OH255419   1.906   4.880   0.019 -0.2253 -0.0889  0.8910
11335TIP3    H155420   1.965   4.807   0.000 -0.5565  0.7613 -4.1004
11335TIP3    H255421   1.959   4.942   0.068  2.0839 -0.8115 -0.6225
11336TIP3   OH255422   1.221   0.180  15.823  0.1298  0.4143 -0.0933
11336TIP3    H155423   1.159   0.198  15.894  0.0508  1.7524 -0.4927
11336TIP3    H255424   1.169   0.188  15.743  1.0010  2.4501 -0.4821
11337TIP3   OH255425   3.757   5.775  11.547  0.1556 -0.6764  0.3240
11337TIP3    H155426   3.739   5.866  11.572 -0.2683 -1.0302  1.3300
11337TIP3    H255427   3.793   5.782  11.459 -0.8894  0.3914 -0.0365
11338TIP3   OH255428   6.270   5.202  14.279 -0.6222  0.2232  0.0131
11338TIP3    H155429   6.221   5.232  14.356  0.2619  0.7223  0.3907
11338TIP3    H255430   6.268   5.106  14.285  0.2686  0.2679  1.2021
11339TIP3   OH255431   4.580   4.682   3.253  0.0321  0.7470  0.0752
11339TIP3    H155432   4.645   4.664   3.320 -0.0178  0.3987  0.0324
11339TIP3    H255433   4.630   4.689   3.172 -0.0793 -0.3768 -0.0904
11340TIP3   OH255434   3.434   6.517  11.925  0.2240  0.1706  0.0676
11340TIP3    H155435   3.373   6.483  11.859  0.3073  1.1460 -0.5047
11340TIP3    H255436   3.516   6.528  11.879 -0.5269  3.8813 -0.4791
11341TIP3   OH255437   0.715   1.451  11.898 -0.5361 -0.2965 -0.2265
11341TIP3    H155438   0.697   1.368  11.942  1.2596  1.2909  3.8342
11341TIP3    H255439   0.646   1.510  11.930  1.7735  1.3353  2.0244
11342TIP3   OH255440   2.302   3.761  14.574  0.5253 -0.8458  0.2468
11342TIP3    H155441   2.345   3.841  14.546  1.3054 -0.5042  2.2908
11342TIP3    H255442   2.209   3.779  14.566  0.7120 -0.1299 -0.3426
11343TIP3   OH255443   4.207   1.767   3.914 -0.6824 -0.4859 -0.1082
11343TIP3    H155444   4.299   1.760   3.937 -0.7765 -0.8470  0.1496
11343TIP3    H255445   4.199   1.719   3.831 -0.9656 -1.8852  0.7212
11344TIP3   OH255446   6.073   3.338   1.766 -0.2626  0.5081 -0.2779
11344TIP3    H155447   6.089   3.336   1.672 -2.3900 -0.2874 -0.6460
11344TIP3    H255448   5.997   3.282   1.779  1.1425 -0.9606  2.1663
11345TIP3   OH255449   0.595   2.788  14.813  0.8485 -0.1203 -0.0837
11345TIP3    H155450   0.544   2.845  14.870  0.0899  0.5324 -1.3853
11345TIP3    H255451   0.541   2.710  14.802  0.2396  0.4532 -1.2353
11346TIP3   OH255452   1.228   4.962  15.844  0.3743  0.3995  0.0070
11346TIP3    H155453   1.157   4.910  15.806 -0.4852  1.5597 -0.0272
11346TIP3    H255454   1.284   4.983  15.770  1.8412 -2.1264  0.3315
11347TIP3   OH255455   0.426   3.444   2.811 -0.1148  0.5089 -0.1334
11347TIP3    H155456   0.440   3.405   2.725  0.3793  0.9344 -0.2473
11347TIP3    H255457   0.332   3.433   2.827 -0.1680  0.2235 -0.6278
11348TIP3   OH255458   3.575   4.882  16.306 -0.3472  0.0340 -0.4095
11348TIP3    H155459   3.633   4.957  16.320  1.0032 -0.8766 -0.9677
11348TIP3    H255460   3.506   4.915  16.250  0.6790  0.6648 -1.3234
11349TIP3   OH255461   6.611   1.970   4.935 -0.1008  0.3543  0.5152
11349TIP3    H155462   6.615   1.875   4.922  0.0286  0.3393  0.6635
11349TIP3    H255463   6.688   1.990   4.988 -0.7859  0.3650  1.5274
11350TIP3   OH255464   3.180   3.434  14.072  0.2139 -0.1120  0.3426
11350TIP3    H155465   3.203   3.359  14.125  2.8639  0.6277  0.2814
11350TIP3    H255466   3.143   3.497  14.134  1.0475 -0.1910  0.9270
11351TIP3   OH255467   0.854   2.037   4.837 -0.1791 -0.1591  0.3569
11351TIP3    H155468   0.923   2.038   4.770 -1.7056  0.3827 -1.2228
11351TIP3    H255469   0.792   1.971   4.807 -0.4893 -0.4912  1.6765
11352TIP3   OH255470   6.469   5.661   2.680 -0.3178  0.5820  0.3895
11352TIP3    H155471   6.395   5.706   2.721  0.2339  0.2014  1.8511
11352TIP3    H255472   6.542   5.673   2.741  0.6732  0.4289 -0.7339
11353TIP3   OH255473   2.142   2.690  14.474  0.2310  0.1602  0.4091
11353TIP3    H155474   2.199   2.760  14.443  0.8726 -0.7392 -0.5148
11353TIP3    H255475   2.153   2.689  14.569  0.7989  0.8135  0.3494
11354TIP3   OH255476   2.422   3.676   6.191  0.2637  0.1923 -0.4563
11354TIP3    H155477   2.354   3.622   6.151 -1.2241  1.1844  0.6666
11354TIP3    H255478   2.383   3.706   6.273  2.4268  0.0030  0.6717
11355TIP3   OH255479   0.875   4.821  12.496 -0.3366  0.1106  0.2826
11355TIP3    H155480   0.899   4.798  12.407  0.5324  2.5536 -0.1596
11355TIP3    H255481   0.794   4.772  12.513 -1.0925  0.4337 -2.2127
11356TIP3   OH255482   6.643   1.234  11.128 -0.1750 -0.1588 -0.0122
11356TIP3    H155483   6.730   1.228  11.087  0.6982  1.8842  1.4397
11356TIP3    H255484   6.589   1.172  11.079  2.5856 -2.9762  0.3349
11357TIP3   OH255485   6.522   2.721  11.709  0.6732  0.4612 -0.1956
11357TIP3    H155486   6.477   2.800  11.678  0.1858  0.3941  0.3355
11357TIP3    H255487   6.568   2.688  11.632  0.2334  0.8225 -0.6164
11358TIP3   OH255488   5.904   2.744   3.858  0.1145 -0.2105  0.0973
11358TIP3    H155489   5.908   2.837   3.878 -1.9543 -0.4776  1.9492
11358TIP3    H255490   5.939   2.702   3.937 -1.2019 -1.0580  0.2427
11359TIP3   OH255491   0.572   6.003   2.149 -0.2027  0.3424 -0.1673
11359TIP3    H155492   0.524   6.085   2.138  1.4294  1.1738 -1.1790
11359TIP3    H255493   0.653   6.015   2.099 -0.3552 -2.2121 -1.1261
11360TIP3   OH255494   5.978   1.311   4.441 -0.2110  0.0204  0.1812
11360TIP3    H155495   5.984   1.228   4.395 -0.1172  0.1076  0.0340
11360TIP3    H255496   5.972   1.288   4.533 -0.1049 -0.1465  0.1455
11361TIP3   OH255497   2.698   3.884  13.706 -0.4640  0.0761  0.4425
11361TIP3    H155498   2.716   3.977  13.718  3.2687 -0.6300  1.1199
11361TIP3    H255499   2.720   3.844  13.791 -1.7181 -1.4655  0.0730
11362TIP3   OH255500   2.227   5.337  14.774  0.3609 -0.7691 -0.0082
11362TIP3    H155501   2.262   5.251  14.797 -1.4370 -1.3625  0.6117
11362TIP3    H255502   2.190   5.324  14.686  3.9990  0.5521 -1.8432
11363TIP3   OH255503   3.840   5.700  16.331 -0.2759  0.0066 -0.5415
11363TIP3    H155504   3.887   5.633  16.282  0.1877  0.1716 -0.3253
11363TIP3    H255505   3.796   5.752  16.263 -1.5940 -1.2125 -0.6494
11364TIP3   OH255506   5.466   4.826  12.207  0.3029  0.4544 -0.0460
11364TIP3    H155507   5.443   4.892  12.273 -0.9515  0.3756 -0.3948
11364TIP3    H255508   5.562   4.828  12.203  0.3454  0.9966  1.2293
11365TIP3   OH255509   1.009   2.080  11.622  0.1714  0.0606 -0.0418
11365TIP3    H155510   1.044   2.055  11.536 -0.7372 -0.9055 -0.1389
11365TIP3    H255511   1.085   2.076  11.680  0.9624  1.5314 -0.9501
11366TIP3   OH255512   3.926   4.808   4.904  0.2814 -0.0009  0.0468
11366TIP3    H155513   4.016   4.840   4.913  0.2069  0.2348 -0.0374
11366TIP3    H255514   3.894   4.850   4.824  0.3697 -0.7328 -0.3713
11367TIP3   OH255515   3.238   6.048  13.851 -0.9129  0.2037 -0.0594
11367TIP3    H155516   3.230   6.130  13.802 -0.6364  0.4390  0.2863
11367TIP3    H255517   3.323   6.054  13.894 -1.6272  0.5034  1.3539
11368TIP3   OH255518   3.814   0.364   0.560 -0.7340 -0.5387 -0.0768
11368TIP3    H155519   3.788   0.339   0.649 -2.9866  0.9064 -0.2894
11368TIP3    H255520   3.731   0.376   0.514  0.4017 -2.2352 -2.6693
11369TIP3   OH255521   4.569   0.195   4.316 -0.1888 -0.3143 -0.4371
11369TIP3    H155522   4.564   0.109   4.356  0.5492 -0.0197  0.3170
11369TIP3    H255523   4.654   0.230   4.345 -0.7778  0.9387 -0.1653
11370TIP3   OH255524   3.270   1.593  12.549  0.2756  0.1417 -0.1381
11370TIP3    H155525   3.241   1.666  12.603 -0.1967 -0.9650  1.1273
11370TIP3    H255526   3.219   1.601  12.469 -1.4550 -0.1167  0.9099
11371TIP3   OH255527   6.351   2.511  13.591 -0.4163  0.6876 -0.4976
11371TIP3    H155528   6.415   2.458  13.544 -0.7608  0.9694 -1.2922
11371TIP3    H255529   6.403   2.563  13.652  0.1867  1.4392 -1.6389
11372TIP3   OH255530   3.579   3.622   4.010 -0.0303  0.0947 -0.1373
11372TIP3    H155531   3.579   3.638   3.916  0.4468 -1.0235 -0.3302
11372TIP3    H255532   3.639   3.689   4.045 -0.1692  0.4793 -0.6228
11373TIP3   OH255533   6.147   5.921   0.397  0.2256 -0.1476  0.6749
11373TIP3    H155534   6.124   5.859   0.328 -0.8192  1.1423 -0.1583
11373TIP3    H255535   6.148   6.006   0.353  2.0255  0.3936  1.7187
11374TIP3   OH255536   0.207   5.065   5.247 -0.0359  0.5502 -0.0150
11374TIP3    H155537   0.285   5.093   5.295  0.1910  0.7355 -0.4844
11374TIP3    H255538   0.156   5.145   5.235 -0.4482  0.3714  0.5686
11375TIP3   OH255539   0.505   4.909   1.569 -0.2002  0.0451  0.0868
11375TIP3    H155540   0.553   4.991   1.556 -1.0382  0.3974 -0.8213
11375TIP3    H255541   0.527   4.856   1.491  0.1201 -0.4915  0.5353
11376TIP3   OH255542   5.212   4.400   3.272  0.1438  0.4023 -0.0294
11376TIP3    H155543   5.123   4.423   3.298 -0.2126  1.1385 -1.7782
11376TIP3    H255544   5.256   4.484   3.257  0.5420  0.0307 -1.0309
11377TIP3   OH255545   4.558   6.145   3.067  0.2664  0.1648 -0.0764
11377TIP3    H155546   4.572   6.075   3.003  0.0950  1.6186 -1.7447
11377TIP3    H255547   4.646   6.178   3.087  0.2102  0.7347 -0.7501
11378TIP3   OH255548   5.163   1.365  12.814 -0.0483  1.2396 -0.5249
11378TIP3    H155549   5.117   1.414  12.882 -0.8277  1.6083 -1.3155
11378TIP3    H255550   5.202   1.431  12.757 -0.2773  0.9465 -1.0327
11379TIP3   OH255551   2.925   3.476  14.265 -0.4405 -0.3663 -0.7808
11379TIP3    H155552   2.972   3.559  14.273 -2.1019  0.4376  0.8723
11379TIP3    H255553   2.863   3.476  14.338 -1.7136 -2.2487 -1.8227
11380TIP3   OH255554   3.184   4.918  14.244  0.1751 -0.2007 -0.8267
11380TIP3    H155555   3.098   4.926  14.284  0.3613  1.1618 -0.6887
11380TIP3    H255556   3.211   5.008  14.226  2.8370 -0.3563  1.8615
11381TIP3   OH255557   4.707   5.494   0.760 -0.2628 -0.5448 -0.4067
11381TIP3    H155558   4.671   5.413   0.725 -2.2761 -0.3324  1.1125
11381TIP3    H255559   4.785   5.511   0.706 -1.1945 -2.1699 -2.3226
11382TIP3   OH255560   5.985   0.712   3.559 -0.6227  0.2901 -0.6735
11382TIP3    H155561   5.892   0.735   3.567 -0.9540 -1.4884  0.9634
11382TIP3    H255562   6.025   0.749   3.637 -0.3223 -0.7123 -0.3565
11383TIP3   OH255563   0.732   5.478  17.210  0.0098  0.2197 -0.1119
11383TIP3    H155564   0.763   5.472  17.119 -0.7423  0.2139 -0.3719
11383TIP3    H255565   0.810   5.503  17.260  0.1808  1.3640 -0.9275
11384TIP3   OH255566   0.924   5.298  12.218  0.7348  0.4370 -0.1845
11384TIP3    H155567   0.905   5.221  12.163  1.9412 -0.2647  0.3568
11384TIP3    H255568   0.994   5.269  12.276  1.0595  1.8993  0.1702
11385TIP3   OH255569   4.416   4.800  17.118 -0.0713  0.1153 -0.2303
11385TIP3    H155570   4.326   4.766  17.123  0.5537 -1.6736 -0.9795
11385TIP3    H255571   4.454   4.779  17.203 -0.3251  0.8164  0.0640
11386TIP3   OH255572   4.219   1.547  12.113  0.1278 -0.0657  0.9405
11386TIP3    H155573   4.266   1.611  12.166 -1.6721  2.5805 -0.5458
11386TIP3    H255574   4.255   1.557  12.025 -1.1098 -0.1267  0.4180
11387TIP3   OH255575   6.007   5.694   0.679 -0.3708 -0.1105 -0.0973
11387TIP3    H155576   5.918   5.689   0.646 -0.1478 -0.6105 -0.6235
11387TIP3    H255577   6.000   5.744   0.760 -1.3501 -1.4598  0.6673
11388TIP3   OH255578   2.600   2.850   5.811  0.2669  0.2283  0.4954
11388TIP3    H155579   2.612   2.837   5.717  1.9144 -0.5183  0.8035
11388TIP3    H255580   2.511   2.886   5.818 -0.7194 -1.7933 -1.1534
11389TIP3   OH255581   3.603   1.822  14.926 -0.0263  0.6934 -0.0354
11389TIP3    H155582   3.508   1.829  14.929  0.0631  1.6093  0.6375
11389TIP3    H255583   3.620   1.768  14.848 -1.0508  1.2889 -0.6860
11390TIP3   OH255584   6.638   6.665   0.047  0.7185  0.6981  0.3930
11390TIP3    H155585   6.598   6.752   0.057 -1.4660 -0.3192  0.7612
11390TIP3    H255586   6.642   6.630   0.136  0.6778  0.0133  0.1273
11391TIP3   OH255587   4.713   1.195  12.284 -0.1509  0.2309  0.4237
11391TIP3    H155588   4.660   1.229  12.356  0.7763  0.1853  1.1490
11391TIP3    H255589   4.791   1.160  12.327  0.5898  0.5532 -0.6349
11392TIP3   OH255590   6.256   5.464  16.571  0.7896  0.2214 -0.0001
11392TIP3    H155591   6.168   5.436  16.546  0.8591 -1.7594  1.9279
11392TIP3    H255592   6.243   5.519  16.648  1.2313  0.0784  0.1788
11393TIP3   OH255593   0.425   2.817   2.692 -1.0581  0.0639  0.2007
11393TIP3    H155594   0.401   2.820   2.599 -0.7265  1.3246  0.1401
11393TIP3    H255595   0.503   2.762   2.695 -2.2811 -1.7303  0.0244
11394TIP3   OH255596   5.898   0.660  14.548  0.1224 -0.0749  0.3750
11394TIP3    H155597   5.898   0.595  14.618 -0.2929 -1.1309 -0.5804
11394TIP3    H255598   5.911   0.608  14.468  2.9777  1.3218 -0.1317
11395TIP3   OH255599   2.537   4.098   0.107 -0.3377 -0.5567 -0.1812
11395TIP3    H155600   2.460   4.146   0.137  0.0051 -0.7002  0.9457
11395TIP3    H255601   2.574   4.152   0.037  0.0652  0.8112  1.0912
11396TIP3   OH255602   3.354   3.461   5.449  0.0924  0.6954  0.4059
11396TIP3    H155603   3.276   3.408   5.469 -0.6911  2.2433  1.5501
11396TIP3    H255604   3.396   3.473   5.534  1.6143 -0.1509 -0.2147
11397TIP3   OH255605   0.811   5.533   5.576 -0.2670  0.0126  0.4216
11397TIP3    H155606   0.780   5.591   5.646 -1.3878  0.4698 -0.4512
11397TIP3    H255607   0.772   5.448   5.596 -0.6411  0.1598  0.3076
11398TIP3   OH255608   2.972   2.211   2.947  0.7638 -0.2414  0.4036
11398TIP3    H155609   2.880   2.186   2.962  0.9461 -1.0776  0.1841
11398TIP3    H255610   3.017   2.127   2.936  0.7942  0.2520 -4.1296
11399TIP3   OH255611   4.287   2.971  11.357 -0.3442  0.4418 -0.2272
11399TIP3    H155612   4.281   3.065  11.336  2.4153  1.2950  2.4120
11399TIP3    H255613   4.293   2.969  11.453 -2.6923 -2.6111 -0.1015
11400TIP3   OH255614   4.609   1.633  11.650  0.1486  0.3159  0.0033
11400TIP3    H155615   4.681   1.573  11.670  1.4174  1.4510 -1.1139
11400TIP3    H255616   4.532   1.576  11.642  0.7032 -0.8058  2.1723
11401TIP3   OH255617   0.514   4.065  14.957  0.4907 -0.0423 -0.1881
11401TIP3    H155618   0.512   4.035  14.866  0.1564  2.2104 -0.9451
11401TIP3    H255619   0.443   4.017  14.999 -0.1854 -0.1535 -1.4317
11402TIP3   OH255620   2.843   6.226   1.479 -0.9850 -0.1185 -0.0976
11402TIP3    H155621   2.833   6.143   1.526 -0.7812  0.3958  0.8644
11402TIP3    H255622   2.810   6.207   1.391  0.2753 -1.5758 -0.2780
11403TIP3   OH255623   1.942   0.810   1.231  0.0625 -0.2460 -0.3777
11403TIP3    H155624   1.927   0.805   1.137  1.9559  0.2928 -0.7346
11403TIP3    H255625   1.993   0.732   1.252  0.4563  0.1136  0.0268
11404TIP3   OH255626   1.222   4.429   4.924  0.1149 -0.2917  0.4886
11404TIP3    H155627   1.171   4.412   4.845 -0.0855 -0.6814  0.6996
11404TIP3    H255628   1.265   4.346   4.943  3.1210  0.7897 -1.3051
11405TIP3   OH255629   6.500   1.419  15.076  0.8002 -0.0986 -0.1653
11405TIP3    H155630   6.485   1.324  15.070 -2.4138  0.1250  2.3534
11405TIP3    H255631   6.453   1.455  15.002  0.0402 -0.3430  0.1884
11406TIP3   OH255632   4.097   2.165   2.098  0.6672  0.0613 -0.2824
11406TIP3    H155633   4.042   2.108   2.151 -0.0608  0.7548 -0.2753
11406TIP3    H255634   4.185   2.128   2.105  0.2551 -0.8803 -0.0493
11407TIP3   OH255635   4.493   4.751   0.134 -0.0701 -0.1154  0.5085
11407TIP3    H155636   4.410   4.711   0.160 -0.8680  2.1738  1.6188
11407TIP3    H255637   4.537   4.772   0.216  1.2951 -0.6696 -0.0726
11408TIP3   OH255638   1.500   5.471  16.168 -0.2555  0.2659 -0.7877
11408TIP3    H155639   1.486   5.478  16.262 -0.5098  0.1511 -0.8134
11408TIP3    H255640   1.461   5.386  16.145  3.1247 -1.5057 -0.3743
11409TIP3   OH255641   0.901   0.444   2.652  0.3411 -0.3892 -0.1420
11409TIP3    H155642   0.960   0.487   2.591 -0.8207 -0.9712 -1.7191
11409TIP3    H255643   0.816   0.485   2.635 -0.3210 -1.7265 -0.0925
11410TIP3   OH255644   3.177   1.277   4.704  0.2319  0.0004  0.2267
11410TIP3    H155645   3.197   1.339   4.634 -2.3795  0.8918  0.2402
11410TIP3    H255646   3.117   1.214   4.665 -0.0900 -0.3467  1.2597
11411TIP3   OH255647   4.646   6.471   0.956 -0.1100 -0.2372  0.0289
11411TIP3    H155648   4.741   6.481   0.969 -0.1973  0.7165 -0.0225
11411TIP3    H255649   4.637   6.389   0.908  0.5344 -1.5090  2.0206
11412TIP3   OH255650   1.656   1.808   1.542 -0.0402  0.1645  0.3990
11412TIP3    H155651   1.750   1.815   1.558  0.4940 -1.3998 -1.9291
11412TIP3    H255652   1.640   1.868   1.470 -0.8752  0.5061  0.8603
11413TIP3   OH255653   2.245   0.375  13.079  0.0313  0.1664 -0.2026
11413TIP3    H155654   2.175   0.437  13.062 -0.8000 -1.3249 -2.5068
11413TIP3    H255655   2.322   0.414  13.039 -0.3189  0.0643 -0.9771
11414TIP3   OH255656   1.638   2.122  13.490  0.2558 -0.5025 -0.4024
11414TIP3    H155657   1.699   2.192  13.467  0.2344 -0.0372  0.9218
11414TIP3    H255658   1.555   2.166  13.508  0.4305 -0.7659  1.1523
11415TIP3   OH255659   5.954   1.681   4.941 -0.1840 -0.0995  0.2171
11415TIP3    H155660   5.928   1.643   5.025 -0.0334 -1.4864 -0.3515
11415TIP3    H255661   6.043   1.714   4.957 -0.2013 -0.2399  0.6243
11416TIP3   OH255662   6.726   2.374   0.302 -0.0530  0.1248  0.1613
11416TIP3    H155663   6.743   2.290   0.258  2.1710  0.8037 -0.3634
11416TIP3    H255664   6.715   2.351   0.394  0.8311 -0.7351  0.0636
11417TIP3   OH255665   5.237   1.875   3.569  0.3818 -0.7574 -0.8253
11417TIP3    H155666   5.155   1.917   3.595  0.3646 -1.1602 -0.2111
11417TIP3    H255667   5.267   1.926   3.494  0.3577  0.3560 -0.1001
11418TIP3   OH255668   1.383   4.107   4.218 -0.0100  0.0085 -0.2095
11418TIP3    H155669   1.348   4.018   4.208  0.1561 -0.0077 -0.6758
11418TIP3    H255670   1.449   4.114   4.149  0.3019  0.3361  0.1222
11419TIP3   OH255671   1.859   2.012   4.535  0.0077  0.1099  0.1791
11419TIP3    H155672   1.856   2.083   4.470  1.7613  1.6492  1.7382
11419TIP3    H255673   1.950   1.984   4.536 -0.4706 -1.4539  0.3644
11420TIP3   OH255674   3.010   5.858  13.451  0.1124  0.4538  0.0858
11420TIP3    H155675   2.916   5.858  13.432  0.2817  1.1387 -0.7434
11420TIP3    H255676   3.015   5.856  13.547 -0.7406  0.9464  0.1405
11421TIP3   OH255677   3.921   0.792   4.484  0.6327 -0.0630  0.3539
11421TIP3    H155678   3.900   0.699   4.496  1.7966 -0.1823  1.5406
11421TIP3    H255679   4.012   0.800   4.511 -0.2331  1.9031  2.9135
11422TIP3   OH255680   3.050   2.193   4.001 -0.6916  0.2490  0.6396
11422TIP3    H155681   3.118   2.126   4.001  0.1264  1.0657  1.1921
11422TIP3    H255682   3.059   2.237   3.917 -0.4907  0.3968  0.7373
11423TIP3   OH255683   4.669   0.259   5.058  0.2844  0.3647 -1.1044
11423TIP3    H155684   4.612   0.212   5.118 -0.4121 -0.3110 -2.2883
11423TIP3    H255685   4.618   0.336   5.033  0.6299  0.7174 -0.7265
11424TIP3   OH255686   3.583   5.509   1.968  0.4314  0.0694  0.1413
11424TIP3    H155687   3.614   5.487   2.056  1.8411  0.1659 -0.3223
11424TIP3    H255688   3.558   5.602   1.975  0.8721  0.1748  0.3454
11425TIP3   OH255689   4.005   6.039   5.607  0.2402  0.4471  0.5271
11425TIP3    H155690   4.008   6.132   5.630 -1.0728  0.3049  1.3356
11425TIP3    H255691   4.097   6.012   5.602  0.6681  2.1115 -1.0618
11426TIP3   OH255692   3.549   1.694   1.679  0.2419  0.1304  0.2016
11426TIP3    H155693   3.501   1.613   1.661 -2.2634  1.5738  0.1013
11426TIP3    H255694   3.491   1.764   1.648  3.2432  1.9119 -1.6880
11427TIP3   OH255695   0.320   0.530  13.198  0.6398 -0.1394 -0.0416
11427TIP3    H155696   0.229   0.546  13.223  1.0529 -0.4731  1.7006
11427TIP3    H255697   0.327   0.567  13.109 -1.1007  0.1521 -0.0735
11428TIP3   OH255698   6.201   5.248  14.013 -0.3178 -0.0841  0.1397
11428TIP3    H155699   6.229   5.234  14.103  1.2106  0.0570 -0.2954
11428TIP3    H255700   6.278   5.226  13.960 -1.4178 -0.8468 -1.1774
11429TIP3   OH255701   2.634   4.458  14.882 -0.3819  0.3066  0.0262
11429TIP3    H155702   2.541   4.467  14.902 -0.0740 -1.5889  2.5926
11429TIP3    H255703   2.675   4.445  14.967  2.6878  4.2364 -0.7076
11430TIP3   OH255704   6.231   5.806  15.622 -0.3274  0.1609 -0.1730
11430TIP3    H155705   6.171   5.861  15.571 -2.2882 -0.2532  1.6224
11430TIP3    H255706   6.187   5.721  15.628  0.7369 -0.3474  0.5964
11431TIP3   OH255707   0.868   2.261  16.442  0.5079  0.4612  0.2175
11431TIP3    H155708   0.930   2.188  16.438 -0.2267 -0.1275 -0.7990
11431TIP3    H255709   0.808   2.239  16.513  0.3251  0.1083 -0.0478
11432TIP3   OH255710   5.985   4.697   4.610  0.2441 -0.3604  0.8630
11432TIP3    H155711   5.896   4.731   4.610  1.1754  2.2280 -0.7663
11432TIP3    H255712   5.988   4.638   4.535  0.1742  0.3599  0.2859
11433TIP3   OH255713   4.691   4.288   5.086 -0.1513 -0.6518 -0.4608
11433TIP3    H155714   4.605   4.255   5.060 -0.0630 -1.2701  0.0080
11433TIP3    H255715   4.680   4.383   5.092 -0.6973 -0.6943 -0.7872
11434TIP3   OH255716   2.601   0.530   2.044 -0.1236  0.1038 -0.0959
11434TIP3    H155717   2.626   0.448   2.088  0.1184  0.0015 -0.4188
11434TIP3    H255718   2.585   0.504   1.953 -1.2300  0.2093  0.0662
11435TIP3   OH255719   2.193   4.587   1.111  0.6271  0.1591  0.0995
11435TIP3    H155720   2.131   4.567   1.041  1.2487 -0.7504 -0.2004
11435TIP3    H255721   2.207   4.504   1.155  1.8172  0.3014  0.0079
11436TIP3   OH255722   6.646   5.969  12.799  0.0927 -0.3303 -0.0778
11436TIP3    H155723   6.634   5.907  12.727  0.9020  1.3604 -1.7133
11436TIP3    H255724   6.621   5.920  12.877  0.6500 -2.6985 -1.3263
11437TIP3   OH255725   4.940   3.608   1.363 -0.1750  0.0042 -0.3319
11437TIP3    H155726   4.915   3.519   1.388 -1.6736  0.5426  0.1681
11437TIP3    H255727   4.879   3.631   1.293  0.9435  0.2303 -1.2460
11438TIP3   OH255728   0.728   3.172  16.105  0.6715  0.0974  0.2682
11438TIP3    H155729   0.711   3.082  16.076  0.5622  0.2453 -0.1272
11438TIP3    H255730   0.821   3.173  16.127  1.0069  0.2684 -1.1132
11439TIP3   OH255731   1.800   4.228  16.801  0.0520  0.0866 -0.1001
11439TIP3    H155732   1.857   4.156  16.774 -2.4566 -1.7629 -0.7008
11439TIP3    H255733   1.854   4.306  16.792  2.5009 -1.5862 -0.5463
11440TIP3   OH255734   2.216   6.484   1.749 -0.3684  0.5325  0.0928
11440TIP3    H155735   2.199   6.576   1.729  0.2128  1.0768  1.9829
11440TIP3    H255736   2.309   6.481   1.771 -0.2875 -0.5985 -0.4010
11441TIP3   OH255737   0.629   6.068  12.234 -0.2618  0.0263  0.2089
11441TIP3    H155738   0.598   6.015  12.307 -1.8423  1.5990  0.7061
11441TIP3    H255739   0.561   6.058  12.167  0.0534  0.4126 -0.1736
11442TIP3   OH255740   2.686   4.138  15.650 -0.0559  0.1417 -0.0340
11442TIP3    H155741   2.634   4.064  15.682  2.3322 -0.5619  2.3801
11442TIP3    H255742   2.684   4.201  15.722  1.6551  0.5072 -0.2988
11443TIP3   OH255743   2.649   2.701   0.668 -0.2781 -0.2997 -0.1655
11443TIP3    H155744   2.660   2.796   0.677  0.6876 -0.4718  0.5567
11443TIP3    H255745   2.565   2.691   0.624 -0.1036  0.9118 -0.7945
11444TIP3   OH255746   3.604   4.065   2.423 -0.1720 -0.1670  0.2848
11444TIP3    H155747   3.551   4.135   2.384  1.0428  0.1651 -0.8204
11444TIP3    H255748   3.549   4.029   2.493 -0.9311  1.6790  0.6646
11445TIP3   OH255749   2.353   6.748   3.987 -0.3706 -0.1051  0.1142
11445TIP3    H155750   2.358   6.693   3.909 -1.6499  0.5612 -0.4485
11445TIP3    H255751   2.389   6.693   4.057  1.6587 -0.3610 -1.1024
11446TIP3   OH255752   4.809   4.686  12.112 -0.1374  0.3328  0.6631
11446TIP3    H155753   4.900   4.667  12.136  0.4265 -1.9938 -3.0219
11446TIP3    H255754   4.817   4.746  12.038 -1.6404  0.3732  0.5335
11447TIP3   OH255755   4.891   2.493   3.579  0.0460  0.4511  0.1273
11447TIP3    H155756   4.897   2.435   3.503  0.4760 -1.9661  1.9123
11447TIP3    H255757   4.978   2.529   3.589  0.1897  0.1675 -0.0970
11448TIP3   OH255758   3.603   2.525   4.815 -0.0569 -0.2040 -0.4515
11448TIP3    H155759   3.577   2.603   4.767 -0.9693  0.8350  1.6823
11448TIP3    H255760   3.699   2.531   4.819 -0.2099  1.6339  1.0391
11449TIP3   OH255761   2.403   2.158  13.232 -0.4380  0.0489 -0.7176
11449TIP3    H155762   2.373   2.132  13.144  1.2515 -0.5664 -1.1299
11449TIP3    H255763   2.477   2.099  13.250 -0.6442  0.3090  1.0415
11450TIP3   OH255764   5.452   1.979  13.312 -0.0302  0.4849 -0.2765
11450TIP3    H155765   5.362   1.956  13.287 -0.9376  1.3490  2.0083
11450TIP3    H255766   5.473   1.919  13.384  1.3150  0.1444 -0.9427
11451TIP3   OH255767   0.992   5.187  13.689 -0.2363  0.0711  0.4494
11451TIP3    H155768   1.075   5.157  13.726  0.6348  2.0764  0.2152
11451TIP3    H255769   0.926   5.165  13.754  0.4724 -1.4872  0.6684
11452TIP3   OH255770   2.172   6.151  10.897 -0.1030 -0.7908  0.1936
11452TIP3    H155771   2.098   6.174  10.953 -0.2305 -0.4585 -0.1045
11452TIP3    H255772   2.240   6.214  10.920 -0.9372  0.8481 -1.6289
11453TIP3   OH255773   0.503   1.861  16.366  0.2196 -0.4341 -0.1617
11453TIP3    H155774   0.568   1.894  16.429 -1.5038  0.6109  1.1197
11453TIP3    H255775   0.554   1.808  16.305  3.0617  4.1368 -2.0367
11454TIP3   OH255776   4.288   6.101  16.579 -0.1970  0.5439 -0.7971
11454TIP3    H155777   4.382   6.106  16.558 -0.2773  0.0905 -1.2769
11454TIP3    H255778   4.255   6.032  16.521 -0.9631  1.1984 -1.1351
11455TIP3   OH255779   5.559   3.455  11.693  0.6951 -0.1851 -0.4484
11455TIP3    H155780   5.540   3.391  11.623 -1.0277  0.3319 -0.4781
11455TIP3    H255781   5.654   3.458  11.697  0.8111 -1.1966 -1.8994
11456TIP3   OH255782   5.517   5.665   5.622 -0.3620  0.0806 -0.4405
11456TIP3    H155783   5.472   5.665   5.707  0.9410 -1.7116  0.2977
11456TIP3    H255784   5.456   5.708   5.563 -1.7007  0.5313  1.2081
11457TIP3   OH255785   0.071   0.445   1.603 -0.3548 -0.3034 -0.1986
11457TIP3    H155786   0.072   0.362   1.650 -1.3779 -0.1769  0.0659
11457TIP3    H255787   0.003   0.434   1.536 -1.8024  0.9460  1.0263
11458TIP3   OH255788   0.983   0.285  16.605 -0.5518  0.5466 -0.2150
11458TIP3    H155789   0.912   0.288  16.541 -0.1961 -1.8743 -0.7911
11458TIP3    H255790   1.053   0.338  16.566 -0.9790  0.5312 -1.0173
11459TIP3   OH255791   2.889   5.077  12.269  0.2611 -0.3940 -0.2443
11459TIP3    H155792   2.802   5.096  12.235 -0.0727 -1.6483 -0.0933
11459TIP3    H255793   2.949   5.109  12.201 -0.2730  1.5120  0.1517
11460TIP3   OH255794   3.149   0.298   3.762 -0.1012 -0.2575 -0.0011
11460TIP3    H155795   3.144   0.222   3.820  1.6373 -0.8787 -0.6530
11460TIP3    H255796   3.089   0.278   3.691  1.5700 -1.7714 -1.0118
11461TIP3   OH255797   2.806   3.635  13.088 -0.4691  0.3402 -0.0862
11461TIP3    H155798   2.870   3.686  13.039 -0.6952  0.8806  0.1648
11461TIP3    H255799   2.726   3.688  13.086 -0.4444  0.4443  0.9674
11462TIP3   OH255800   0.130   4.712  12.670 -0.1807  0.4485  0.1827
11462TIP3    H155801   0.189   4.736  12.599 -0.8994 -0.3582 -0.7181
11462TIP3    H255802   0.181   4.723  12.750  0.7674  0.9862 -0.4925
11463TIP3   OH255803   0.301   5.065   2.221  0.7555 -0.7598  0.2012
11463TIP3    H155804   0.322   4.998   2.156  1.0375  0.3598 -0.8542
11463TIP3    H255805   0.207   5.080   2.211  1.1528  0.8081 -1.2736
11464TIP3   OH255806   6.248   4.860  16.056 -0.4044  0.4011 -0.4349
11464TIP3    H155807   6.330   4.843  16.101 -0.9869 -2.2757 -0.2659
11464TIP3    H255808   6.215   4.941  16.094  1.9091  1.2225 -0.1643
11465TIP3   OH255809   2.906   2.031   5.372  0.3176 -0.2564  0.1517
11465TIP3    H155810   2.832   2.078   5.411  1.1348 -0.2182  1.7124
11465TIP3    H255811   2.959   2.100   5.333  0.4074 -0.0940  0.5523
11466TIP3   OH255812   6.205   1.375  12.784  0.5947  0.1432  0.4496
11466TIP3    H155813   6.113   1.348  12.783  0.6286  0.0513 -0.0963
11466TIP3    H255814   6.253   1.296  12.809  0.4933  0.2970  1.1501
11467TIP3   OH255815   1.838   3.880   2.561 -0.3857 -0.0184  0.4360
11467TIP3    H155816   1.839   3.958   2.616  0.7755  2.2959 -2.7145
11467TIP3    H255817   1.811   3.912   2.475 -0.2146 -3.1679 -0.8496
11468TIP3   OH255818   5.724   6.783  15.851 -0.1665  0.8678  0.1522
11468TIP3    H155819   5.798   6.770  15.791  0.7082 -0.1225  1.4206
11468TIP3    H255820   5.670   6.849  15.808 -0.4909 -1.0707 -2.5794
11469TIP3   OH255821   1.971   3.018   4.092  0.5000  0.5061 -0.4650
11469TIP3    H155822   1.918   2.979   4.022  2.0642 -1.0295 -0.8157
11469TIP3    H255823   1.972   3.111   4.072 -2.0200  0.5853 -0.4782
11470TIP3   OH255824   5.557   1.696   2.460  0.2588 -0.2446  0.0612
11470TIP3    H155825   5.482   1.676   2.403  1.5971  0.1723 -1.8678
11470TIP3    H255826   5.520   1.750   2.530 -1.0850  0.6463 -1.3199
11471TIP3   OH255827   1.579   3.744  12.843  0.1694 -0.2119 -0.3919
11471TIP3    H155828   1.657   3.773  12.891 -0.4254  2.3281 -0.8675
11471TIP3    H255829   1.506   3.773  12.898 -0.4827  0.7353 -1.7339
11472TIP3   OH255830   5.331   5.572  13.879  0.4711  0.7321  0.1641
11472TIP3    H155831   5.299   5.520  13.805  1.5812 -1.4815  1.1912
11472TIP3    H255832   5.257   5.573  13.941  0.7681 -0.4808  0.5545
11473TIP3   OH255833   4.000   4.959   4.029  0.3053  0.1022  0.4614
11473TIP3    H155834   4.069   5.025   4.019  1.3567 -0.8466  1.3390
11473TIP3    H255835   4.002   4.911   3.947 -0.6124  1.2785 -0.2721
11474TIP3   OH255836   2.377   4.193   1.465  0.2625  0.7035 -0.1365
11474TIP3    H155837   2.462   4.209   1.506 -0.2109  2.6367  0.1687
11474TIP3    H255838   2.327   4.147   1.532  0.7812  0.3586  0.0155
11475TIP3   OH255839   6.273   6.154  11.408  0.2392 -0.5124 -0.1073
11475TIP3    H155840   6.368   6.151  11.404  0.3205 -0.1320  1.3263
11475TIP3    H255841   6.246   6.062  11.404  0.5649 -0.5425 -2.2094
11476TIP3   OH255842   5.913   3.018   3.993 -0.7068  0.2624 -0.8222
11476TIP3    H155843   5.889   2.965   4.069 -0.6981 -0.0103 -1.0095
11476TIP3    H255844   5.883   3.107   4.015  0.6351  0.4901  0.1330
11477TIP3   OH255845   2.657   1.010   2.877  0.2524  0.2530 -0.3097
11477TIP3    H155846   2.716   0.957   2.823  1.8620  1.8281 -0.1473
11477TIP3    H255847   2.694   1.005   2.965 -0.5197  0.3239  0.0223
11478TIP3   OH255848   1.171   4.192   2.928  0.1070 -0.3981  0.1230
11478TIP3    H155849   1.151   4.112   2.976 -0.4461  0.1924  0.8817
11478TIP3    H255850   1.136   4.178   2.840  1.3308 -1.5758 -0.1906
11479TIP3   OH255851   2.730   3.187  13.223  0.2245  0.0837  0.2406
11479TIP3    H155852   2.779   3.269  13.228 -1.8202  1.3522  0.1785
11479TIP3    H255853   2.756   3.139  13.301  1.2972  0.8874  0.3864
11480TIP3   OH255854   6.128   5.516  11.469 -0.4305 -0.1009  0.5031
11480TIP3    H155855   6.041   5.514  11.430  0.7740  0.0290 -2.2914
11480TIP3    H255856   6.136   5.604  11.506 -1.3519 -0.0000  0.4609
11481TIP3   OH255857   6.092   6.265   4.975  0.1267  0.3924  0.7892
11481TIP3    H155858   6.068   6.179   4.939 -1.2186  0.4289  1.5965
11481TIP3    H255859   6.186   6.258   4.992  0.0106 -0.9547  0.9382
11482TIP3   OH255860   1.788   6.216  13.539 -0.0186  0.0492  0.3342
11482TIP3    H155861   1.876   6.185  13.523 -0.2891 -0.0634 -0.9593
11482TIP3    H255862   1.793   6.311  13.529  0.0438  0.0890  0.7167
11483TIP3   OH255863   6.497   1.246  14.674  0.1233  0.6562 -0.3544
11483TIP3    H155864   6.499   1.240  14.578 -1.3688  2.3167 -0.5081
11483TIP3    H255865   6.434   1.315  14.692  1.7828  1.6500  1.7981
11484TIP3   OH255866   2.315   2.232   6.645  0.9449  0.4660  0.1423
11484TIP3    H155867   2.362   2.211   6.725 -0.4306  1.0101  1.1121
11484TIP3    H255868   2.272   2.315   6.664 -2.5714 -1.2846  0.2758
11485TIP3   OH255869   1.145   2.520  15.311  0.1699 -0.4304  0.5321
11485TIP3    H155870   1.095   2.504  15.392 -0.6464 -3.1895 -0.4686
11485TIP3    H255871   1.131   2.441  15.258  1.2641  1.0385 -2.0241
11486TIP3   OH255872   1.169   6.262  15.459 -0.3311  0.5370  0.0403
11486TIP3    H155873   1.083   6.301  15.443 -0.4964 -0.5370 -1.8429
11486TIP3    H255874   1.167   6.237  15.551 -1.3096  2.2660  0.5169
11487TIP3   OH255875   1.559   3.708   0.033 -0.1141 -0.7773  0.4403
11487TIP3    H155876   1.632   3.649   0.054 -0.7212 -1.6142  0.2570
11487TIP3    H255877   1.590   3.757  -0.043 -0.4086 -2.4230 -0.7820
11488TIP3   OH255878   1.343   0.013  13.708 -0.1002 -0.3833 -0.2899
11488TIP3    H155879   1.348   0.105  13.736 -0.2245 -0.2282 -0.7709
11488TIP3    H255880   1.326  -0.036  13.788 -2.0981  0.2108 -0.3194
11489TIP3   OH255881   5.684   4.967   0.134  0.1976  0.4763  0.0665
11489TIP3    H155882   5.722   5.020   0.204  1.5805 -1.0410  0.5015
11489TIP3    H255883   5.685   4.878   0.168 -2.9865  0.2459 -0.2804
11490TIP3   OH255884   3.449   4.532   4.890 -1.0167  0.1898 -0.0356
11490TIP3    H155885   3.486   4.557   4.975 -0.6232 -1.0309  0.1787
11490TIP3    H255886   3.451   4.612   4.838 -0.6926  0.8084  0.9067
11491TIP3   OH255887   5.724   1.633  17.152  0.0322 -0.0201 -1.2367
11491TIP3    H155888   5.739   1.547  17.112  1.7193  0.4225 -1.5869
11491TIP3    H255889   5.701   1.614  17.242 -0.9768 -0.9033 -1.6694
11492TIP3   OH255890   3.827   3.619   0.307  0.1463 -0.3999  0.1779
11492TIP3    H155891   3.802   3.625   0.399  0.7656  0.6007  0.2961
11492TIP3    H255892   3.914   3.579   0.309 -0.3060 -1.4027 -0.0507
11493TIP3   OH255893   6.330   4.360  12.245 -0.4609 -0.0594  0.1439
11493TIP3    H155894   6.311   4.370  12.338 -0.2876  1.0349  0.0683
11493TIP3    H255895   6.425   4.346  12.242 -0.3969  0.3933  0.0937
11494TIP3   OH255896   2.668   5.625  15.038  0.0078 -0.2580 -0.8652
11494TIP3    H155897   2.693   5.653  15.126  2.1351 -1.5724 -1.0153
11494TIP3    H255898   2.602   5.557  15.053 -0.4164  0.2564 -0.3392
11495TIP3   OH255899   3.771   4.214  12.657  0.2054 -0.3476  0.3638
11495TIP3    H155900   3.756   4.130  12.700  1.2081 -0.3379  0.7359
11495TIP3    H255901   3.816   4.191  12.575 -0.5759 -0.2647 -0.0908
11496TIP3   OH255902   3.818   4.990  17.107 -0.5660  0.1064  0.7468
11496TIP3    H155903   3.826   5.067  17.163 -1.0907  0.1409  0.7819
11496TIP3    H255904   3.821   4.916  17.167 -0.2956  0.1073  0.7371
11497TIP3   OH255905   5.379   3.208  14.815  0.1406 -0.4520  0.1896
11497TIP3    H155906   5.347   3.145  14.751 -0.1232  0.0240 -0.1534
11497TIP3    H255907   5.474   3.197  14.815  0.2060  0.0896 -0.8543
11498TIP3   OH255908   2.448   3.496   2.736  0.1881 -0.2011 -0.0185
11498TIP3    H155909   2.419   3.586   2.751 -0.6168 -0.8310  2.5757
11498TIP3    H255910   2.457   3.459   2.824  2.0817 -2.1797 -0.9946
11499TIP3   OH255911   1.748   1.175  16.880 -0.2690 -0.4909 -0.1418
11499TIP3    H155912   1.752   1.218  16.965 -0.9859 -1.6114  0.4653
11499TIP3    H255913   1.667   1.207  16.841  1.2231  1.8850 -1.4416
11500TIP3   OH255914   3.114   3.403  15.506 -0.1328 -0.0956  0.2251
11500TIP3    H155915   3.022   3.429  15.514  0.4844  1.9550  1.0757
11500TIP3    H255916   3.137   3.369  15.593  0.1180  0.1377  0.2529
11501TIP3   OH255917   1.626   0.730   0.342 -0.6964 -0.6602 -0.4860
11501TIP3    H155918   1.572   0.768   0.273  0.0630 -0.3730 -0.9282
11501TIP3    H255919   1.564   0.703   0.410 -1.3201  0.4036 -0.6358
11502TIP3   OH255920   0.782   5.171   0.680 -0.9413 -0.1004 -0.4739
11502TIP3    H155921   0.746   5.091   0.641 -2.5225 -0.8737  2.4915
11502TIP3    H255922   0.869   5.144   0.711 -1.9178 -1.0496  1.5593
11503TIP3   OH255923   6.149   2.791   5.202  0.3375 -0.0333 -0.1277
11503TIP3    H155924   6.159   2.701   5.233 -0.9322  0.2676  1.2062
11503TIP3    H255925   6.056   2.800   5.182  0.1786  1.3816  1.1132
11504TIP3   OH255926   2.072   4.203  16.175 -0.1135  0.5367  0.6297
11504TIP3    H155927   2.162   4.170  16.172  0.0450  1.0328 -2.8114
11504TIP3    H255928   2.080   4.297  16.190  0.0352  0.7613 -0.7745
11505TIP3   OH255929   1.840   4.317   5.381  0.0194  0.3681 -0.4756
11505TIP3    H155930   1.744   4.317   5.372  0.1092  0.3175 -1.5421
11505TIP3    H255931   1.872   4.296   5.293  1.0146  0.3831 -0.1243
11506TIP3   OH255932   2.941   1.211  15.498  0.6276 -0.6376 -0.2069
11506TIP3    H155933   3.025   1.257  15.492 -0.2577  1.1727  0.6544
11506TIP3    H255934   2.938   1.155  15.421  2.1986  0.0338 -0.7731
11507TIP3   OH255935   1.044   1.643   3.126 -0.7195 -0.1602 -0.0898
11507TIP3    H155936   1.007   1.634   3.214 -2.5995 -1.6085 -0.9941
11507TIP3    H255937   1.085   1.729   3.126 -0.1246 -0.4141  2.4141
11508TIP3   OH255938   0.497   5.939  15.557 -0.2217 -0.3316  0.3018
11508TIP3    H155939   0.500   5.999  15.483  0.7004 -1.5785 -0.6913
11508TIP3    H255940   0.487   5.996  15.634  3.2174  1.2890 -0.3786
11509TIP3   OH255941   3.910   5.329   1.608 -0.7104  0.7771  0.2158
11509TIP3    H155942   3.825   5.347   1.649 -0.1488  0.1288  1.6974
11509TIP3    H255943   3.897   5.246   1.562 -0.6925  0.3166  1.0277
11510TIP3   OH255944   4.852   1.847   4.485 -0.1762  0.1098  0.6272
11510TIP3    H155945   4.926   1.824   4.542 -0.1149  0.6869  0.7841
11510TIP3    H255946   4.848   1.942   4.489  0.9235  0.3032 -1.6885
11511TIP3   OH255947   1.816   1.061   5.568 -0.6830 -0.3914  0.0673
11511TIP3    H155948   1.871   1.034   5.642 -0.3239  1.5011  0.5206
11511TIP3    H255949   1.727   1.058   5.602 -0.4908  0.8237  0.7113
11512TIP3   OH255950   4.956   3.676  14.149 -0.2143  0.3686  0.1118
11512TIP3    H155951   5.004   3.632  14.219 -2.2260 -0.3852  1.0391
11512TIP3    H255952   4.869   3.636  14.150 -1.0068  1.9934 -1.2665
11513TIP3   OH255953   4.343   3.294   0.317 -0.1223  0.7902  0.3105
11513TIP3    H155954   4.401   3.342   0.375  1.1830  0.5703 -0.7806
11513TIP3    H255955   4.399   3.226   0.278 -0.5578  1.8947 -2.3695
11514TIP3   OH255956   0.829   5.940   3.076 -0.1101 -0.4987 -0.2273
11514TIP3    H155957   0.882   6.011   3.038 -1.7230  1.2835  0.7392
11514TIP3    H255958   0.800   5.889   3.001  0.3032  0.4206 -1.0283
11515TIP3   OH255959   2.818   3.301  15.425 -0.3234 -0.6016  0.4966
11515TIP3    H155960   2.757   3.366  15.389  0.2460 -0.3335  0.0091
11515TIP3    H255961   2.835   3.241  15.352 -0.5133 -1.0574  0.8212
11516TIP3   OH255962   4.267   1.699   1.276 -0.3967  0.0660 -0.2307
11516TIP3    H155963   4.224   1.704   1.361  0.8640  0.8972  0.3745
11516TIP3    H255964   4.246   1.782   1.234 -0.8034 -0.2366 -0.6256
11517TIP3   OH255965   6.567   1.093   3.246 -0.0798 -0.3344  0.2923
11517TIP3    H155966   6.611   1.152   3.308 -0.3805 -1.7484  1.8697
11517TIP3    H255967   6.606   1.007   3.262  0.9687 -0.4640 -2.5886
11518TIP3   OH255968   0.094   2.815   4.972 -0.5188  0.2822  0.1869
11518TIP3    H155969   0.127   2.828   4.883  0.7090 -0.0743  0.5782
11518TIP3    H255970   0.155   2.754   5.012 -0.6547  0.9817  1.5100
11519TIP3   OH255971   1.544   4.560  15.883  0.0423  0.6519 -0.7111
11519TIP3    H155972   1.492   4.497  15.834 -2.1288  1.7029  0.1875
11519TIP3    H255973   1.634   4.529  15.875 -0.8087 -1.6210 -1.6413
11520TIP3   OH255974   6.024   6.431   4.766  0.0314 -0.0504 -0.2181
11520TIP3    H155975   6.053   6.359   4.709 -0.8743 -1.7073  1.3406
11520TIP3    H255976   6.043   6.399   4.855  1.7171  2.6130  0.4332
11521TIP3   OH255977   0.081   0.265   4.916 -0.7364  0.0255  0.1372
11521TIP3    H155978   0.170   0.243   4.886  0.1461  2.8524  0.5079
11521TIP3    H255979   0.085   0.255   5.011 -0.6797  0.5355  0.1916
11522TIP3   OH255980   3.296   5.828   0.268  0.0720 -0.0226 -0.7357
11522TIP3    H155981   3.225   5.890   0.283  0.1309  0.1146 -1.0151
11522TIP3    H255982   3.304   5.779   0.350 -1.1474 -0.8558 -1.1009
11523TIP3   OH255983   0.373   5.956  16.802  0.1845  0.8727 -0.7589
11523TIP3    H155984   0.436   5.985  16.868  0.6355  1.8390 -1.6055
11523TIP3    H255985   0.411   5.877  16.765  2.3072  2.9729 -3.2379
11524TIP3   OH255986   4.750   5.395   6.790  0.4013  0.6331  0.1176
11524TIP3    H155987   4.836   5.406   6.831  0.7251 -0.5495 -0.2406
11524TIP3    H255988   4.690   5.440   6.849  1.0695  0.2115  1.1290
11525TIP3   OH255989   5.758   0.192  12.254 -0.0028  0.0111 -0.0024
11525TIP3    H155990   5.775   0.286  12.258  1.5843 -0.2871  1.0399
11525TIP3    H255991   5.838   0.152  12.290 -1.7070 -1.6276  2.1579
11526TIP3   OH255992   4.592   6.318   0.672  0.5303 -0.0171  0.1716
11526TIP3    H155993   4.663   6.378   0.694  1.6135 -1.2505  0.0498
11526TIP3    H255994   4.539   6.367   0.609  1.4026  0.8236  0.0773
11527TIP3   OH255995   4.671   1.650   0.894 -0.3887 -0.3573  0.2563
11527TIP3    H155996   4.665   1.617   0.805  2.0438  0.2240 -0.1759
11527TIP3    H255997   4.723   1.730   0.886  0.2300 -0.5261  2.2244
11528TIP3   OH255998   2.323   6.551   3.033 -0.1818  0.1693 -0.2039
11528TIP3    H155999   2.230   6.530   3.033 -0.0872 -0.3015 -1.7090
11528TIP3    H256000   2.327   6.643   3.058 -0.8396 -0.5642  2.8177
11529TIP3   OH256001   3.275   0.091   6.188 -0.1139  0.4803 -0.4609
11529TIP3    H156002   3.330   0.013   6.191  0.2455  0.7017 -1.3038
11529TIP3    H256003   3.288   0.133   6.273  1.0078  0.5277 -0.6537
11530TIP3   OH256004   0.759   2.364   4.190  1.3521  0.3595 -0.7187
11530TIP3    H156005   0.704   2.424   4.240  1.1201 -0.8797  0.5285
11530TIP3    H256006   0.843   2.364   4.236  1.1285 -0.8075 -0.2960
11531TIP3   OH256007   5.260   0.517  13.061 -0.2863  0.3966 -0.5424
11531TIP3    H156008   5.242   0.546  12.971 -1.0101 -1.0616 -0.8718
11531TIP3    H256009   5.294   0.595  13.104 -0.4848  1.2695 -1.9255
11532TIP3   OH256010   2.071   1.573   6.072 -0.3721  0.4001  0.1819
11532TIP3    H156011   2.040   1.627   6.146 -1.3748  1.9960 -1.3610
11532TIP3    H256012   2.165   1.592   6.067 -0.3752  0.6126  0.7729
11533TIP3   OH256013   4.671   5.147   2.476  0.2190  0.2918  0.1862
11533TIP3    H156014   4.712   5.223   2.517  1.6541 -1.2410  1.6508
11533TIP3    H256015   4.716   5.138   2.392  1.6517 -0.2669  0.9894
11534TIP3   OH256016   1.581   4.919  12.190  0.2600 -0.0152 -0.0540
11534TIP3    H156017   1.552   5.010  12.198 -0.6543 -0.1148 -1.8693
11534TIP3    H256018   1.507   4.867  12.224  1.1349 -0.0607  1.8035
11535TIP3   OH256019   0.643   6.752   6.298 -0.6755 -0.1939 -0.1829
11535TIP3    H156020   0.663   6.658   6.294 -0.8067 -0.3290  1.7021
11535TIP3    H256021   0.562   6.756   6.350  0.5503  1.1089  1.6599
11536TIP3   OH256022   2.947   5.261   6.221  0.4358 -0.2275 -0.4475
11536TIP3    H156023   2.945   5.167   6.203 -1.6630 -0.4745  0.8748
11536TIP3    H256024   3.003   5.269   6.298  1.0321 -0.3410 -0.8696
11537TIP3   OH256025   2.418   2.169  13.564 -0.1621 -0.3440  0.1429
11537TIP3    H156026   2.430   2.168  13.469 -0.4800 -0.7113  0.1072
11537TIP3    H256027   2.328   2.141  13.578 -0.1467 -0.2036  0.5506
11538TIP3   OH256028   2.891   4.472  15.728 -0.2640  0.0240  0.2087
11538TIP3    H156029   2.820   4.427  15.682  0.4798 -0.8917 -0.0360
11538TIP3    H256030   2.963   4.475  15.665 -0.2798  1.5389  0.2220
11539TIP3   OH256031   1.576   5.804   1.925  0.2462  0.1885 -0.0473
11539TIP3    H156032   1.494   5.849   1.907 -1.0292 -2.0572 -0.0244
11539TIP3    H256033   1.608   5.777   1.839  0.5228  0.3048  0.0185
11540TIP3   OH256034   4.013   6.435  14.057  0.2911  0.5075 -0.2695
11540TIP3    H156035   3.978   6.520  14.083  0.3266  0.1176  1.0816
11540TIP3    H256036   4.103   6.435  14.089  0.7282  0.4830 -1.4558
11541TIP3   OH256037   1.582   0.217  13.585 -0.0091  0.0200  0.1576
11541TIP3    H156038   1.537   0.213  13.501  1.6532  0.1870 -0.7622
11541TIP3    H256039   1.518   0.254  13.645 -0.6253  1.6149 -1.4504
11542TIP3   OH256040   2.659   0.300   0.780  0.0274 -0.4586 -0.0620
11542TIP3    H156041   2.731   0.261   0.730  1.5348  2.2475 -0.1166
11542TIP3    H256042   2.672   0.268   0.869  1.1933 -0.1901 -0.1232
11543TIP3   OH256043   1.531   1.707  14.918 -0.0741  0.6480 -0.4352
11543TIP3    H156044   1.513   1.649  14.845  0.2610  0.6235 -0.5004
11543TIP3    H256045   1.512   1.655  14.996  0.2002  0.4583 -0.4943
11544TIP3   OH256046   4.127   4.177  13.048  0.2560  0.4158  0.2727
11544TIP3    H156047   4.165   4.098  13.087  0.4932  0.9502  1.1481
11544TIP3    H256048   4.197   4.213  12.993  0.7628  0.9766  1.2717
11545TIP3   OH256049   6.754   0.498   4.823  0.1632 -0.4429  0.3777
11545TIP3    H156050   6.782   0.426   4.880  0.1802 -0.4446  0.3677
11545TIP3    H256051   6.766   0.577   4.877  1.0760 -0.3512  0.0534
11546TIP3   OH256052   0.364   3.320   2.266 -0.2214 -0.6586 -0.0236
11546TIP3    H156053   0.283   3.272   2.283 -1.0437  0.4712 -0.6819
11546TIP3    H256054   0.400   3.280   2.186 -0.8016 -0.3180 -0.4584
11547TIP3   OH256055   1.013   1.742  14.508 -0.0988  0.7233 -0.6199
11547TIP3    H156056   1.027   1.740  14.413 -0.1504  1.4572 -0.6513
11547TIP3    H256057   0.940   1.681  14.523  0.9858 -0.6540 -0.8440
11548TIP3   OH256058   2.029   0.248   2.879 -0.2373  0.2192  0.3217
11548TIP3    H156059   1.966   0.245   2.950  0.4048  2.6369  1.0420
11548TIP3    H256060   1.976   0.260   2.800 -1.0139 -3.3836  0.2145
11549TIP3   OH256061   5.314   6.703  10.847 -0.3056 -0.4522 -0.8037
11549TIP3    H156062   5.389   6.735  10.897 -0.1109 -2.3015  0.1471
11549TIP3    H256063   5.287   6.777  10.793  1.8452  0.4026 -0.7450
11550TIP3   OH256064   2.786   1.933  15.387  0.2801  0.0820 -0.1136
11550TIP3    H156065   2.873   1.934  15.428 -0.1586 -0.9774  0.8816
11550TIP3    H256066   2.772   1.841  15.364 -1.2775 -0.0423  1.2476
11551TIP3   OH256067   2.369   6.187  12.942  0.0449 -0.1877 -0.0996
11551TIP3    H156068   2.347   6.160  13.031 -0.4033  0.4678 -0.0078
11551TIP3    H256069   2.303   6.144  12.887  0.6043 -0.9756 -0.1771
11552TIP3   OH256070   2.688   4.548   1.179  0.4017 -1.0789  0.3055
11552TIP3    H156071   2.651   4.468   1.216 -1.8850  0.7062  2.0279
11552TIP3    H256072   2.618   4.584   1.124  0.9418  0.3461  0.5204
11553TIP3   OH256073   1.876   4.522  13.594 -0.0396  0.3975  0.6443
11553TIP3    H156074   1.891   4.533  13.500  1.0531 -0.0961  0.7608
11553TIP3    H256075   1.936   4.453  13.621 -0.9358 -0.0409  1.5557
11554TIP3   OH256076   6.012   6.602   3.435  0.2940  0.1967  0.3493
11554TIP3    H156077   5.957   6.528   3.461 -2.0212  2.0653  0.9313
11554TIP3    H256078   6.021   6.592   3.340 -2.6349  0.8543 -0.0555
11555TIP3   OH256079   6.070   5.763  16.777 -0.4853  0.2230 -0.3862
11555TIP3    H156080   6.026   5.703  16.716 -0.7165 -1.4868  1.4109
11555TIP3    H256081   6.149   5.716  16.804 -0.0275  1.2614  0.0939
11556TIP3   OH256082   2.802   5.559   2.925 -0.8385  0.2956  0.3769
11556TIP3    H156083   2.837   5.627   2.867  0.1739  0.7224  1.4539
11556TIP3    H256084   2.820   5.592   3.013 -1.3222 -0.8693  0.9156
11557TIP3   OH256085   0.912   3.636  11.255 -0.4361  1.2914  0.7588
11557TIP3    H156086   0.888   3.611  11.165  0.6456  0.6334  0.6352
11557TIP3    H256087   0.950   3.724  11.246 -0.1717  1.1574  0.5411
11558TIP3   OH256088   0.291   6.435  13.934  0.1014  0.5151 -0.2572
11558TIP3    H156089   0.319   6.352  13.973  0.7026 -0.2778 -2.2730
11558TIP3    H256090   0.366   6.463  13.881  0.6516  3.3658  1.8916
11559TIP3   OH256091   1.050   6.581   0.568  0.0947 -0.3386 -0.1040
11559TIP3    H156092   1.088   6.516   0.626  1.0515 -1.7032 -2.1983
11559TIP3    H256093   0.966   6.604   0.609  0.1569 -2.2159  1.1293
11560TIP3   OH256094   4.209   1.727  14.435 -0.4498  0.2328 -0.1640
11560TIP3    H156095   4.166   1.715  14.520 -0.5378 -0.2222 -0.2756
11560TIP3    H256096   4.276   1.659  14.432  0.7301  1.3382  0.2923
11561TIP3   OH256097   4.813   1.958   1.375 -0.2169  0.4107  0.0758
11561TIP3    H156098   4.908   1.961   1.384 -0.1354 -1.2748 -0.1381
11561TIP3    H256099   4.797   1.889   1.311 -1.5845  0.7421  0.0481
11562TIP3   OH256100   1.356   3.381   0.643  0.7871  0.6356 -0.2592
11562TIP3    H156101   1.372   3.375   0.737  3.4543 -0.0139 -0.7036
11562TIP3    H256102   1.266   3.411   0.635  0.7518  1.3410  2.5028
11563TIP3   OH256103   1.907   0.141   2.354 -0.3534  0.0956  0.1187
11563TIP3    H156104   1.818   0.172   2.337 -0.1589 -0.0987 -1.2537
11563TIP3    H256105   1.956   0.165   2.275  1.3712  2.3219  1.7768
11564TIP3   OH256106   4.252   0.586  16.654  0.3630 -0.0195  0.0391
11564TIP3    H156107   4.236   0.532  16.576 -1.0341  1.3729 -0.6580
11564TIP3    H256108   4.214   0.671  16.633 -1.6728 -0.1328  2.9391
11565TIP3   OH256109   1.841   2.405  16.059 -0.0892 -0.7033  0.3024
11565TIP3    H156110   1.880   2.390  15.973 -1.1647 -1.0707 -0.1320
11565TIP3    H256111   1.914   2.435  16.113  0.8044 -1.4138 -0.4800
11566TIP3   OH256112   5.253   4.375  12.143  0.2517 -0.3283  0.1476
11566TIP3    H156113   5.217   4.297  12.101 -0.2113  0.7893 -1.5805
11566TIP3    H256114   5.343   4.381  12.111  0.3150 -0.2219  0.3460
11567TIP3   OH256115   4.117   3.557  15.908 -0.2036 -0.0175  0.0997
11567TIP3    H156116   4.043   3.556  15.968 -1.0000 -0.6021 -0.8659
11567TIP3    H256117   4.126   3.649  15.882 -0.4801  0.0821  0.3626
11568TIP3   OH256118   4.419   1.903  16.110  0.1161 -0.0817  0.2287
11568TIP3    H156119   4.355   1.960  16.068 -0.1756  0.0446  0.8356
11568TIP3    H256120   4.405   1.817  16.070 -0.2198  0.0148  0.1373
11569TIP3   OH256121   0.129   1.814   1.846  0.6281  0.0871  0.3459
11569TIP3    H156122   0.147   1.740   1.903  0.8896  0.0816  0.2577
11569TIP3    H256123   0.161   1.787   1.760  2.6488  1.1042  0.7578
11570TIP3   OH256124   6.761   6.096   5.402  0.3393 -0.2763  0.3001
11570TIP3    H156125   6.837   6.042   5.422  0.5496 -0.3046 -0.5647
11570TIP3    H256126   6.706   6.040   5.348  0.5064  0.3347 -0.5147
11571TIP3   OH256127   1.456   1.037  16.671 -0.4917  1.1557  0.3578
11571TIP3    H156128   1.545   1.058  16.642 -0.4464  0.6972  0.1458
11571TIP3    H256129   1.410   1.014  16.590 -0.0175 -1.3997  0.7610
11572TIP3   OH256130   5.698   4.054  11.210  0.1378 -0.2361  0.3208
11572TIP3    H156131   5.613   4.051  11.167  0.0069  0.0119  0.5554
11572TIP3    H256132   5.754   3.997  11.158  0.2307  0.8157 -0.7364
11573TIP3   OH256133   4.938   2.216   3.836 -0.0874  0.2398  0.0448
11573TIP3    H156134   4.963   2.138   3.885 -0.6224  0.8144  1.2631
11573TIP3    H256135   4.996   2.285   3.868 -0.8488  0.7624  0.3400
11574TIP3   OH256136   5.636   1.473  16.219  0.6220 -0.9456 -0.0248
11574TIP3    H156137   5.698   1.537  16.254 -0.2679 -0.2355  0.2918
11574TIP3    H256138   5.623   1.410  16.289 -0.1294 -0.2764  0.4433
11575TIP3   OH256139   1.070   0.857  14.180 -0.1954 -0.2033  0.0821
11575TIP3    H156140   1.069   0.946  14.145 -0.7134 -0.3456 -0.2708
11575TIP3    H256141   1.080   0.869  14.275  1.4788  0.1716 -0.1277
11576TIP3   OH256142   6.478   1.286  17.077 -0.1301  0.6318  0.3751
11576TIP3    H156143   6.544   1.303  17.144  3.1987  1.9994 -3.0855
11576TIP3    H256144   6.478   1.190  17.068  0.0153  0.5008  1.7057
11577TIP3   OH256145   6.291   5.171   4.209 -0.1331  0.5094 -0.2461
11577TIP3    H156146   6.364   5.200   4.263  0.3799  0.1691 -0.7480
11577TIP3    H256147   6.315   5.195   4.120 -1.1759  1.4697 -0.2855
11578TIP3   OH256148   2.329   3.546   5.974 -0.3201 -0.3845 -0.0884
11578TIP3    H156149   2.271   3.492   5.920  0.4562 -1.1029 -0.2027
11578TIP3    H256150   2.292   3.634   5.968 -1.0403 -0.7220 -0.6629
11579TIP3   OH256151   6.132   5.937  11.714 -0.1600 -0.2596  0.2749
11579TIP3    H156152   6.072   5.967  11.646 -1.0022 -1.3037  0.5469
11579TIP3    H256153   6.155   6.016  11.763 -0.9570  0.2112 -0.1152
11580TIP3   OH256154   5.684   4.562  15.765 -0.8577 -0.2206 -0.2616
11580TIP3    H156155   5.747   4.490  15.757 -0.1695  0.3496  0.0611
11580TIP3    H256156   5.702   4.618  15.690 -0.9158 -0.0044 -0.1136
11581TIP3   OH256157   1.824   2.394   4.746 -0.9312 -0.1120 -0.1260
11581TIP3    H156158   1.787   2.308   4.764  1.2820 -1.2170 -0.6681
11581TIP3    H256159   1.822   2.440   4.830  1.6532 -2.1866  1.1010
11582TIP3   OH256160   4.309   5.541  11.899  0.1534  0.5365  0.3178
11582TIP3    H156161   4.385   5.491  11.930  1.3561  0.6681 -2.3432
11582TIP3    H256162   4.238   5.476  11.893  0.5246  0.0519  1.0752
11583TIP3   OH256163   2.372   2.654  15.671 -0.3469  0.0119 -0.2255
11583TIP3    H156164   2.361   2.744  15.640  0.7121 -0.1338 -1.0218
11583TIP3    H256165   2.465   2.646  15.690 -0.1899 -1.3255 -1.4584
11584TIP3   OH256166   6.742   0.537   6.358 -0.4442 -0.3690 -0.7721
11584TIP3    H156167   6.815   0.475   6.355  1.0830  1.3047  0.3036
11584TIP3    H256168   6.705   0.527   6.445  0.4426  0.9140 -0.2381
11585TIP3   OH256169   1.066   1.820   1.329 -0.6298 -0.0422  0.0644
11585TIP3    H156170   1.055   1.867   1.247  1.6095  0.6612  0.1331
11585TIP3    H256171   1.024   1.876   1.395 -2.9121 -0.8669 -0.6294
11586TIP3   OH256172   6.431   6.634   1.974  0.5009  0.0014 -0.0501
11586TIP3    H156173   6.422   6.723   1.940 -2.0863  0.4517  1.6585
11586TIP3    H256174   6.352   6.589   1.944  0.7502 -1.1070  0.9335
11587TIP3   OH256175   4.254   1.651  13.412 -0.2604 -0.0320 -0.0331
11587TIP3    H156176   4.262   1.634  13.506 -1.7715  1.3475  0.3593
11587TIP3    H256177   4.252   1.746  13.405 -0.2710 -0.1247 -1.4630
11588TIP3   OH256178   4.635   2.439  12.232  0.4297 -0.0418 -0.0519
11588TIP3    H156179   4.613   2.533  12.230  1.9887  0.3212 -2.1121
11588TIP3    H256180   4.614   2.408  12.144  1.9190 -1.1437 -0.0351
11589TIP3   OH256181   4.489   1.873  11.181 -0.2836  0.0739  0.1093
11589TIP3    H156182   4.414   1.813  11.176  0.0907 -0.4287  0.4804
11589TIP3    H256183   4.488   1.919  11.098 -0.1410 -0.9662 -0.4771
11590TIP3   OH256184   4.224   2.337   5.299  0.0039 -0.0754  0.2005
11590TIP3    H156185   4.257   2.353   5.210  0.4313  1.1686  0.5836
11590TIP3    H256186   4.302   2.335   5.354 -0.1985 -1.5089  0.4751
11591TIP3   OH256187   5.016   6.072   2.712 -0.0632  0.4344  0.0322
11591TIP3    H156188   5.106   6.072   2.745  0.0720 -1.6974 -0.2649
11591TIP3    H256189   5.021   6.120   2.629  0.7740  0.4278  0.0740
11592TIP3   OH256190   2.564   4.074   3.508 -0.5502 -0.1216 -0.1785
11592TIP3    H156191   2.647   4.029   3.493 -0.6629 -0.6490  0.7435
11592TIP3    H256192   2.545   4.059   3.600 -1.2739  0.6774 -0.1899
11593TIP3   OH256193   4.371   6.706   4.225 -0.6575  0.2643  0.0779
11593TIP3    H156194   4.454   6.698   4.271 -0.6290 -1.5340 -0.2659
11593TIP3    H256195   4.310   6.654   4.278 -1.0276 -0.3253 -0.9194
11594TIP3   OH256196   1.799   2.389  13.120  0.8443 -0.3511 -0.2816
11594TIP3    H156197   1.851   2.420  13.194 -1.6270 -1.5672  2.0403
11594TIP3    H256198   1.864   2.354  13.058  3.2194  3.6560 -0.2816
11595TIP3   OH256199   0.792   5.242   2.042 -0.2362 -0.0870  0.0214
11595TIP3    H156200   0.778   5.184   2.116 -0.9970 -0.4521 -0.4019
11595TIP3    H256201   0.789   5.330   2.079  0.7746 -0.3042  0.6381
11596TIP3   OH256202   4.218   0.142   1.685  0.1103  0.3225 -0.7818
11596TIP3    H156203   4.261   0.072   1.636  3.1678  2.5926 -1.4573
11596TIP3    H256204   4.263   0.222   1.658 -0.6387  2.1160  2.9144
11597TIP3   OH256205   1.865   4.776   4.628  0.3236 -0.1778  0.1820
11597TIP3    H156206   1.782   4.729   4.628 -0.3154  0.9340  1.0239
11597TIP3    H256207   1.931   4.708   4.644  0.0260 -1.7117 -4.4109
11598TIP3   OH256208   5.124   1.011  12.954  0.1158  0.2432  0.2802
11598TIP3    H156209   5.054   0.960  12.994 -0.1223 -0.1712 -0.6284
11598TIP3    H256210   5.128   1.092  13.005 -0.2933 -0.1908  1.0093
11599TIP3   OH256211   2.568   0.027  11.326 -0.0934 -0.5204  0.2925
11599TIP3    H156212   2.610  -0.056  11.349 -1.1620 -0.8443  1.1073
11599TIP3    H256213   2.591   0.041  11.234 -3.0920 -3.6894 -1.0417
11600TIP3   OH256214   0.348   1.912  14.236 -0.1180  0.0118  0.0672
11600TIP3    H156215   0.388   1.959  14.308 -0.5103  0.7193 -0.1750
11600TIP3    H256216   0.258   1.945  14.232 -0.2036 -0.2746 -0.5251
11601TIP3   OH256217   0.079   5.129  14.446 -0.5873 -0.5689  0.1217
11601TIP3    H156218   0.083   5.059  14.511 -0.1651 -0.0178  0.7017
11601TIP3    H256219   0.102   5.208  14.496  0.6943 -0.2800 -0.8945
11602TIP3   OH256220   3.433   1.608   3.285 -0.0674  0.1521  0.0450
11602TIP3    H156221   3.356   1.556   3.262 -0.7683  0.1521  2.2528
11602TIP3    H256222   3.498   1.585   3.219 -1.8124 -0.1711 -1.6076
11603TIP3   OH256223   3.106   4.354   4.367  0.1690  0.0457 -0.7155
11603TIP3    H156224   3.075   4.413   4.298  0.0411 -1.5922 -2.0695
11603TIP3    H256225   3.139   4.413   4.435  0.5127  1.6782 -2.2527
11604TIP3   OH256226   2.856   2.940   1.477 -0.1241 -0.3172 -0.1356
11604TIP3    H156227   2.901   2.956   1.394  2.9868  2.8863  1.9900
11604TIP3    H256228   2.801   3.017   1.491  0.4925 -0.1235  1.4061
11605TIP3   OH256229   0.543   3.578  14.503  0.0262  0.5443 -0.1008
11605TIP3    H156230   0.526   3.641  14.573 -1.3411  0.7027 -0.5712
11605TIP3    H256231   0.459   3.535  14.488  0.2627  0.6334 -1.7742
11606TIP3   OH256232   4.483   4.915  14.435 -0.5144 -0.3154  0.2152
11606TIP3    H156233   4.416   4.858  14.475 -2.1151  1.9817  0.9404
11606TIP3    H256234   4.536   4.944  14.509 -0.0769 -0.3604 -0.0793
11607TIP3   OH256235   6.633   1.282   3.432  0.2186  0.7669  0.0587
11607TIP3    H156236   6.726   1.266   3.448  0.5574  0.6139 -1.8796
11607TIP3    H256237   6.620   1.375   3.454  1.7619  1.8902 -3.3371
11608TIP3   OH256238   1.763   2.344   0.962 -0.2849  0.0610  0.5513
11608TIP3    H156239   1.849   2.345   0.920 -1.0147 -0.2247 -0.9999
11608TIP3    H256240   1.714   2.277   0.913 -1.3779  0.2041  1.4344
11609TIP3   OH256241   1.194   0.466  16.018 -0.8411 -0.0625 -0.0466
11609TIP3    H156242   1.277   0.451  15.973 -0.4062  0.7916  0.4447
11609TIP3    H256243   1.139   0.392  15.994 -0.7353  0.5425 -2.2621
11610TIP3   OH256244   6.740   4.049  12.945 -0.8015  0.0265 -0.4088
11610TIP3    H156245   6.690   4.053  12.863 -0.5850 -0.1071 -0.5456
11610TIP3    H256246   6.676   4.017  13.009 -0.3140 -2.3434 -1.0511
11611TIP3   OH256247   4.747   3.207  12.706 -0.1521 -0.0072 -0.3295
11611TIP3    H156248   4.830   3.237  12.669 -0.2968 -0.6488 -1.1731
11611TIP3    H256249   4.698   3.172  12.632 -0.7995 -0.4961  0.3192
11612TIP3   OH256250   6.354   0.881   4.021 -0.4598  0.3536  0.4220
11612TIP3    H156251   6.274   0.888   3.969 -0.6918 -0.9147  0.5720
11612TIP3    H256252   6.387   0.793   4.001  2.5376  1.9165 -1.9542
11613TIP3   OH256253   0.208   4.209  11.780 -0.2674  0.4254  0.0323
11613TIP3    H156254   0.211   4.152  11.704 -1.9913 -0.1554  0.3941
11613TIP3    H256255   0.289   4.189  11.828  0.0621 -0.3226 -0.8235
11614TIP3   OH256256   3.216   2.529   4.810 -0.4029  0.6669  0.2397
11614TIP3    H156257   3.288   2.526   4.873  0.2223  1.6236 -0.4248
11614TIP3    H256258   3.141   2.495   4.859  0.6838 -1.2221  0.6539
11615TIP3   OH256259   3.359   1.067   0.826 -0.5673 -0.3187  0.0993
11615TIP3    H156260   3.450   1.072   0.798 -1.1311 -0.2389 -1.7918
11615TIP3    H256261   3.360   1.101   0.916  1.1887  0.0764 -0.0469
11616TIP3   OH256262   5.991   4.371   5.087 -0.2554 -0.1147 -0.3186
11616TIP3    H156263   6.053   4.369   5.160 -0.4791  0.9660 -0.0876
11616TIP3    H256264   5.993   4.282   5.051  1.3768 -0.1242 -0.2604
11617TIP3   OH256265   3.445   2.568   4.351 -0.9798 -0.2679 -0.0441
11617TIP3    H156266   3.382   2.559   4.423  0.4914  0.7704  1.4227
11617TIP3    H256267   3.519   2.512   4.377  0.3451  1.5413  0.1811
11618TIP3   OH256268   2.736   5.818  13.987 -0.2557 -0.7378  0.5979
11618TIP3    H156269   2.739   5.877  14.062 -0.3652  0.2984 -0.2001
11618TIP3    H256270   2.643   5.813  13.965 -0.2048 -0.8888  0.4209
11619TIP3   OH256271   4.449   0.527   0.505  0.5136 -0.3205  0.2677
11619TIP3    H156272   4.359   0.541   0.478 -0.4880  0.0494  3.5655
11619TIP3    H256273   4.457   0.432   0.516  0.4239 -0.3235  0.3053
11620TIP3   OH256274   0.263   4.531  16.612 -0.3980 -0.1716  0.4304
11620TIP3    H156275   0.290   4.446  16.578  0.8523 -0.0708  1.1544
11620TIP3    H256276   0.326   4.593  16.574 -0.3968  0.2375  1.0899
11621TIP3   OH256277   2.403   1.887  10.578  0.1676  0.1160  0.0022
11621TIP3    H156278   2.326   1.833  10.558 -0.6395  0.7935  1.2246
11621TIP3    H256279   2.386   1.922  10.665  1.4511  1.0163 -0.0904
11622TIP3   OH256280   0.619   2.427   2.232 -0.0566  0.4658 -0.2578
11622TIP3    H156281   0.562   2.352   2.250  1.1173 -0.9216 -2.1231
11622TIP3    H256282   0.680   2.429   2.306 -1.3576  0.8590  0.8324
11623TIP3   OH256283   4.856   4.203   4.777 -0.3154 -0.8269  0.5774
11623TIP3    H156284   4.828   4.186   4.867 -0.1115 -2.6209  0.3173
11623TIP3    H256285   4.838   4.296   4.763  1.2844 -0.1093  3.0557
11624TIP3   OH256286   4.903   4.153   5.158  0.5675  0.5683 -0.3123
11624TIP3    H156287   4.862   4.073   5.189 -1.5810  1.2238 -1.3536
11624TIP3    H256288   4.831   4.206   5.124  2.2851  1.7381 -2.2786
11625TIP3   OH256289   3.020   5.756  15.395  0.3485  0.4897  0.4291
11625TIP3    H156290   2.945   5.813  15.414  0.3955  0.3750  0.9652
11625TIP3    H256291   3.023   5.752  15.299 -0.8900 -0.2223  0.4054
11626TIP3   OH256292   2.448   4.687   4.921 -0.0677  0.0349  0.5295
11626TIP3    H156293   2.377   4.625   4.941  2.4230 -1.9857  3.5856
11626TIP3    H256294   2.491   4.650   4.843  0.5927 -1.4041  1.5603
11627TIP3   OH256295   2.877   5.950  13.787 -0.2197  0.5340  0.4017
11627TIP3    H156296   2.809   5.888  13.815  0.0405 -0.6149 -1.3991
11627TIP3    H256297   2.959   5.902  13.800  0.1701  1.4299  1.3201
11628TIP3   OH256298   6.525   1.153   2.729 -0.4300 -0.1135 -0.0361
11628TIP3    H156299   6.501   1.189   2.815  0.0939 -1.1970  0.5790
11628TIP3    H256300   6.526   1.229   2.671 -0.8204  0.6358  0.9152
11629TIP3   OH256301   4.241   0.178  14.354  0.0196  0.3857  0.1375
11629TIP3    H156302   4.258   0.169  14.260 -0.2319  1.0583  0.0209
11629TIP3    H256303   4.319   0.143  14.396 -0.0177 -0.2634 -0.3178
11630TIP3   OH256304   4.008   4.173  16.540  0.7430 -0.3396  0.0216
11630TIP3    H156305   3.983   4.163  16.448  0.1850 -0.2763  0.1622
11630TIP3    H256306   3.932   4.141  16.589  0.3322  1.2638  0.4651
11631TIP3   OH256307   0.986   1.684  15.375 -0.1631  0.0547 -0.6988
11631TIP3    H156308   1.003   1.598  15.336  1.1263 -0.0600  0.1133
11631TIP3    H256309   1.008   1.674  15.468 -2.1134  0.6518 -0.1479
11632TIP3   OH256310   3.461   0.050   5.125  0.0166 -0.4893 -0.6048
11632TIP3    H156311   3.429   0.134   5.158 -0.9817 -1.6577  1.5067
11632TIP3    H256312   3.554   0.049   5.148 -0.2677 -0.5105  0.5769
11633TIP3   OH256313   5.148   3.052  14.165  0.0574  0.0710 -0.3340
11633TIP3    H156314   5.130   2.966  14.129  0.7788 -0.7049  1.1018
11633TIP3    H256315   5.149   3.110  14.089 -1.4086 -1.0060 -1.2072
11634TIP3   OH256316   5.181   3.229  12.369  0.8089  0.1529 -0.0500
11634TIP3    H156317   5.220   3.150  12.407  0.5272 -0.2489 -0.5918
11634TIP3    H256318   5.141   3.199  12.288 -0.5254  0.5683  0.4373
11635TIP3   OH256319   4.940   2.089  15.139 -0.1974  0.6259  0.3534
11635TIP3    H156320   4.885   2.062  15.065 -0.0446  0.4693  0.2947
11635TIP3    H256321   4.943   2.012  15.196  0.6879  0.3358 -0.0840
11636TIP3   OH256322   2.449   1.851  12.520  0.3354  0.3202  0.1402
11636TIP3    H156323   2.424   1.844  12.427 -0.4318 -3.1690  0.5286
11636TIP3    H256324   2.367   1.838  12.567  0.9319  0.8254  1.3160
11637TIP3   OH256325   2.760   1.265   1.184  0.4722  0.1319  0.1325
11637TIP3    H156326   2.847   1.227   1.199 -0.0763 -1.1115  0.2523
11637TIP3    H256327   2.745   1.256   1.090  1.2472  2.0984 -0.2159
11638TIP3   OH256328   0.837   4.415   0.377  0.2761  0.1567 -0.7593
11638TIP3    H156329   0.926   4.450   0.384 -0.8124  2.8343  0.4582
11638TIP3    H256330   0.793   4.475   0.317 -0.8395 -0.8798 -0.9809
11639TIP3   OH256331   4.688   5.233  12.302 -0.1487  0.0209  0.1678
11639TIP3    H156332   4.622   5.237  12.372  0.4526  1.2911  0.6881
11639TIP3    H256333   4.754   5.297  12.329  0.8805 -0.6402 -0.7743
11640TIP3   OH256334   6.034   1.263   1.603 -0.2208 -0.0719 -0.1669
11640TIP3    H156335   6.112   1.210   1.590 -0.7287 -0.9513  0.3467
11640TIP3    H256336   5.996   1.272   1.516 -1.9573 -3.3874  0.1549
11641TIP3   OH256337   0.390   1.042  11.267  0.1257  0.3734  0.5802
11641TIP3    H156338   0.471   1.091  11.256 -0.2220  0.8485  0.1102
11641TIP3    H256339   0.378   1.036  11.362  0.7877  0.1602  0.6534
11642TIP3   OH256340   4.286   6.568   1.277 -0.7217 -0.1367  0.0129
11642TIP3    H156341   4.253   6.479   1.265  0.8386 -0.4885 -1.9944
11642TIP3    H256342   4.381   6.558   1.280 -0.4907  1.5595 -1.1152
11643TIP3   OH256343   0.541   3.861   3.331 -0.5009 -0.3133  0.2958
11643TIP3    H156344   0.603   3.797   3.295 -1.9271 -0.5146 -1.8963
11643TIP3    H256345   0.455   3.821   3.317 -1.5321  2.6436 -2.4695
11644TIP3   OH256346   2.298   2.810  17.069  0.1139 -0.5701  0.1889
11644TIP3    H156347   2.324   2.880  17.129  1.8275 -0.1248 -1.0260
11644TIP3    H256348   2.373   2.800  17.010 -0.9118 -2.0642 -0.9052
11645TIP3   OH256349   0.169   0.715   0.605  0.1167  0.4477 -0.4129
11645TIP3    H156350   0.114   0.646   0.568 -0.2445  0.5808 -0.1319
11645TIP3    H256351   0.236   0.669   0.655  0.7443  0.2584 -1.4096
11646TIP3   OH256352   2.889   1.314  12.977  0.0109 -0.4527 -0.3826
11646TIP3    H156353   2.849   1.264  12.906  0.2719  1.5638 -2.0055
11646TIP3    H256354   2.840   1.397  12.978 -1.2938 -1.1489  3.1023
11647TIP3   OH256355   3.482   6.496  13.280  0.1678  0.1714 -0.0928
11647TIP3    H156356   3.450   6.413  13.314 -0.2897  0.8166  1.1015
11647TIP3    H256357   3.417   6.523  13.216  1.7592 -1.7496 -2.6065
11648TIP3   OH256358   5.231   6.166  11.900 -0.1026 -0.4552  0.4721
11648TIP3    H156359   5.208   6.148  11.809 -1.2091 -2.2715  1.0899
11648TIP3    H256360   5.188   6.250  11.919 -1.2758 -0.8920 -0.1891
11649TIP3   OH256361   5.793   2.181   2.790  0.0970  0.3660  0.0066
11649TIP3    H156362   5.790   2.157   2.698  0.3850 -1.1290  0.3762
11649TIP3    H256363   5.881   2.216   2.803  0.4470 -0.4835 -0.0366
11650TIP3   OH256364   2.723   2.011  14.760  0.1548 -0.0906  0.9092
11650TIP3    H156365   2.798   2.019  14.701  0.9734  0.4830  2.0258
11650TIP3    H256366   2.648   2.039  14.707  0.9606  0.9458  0.3113
11651TIP3   OH256367   5.523   4.120   2.573  0.2919  0.8108  0.4146
11651TIP3    H156368   5.448   4.104   2.516 -0.2058  2.2683  0.6316
11651TIP3    H256369   5.508   4.208   2.608  0.7432  0.0364  2.5865
11652TIP3   OH256370   4.712   0.663   0.141  0.2566  0.1170 -0.1845
11652TIP3    H156371   4.636   0.613   0.170  0.1117  0.3445 -0.1738
11652TIP3    H256372   4.787   0.610   0.167  0.0724 -0.7133 -1.2904
11653TIP3   OH256373   5.459   1.441  11.437  0.4065  0.3796  0.6373
11653TIP3    H156374   5.419   1.521  11.404 -1.0754 -0.4373  0.4130
11653TIP3    H256375   5.473   1.458  11.530 -1.8778  0.1456  1.0544
11654TIP3   OH256376   0.396   2.405  12.298  0.3150  0.5758 -0.2460
11654TIP3    H156377   0.362   2.412  12.387  0.5992  1.9530 -0.2375
11654TIP3    H256378   0.322   2.427  12.242  0.5349  1.2041 -0.2970
11655TIP3   OH256379   6.218   2.380  12.728  0.1449 -0.6013 -0.4579
11655TIP3    H156380   6.294   2.437  12.740 -1.3261  1.3592 -0.1705
11655TIP3    H256381   6.253   2.300  12.689  2.4446  0.0028  0.3210
11656TIP3   OH256382   0.561   2.213  14.685  0.1957  0.2895  0.0485
11656TIP3    H156383   0.571   2.253  14.598 -0.6684  0.1982 -0.0923
11656TIP3    H256384   0.638   2.157  14.694  0.3034  0.3199 -0.6495
11657TIP3   OH256385   5.720   6.516  14.980 -0.5892 -0.4353 -0.4333
11657TIP3    H156386   5.653   6.524  15.048 -1.0429  2.6633 -1.1447
11657TIP3    H256387   5.727   6.604  14.943  1.4393 -1.4823 -2.7087
11658TIP3   OH256388   5.226   2.888   1.012  0.6810  0.2423  0.4253
11658TIP3    H156389   5.240   2.807   0.964  1.7467  0.8098 -0.2615
11658TIP3    H256390   5.174   2.943   0.953 -0.1157  0.0289  0.9235
11659TIP3   OH256391   6.243   5.353   4.883 -0.0680 -0.1625  0.5649
11659TIP3    H156392   6.235   5.275   4.828 -0.8752  1.2793 -1.4536
11659TIP3    H256393   6.154   5.368   4.916 -0.1065  0.3801  0.2310
11660TIP3   OH256394   4.248   2.321  16.464 -0.1426  0.4098 -0.0426
11660TIP3    H156395   4.225   2.411  16.439 -0.7486  0.4572  0.6970
11660TIP3    H256396   4.166   2.273  16.459  0.0498  0.0517  0.2484
11661TIP3   OH256397   1.372   1.551   3.282  0.4019  0.3866 -0.0214
11661TIP3    H156398   1.409   1.474   3.240  2.2013  2.6043 -2.7279
11661TIP3    H256399   1.447   1.607   3.301 -1.0251  2.4019 -0.1180
11662TIP3   OH256400   5.480   0.640   3.612 -0.1926  0.2737  0.0790
11662TIP3    H156401   5.444   0.648   3.524  0.7766  1.8311 -0.2142
11662TIP3    H256402   5.496   0.547   3.624  0.3123  0.1137 -1.6821
11663TIP3   OH256403   0.945   4.918   2.608  0.0812 -0.0298  0.1769
11663TIP3    H156404   0.950   4.989   2.671 -0.7871  0.4599 -0.2938
11663TIP3    H256405   1.036   4.897   2.588  0.3671  1.9644 -0.7981
11664TIP3   OH256406   3.939   6.365  10.615 -0.5382 -0.4198  0.1548
11664TIP3    H156407   3.954   6.384  10.707 -0.2603 -0.5515  0.1376
11664TIP3    H256408   3.973   6.276  10.603 -0.1139 -0.2124 -0.1868
11665TIP3   OH256409   5.688   3.255   2.852 -0.4382  0.0544  0.3070
11665TIP3    H156410   5.653   3.332   2.896 -0.4746  0.1590  0.0939
11665TIP3    H256411   5.775   3.281   2.821 -0.0535 -0.2990  1.0931
11666TIP3   OH256412   3.309   0.087   3.141  0.3023  0.4616  0.3650
11666TIP3    H156413   3.399   0.121   3.139  0.2348  0.6883  1.1382
11666TIP3    H256414   3.277   0.099   3.051  0.6181  1.5363  0.3869
11667TIP3   OH256415   0.132   5.713   4.480  0.1640 -0.9313 -0.1200
11667TIP3    H156416   0.206   5.771   4.465  1.0680 -2.2869 -0.9768
11667TIP3    H256417   0.101   5.737   4.567  0.9408  0.3636 -0.1781
11668TIP3   OH256418   4.227   5.075  12.451  0.0280 -0.4870 -0.3592
11668TIP3    H156419   4.275   5.032  12.380  0.4631  3.4861 -2.6245
11668TIP3    H256420   4.286   5.144  12.481 -1.2578 -0.4075  2.0741
11669TIP3   OH256421   2.022   5.830   5.329  0.2691  0.5386  0.3801
11669TIP3    H156422   1.944   5.791   5.290 -0.4255  1.6993  0.5790
11669TIP3    H256423   1.988   5.889   5.397  1.1841  2.5646 -0.8720
11670TIP3   OH256424   2.858   3.702  16.190 -0.8326  0.2444  0.2247
11670TIP3    H156425   2.845   3.737  16.278 -0.9304 -0.0331  0.3207
11670TIP3    H256426   2.883   3.778  16.138 -2.4200  0.7095  0.1210
11671TIP3   OH256427   2.950   3.678   2.886 -0.1366  0.2816 -0.6782
11671TIP3    H156428   2.924   3.736   2.958 -0.1727  1.1050 -1.3575
11671TIP3    H256429   2.867   3.653   2.845 -0.1696 -0.7476 -0.0142
11672TIP3   OH256430   2.784   2.229  16.575  0.4614 -0.3749 -0.3401
11672TIP3    H156431   2.791   2.189  16.489 -0.8773  1.3727 -1.3033
11672TIP3    H256432   2.689   2.231  16.592  0.7032 -0.4844  1.0466
11673TIP3   OH256433   0.774   0.414   6.385  0.4479 -0.4291  0.3784
11673TIP3    H156434   0.748   0.451   6.469 -0.2901 -0.1580  0.0367
11673TIP3    H256435   0.869   0.424   6.383  0.6882 -2.1707  1.9991
11674TIP3   OH256436   4.425   3.433  11.593  0.2611  0.4727  1.1020
11674TIP3    H156437   4.374   3.452  11.514 -1.0135 -0.2877  1.7385
11674TIP3    H256438   4.480   3.359  11.568  0.5410  0.8372  0.6326
11675TIP3   OH256439   2.422   3.863   3.348 -0.7461  0.3941 -0.2180
11675TIP3    H156440   2.380   3.879   3.263 -2.4797  0.8242  0.7048
11675TIP3    H256441   2.456   3.948   3.374 -2.5412  0.8514  0.7301
11676TIP3   OH256442   5.080   2.688   1.547  0.3554 -0.0584 -0.3019
11676TIP3    H156443   5.112   2.599   1.531 -0.1405 -0.0119 -1.6838
11676TIP3    H256444   5.155   2.745   1.528  0.5907 -0.1647  0.3095
11677TIP3   OH256445   4.635   5.870   3.909 -0.2590  0.1546 -0.1321
11677TIP3    H156446   4.702   5.843   3.971 -0.6368  2.2527  1.2641
11677TIP3    H256447   4.660   5.959   3.884 -1.9068  0.5554 -0.4320
11678TIP3   OH256448   1.468   3.846   2.449 -0.5473  0.1038 -0.5165
11678TIP3    H156449   1.537   3.780   2.444  0.3540  1.0588 -0.7762
11678TIP3    H256450   1.486   3.906   2.377 -0.8593  1.1195  0.2376
11679TIP3   OH256451   0.981   2.477  16.312 -0.5016 -0.3345 -0.0529
11679TIP3    H156452   1.018   2.430  16.237 -0.5505 -2.2281  1.0787
11679TIP3    H256453   0.909   2.421  16.342 -1.5068  1.1898  0.4382
11680TIP3   OH256454   3.399   4.688  15.097 -0.1036  0.0354 -0.1154
11680TIP3    H156455   3.479   4.738  15.077 -0.5048  0.8852  0.3671
11680TIP3    H256456   3.417   4.600  15.063  2.5735 -0.8940  3.4468
11681TIP3   OH256457   4.526   1.955   1.305 -0.2477  0.1425  0.4621
11681TIP3    H156458   4.609   1.947   1.352  0.0737  1.6519  0.1728
11681TIP3    H256459   4.474   2.013   1.359  0.2177  2.1054 -1.1517
11682TIP3   OH256460   1.311   4.398   0.714  0.1882  0.1700  0.1316
11682TIP3    H156461   1.389   4.418   0.765 -0.0119 -1.1533  0.9596
11682TIP3    H256462   1.248   4.467   0.737  0.7208  0.5979  0.2972
11683TIP3   OH256463   2.818   6.189  12.714  0.1840 -0.2771 -0.2816
11683TIP3    H156464   2.780   6.135  12.783  0.6287  1.2293  1.1846
11683TIP3    H256465   2.912   6.176  12.722  0.2366 -0.1258 -0.6267
11684TIP3   OH256466   3.947   5.501  11.024 -0.1973  0.3918 -0.2080
11684TIP3    H156467   3.934   5.498  10.929  0.0304  0.9632 -0.2576
11684TIP3    H256468   3.887   5.435  11.058  1.3662 -1.4784 -0.9166
11685TIP3   OH256469   4.776   1.987   3.943 -0.1069  0.3041  0.1416
11685TIP3    H156470   4.811   1.943   4.021 -2.1177 -1.7210 -0.0545
11685TIP3    H256471   4.768   1.918   3.878 -1.5233  1.3359 -0.8033
11686TIP3   OH256472   6.700   1.775   3.006  0.3143  0.4115 -0.6711
11686TIP3    H156473   6.688   1.845   2.942  0.2519 -0.8677 -2.1069
11686TIP3    H256474   6.615   1.769   3.051 -0.2528  0.1060 -1.7560
11687TIP3   OH256475   4.977   2.354  15.047 -0.0931  0.4371 -0.0401
11687TIP3    H156476   4.965   2.264  15.074  1.5380  0.3477  0.4866
11687TIP3    H256477   4.897   2.377  14.999 -0.6242 -1.1858  0.0598
11688TIP3   OH256478   0.097   0.955   6.178 -0.4354 -0.0392 -0.2857
11688TIP3    H156479   0.011   0.995   6.169 -0.7366 -0.1902  1.6035
11688TIP3    H256480   0.121   0.972   6.270  1.1093 -0.8548 -0.5260
11689TIP3   OH256481   5.634   5.255  10.568  0.0042 -0.1996  0.0149
11689TIP3    H156482   5.594   5.307  10.498  0.8648 -0.4746 -0.6972
11689TIP3    H256483   5.622   5.307  10.647  1.5539  1.4615 -0.8134
11690TIP3   OH256484   1.352   2.595  16.891 -0.5355 -0.3277 -0.6780
11690TIP3    H156485   1.370   2.521  16.949 -0.0789  0.0044 -0.3932
11690TIP3    H256486   1.256   2.595  16.881 -0.7295  0.3363  1.0293
11691TIP3   OH256487   0.876   0.958  11.161 -0.0583 -0.0350 -0.0238
11691TIP3    H156488   0.842   0.925  11.244 -0.8821  1.6917  0.3555
11691TIP3    H256489   0.967   0.980  11.179 -0.4509  1.0621  0.6364
11692TIP3   OH256490   5.986   5.574  15.988  0.0964  0.3589  0.3785
11692TIP3    H156491   5.987   5.663  15.954 -1.2335  0.0928 -0.3609
11692TIP3    H256492   5.940   5.581  16.072  2.1112  0.7600  1.5094
11693TIP3   OH256493   2.215   4.650  11.631 -0.1441 -0.1930  0.2385
11693TIP3    H156494   2.196   4.738  11.662  0.5301  0.5692 -1.4385
11693TIP3    H256495   2.193   4.652  11.538 -1.3971 -2.1840  0.4567
11694TIP3   OH256496   3.086   5.408  11.929  0.1587 -0.5718  0.0841
11694TIP3    H156497   3.150   5.424  11.860  0.1458 -0.6748  0.0499
11694TIP3    H256498   3.009   5.374  11.883  0.7560 -2.3181  0.3283
11695TIP3   OH256499   1.426   6.339   4.165 -0.5961  0.0230  0.1668
11695TIP3    H156500   1.385   6.357   4.250 -0.2408 -2.5201  0.9134
11695TIP3    H256501   1.518   6.365   4.177 -1.2089  2.7028 -0.5073
11696TIP3   OH256502   5.612   6.650   1.508 -0.1160 -0.2902 -0.0292
11696TIP3    H156503   5.636   6.680   1.595  0.8202  1.9941 -1.0028
11696TIP3    H256504   5.680   6.687   1.451 -0.6242 -1.8580 -1.6977
11697TIP3   OH256505   3.868   6.779  13.467 -0.2031 -0.6330 -0.2342
11697TIP3    H156506   3.914   6.859  13.443  0.3899 -0.8080  0.3081
11697TIP3    H256507   3.915   6.746  13.543 -1.2687 -0.7850  0.3638
11698TIP3   OH256508   2.829   2.722   0.431  0.1363  0.0945  0.5785
11698TIP3    H156509   2.827   2.808   0.473 -1.4729 -0.2616  1.2961
11698TIP3    H256510   2.784   2.665   0.493 -0.8772 -0.7830 -0.9312
11699TIP3   OH256511   6.562   4.577  16.610  0.0737 -0.6469  0.2642
11699TIP3    H156512   6.626   4.540  16.551 -0.2046  0.6218 -0.8712
11699TIP3    H256513   6.563   4.520  16.687  2.2345 -0.8892  0.0858
11700TIP3   OH256514   3.453   0.424   3.972 -0.0095 -0.5092  0.1316
11700TIP3    H156515   3.511   0.348   3.979  0.4046 -0.0757  1.5611
11700TIP3    H256516   3.473   0.462   3.886  2.6880  0.3152  1.0865
11701TIP3   OH256517   3.002   5.874   2.994 -0.0226 -0.1297  0.0920
11701TIP3    H156518   2.973   5.827   3.072 -1.9397 -1.4824 -1.3793
11701TIP3    H256519   3.064   5.815   2.952  0.1858  0.1358  0.0276
11702TIP3   OH256520   5.626   1.869   3.878 -0.0837  0.1750 -0.1971
11702TIP3    H156521   5.672   1.785   3.886 -1.6087 -0.7156 -0.5245
11702TIP3    H256522   5.655   1.904   3.794  2.1866  0.9972  0.9032
11703TIP3   OH256523   2.335   4.105  16.206  0.1302  0.4282 -0.4072
11703TIP3    H156524   2.315   4.015  16.178  1.1675  0.0224  0.1158
11703TIP3    H256525   2.340   4.100  16.301 -0.0914  1.1111 -0.3566
11704TIP3   OH256526   0.241   6.356   1.880 -0.1587  0.0590  0.3215
11704TIP3    H156527   0.299   6.348   1.804 -0.3287 -1.2651  0.3106
11704TIP3    H256528   0.236   6.450   1.897  0.8927  0.2781 -0.5248
11705TIP3   OH256529   1.131   1.502  14.344  0.0852  0.4781  0.3867
11705TIP3    H156530   1.126   1.406  14.345 -0.5421  0.5218  2.0712
11705TIP3    H256531   1.058   1.529  14.288  0.4282 -0.0334 -0.3142
11706TIP3   OH256532   3.957   2.921  14.386 -0.0897  0.2979  0.0369
11706TIP3    H156533   4.031   2.950  14.332  0.3392 -1.3606 -0.2891
11706TIP3    H256534   3.900   2.874  14.325  0.7847 -2.2995  1.1204
11707TIP3   OH256535   1.471   6.362   5.882 -0.5805 -0.2037 -0.4798
11707TIP3    H156536   1.495   6.295   5.818 -2.0608  0.2248 -1.5104
11707TIP3    H256537   1.551   6.378   5.932  0.8412  0.0710 -2.7884
11708TIP3   OH256538   1.959   3.425   4.305  0.3137  0.3414  0.1303
11708TIP3    H156539   1.886   3.460   4.254  1.4033 -0.7721 -2.2674
11708TIP3    H256540   2.035   3.433   4.248  1.8431  0.2679  2.0898
11709TIP3   OH256541   0.092   2.072  11.633 -0.8427  0.0484  0.3363
11709TIP3    H156542  -0.001   2.092  11.621 -0.5925  0.6025 -0.7798
11709TIP3    H256543   0.134   2.107  11.554  0.1644 -1.1621  0.3234
11710TIP3   OH256544   2.490   1.776  16.557  0.3739  0.2011 -0.1770
11710TIP3    H156545   2.557   1.762  16.624 -0.2884 -1.8833  0.0813
11710TIP3    H256546   2.501   1.703  16.496 -1.2613  0.1738 -0.4617
11711TIP3   OH256547   1.891   2.098   0.599 -0.3615  0.2183  0.3073
11711TIP3    H156548   1.949   2.172   0.617 -0.8747  0.5899  0.4300
11711TIP3    H256549   1.841   2.086   0.679  0.0317 -0.5494  0.4423
11712TIP3   OH256550   3.534   2.336  13.419 -0.4679  0.6178  0.0114
11712TIP3    H156551   3.566   2.380  13.340  0.1021 -0.8590 -0.6096
11712TIP3    H256552   3.479   2.401  13.462  0.3634  1.9366 -0.8559
11713TIP3   OH256553   0.277   0.404  14.943  0.3942  0.0437  0.6162
11713TIP3    H156554   0.191   0.424  14.979  0.3117  2.8602 -1.0539
11713TIP3    H256555   0.333   0.395  15.020 -0.5945  2.0922  1.6071
11714TIP3   OH256556   4.753   4.110  14.687  0.2650 -0.6509 -0.2767
11714TIP3    H156557   4.743   4.087  14.779 -1.2326 -1.1559 -0.5495
11714TIP3    H256558   4.839   4.077  14.663  0.9568  0.0689  1.1057
11715TIP3   OH256559   6.304   1.375   5.464  0.0875 -0.2903 -0.4251
11715TIP3    H156560   6.367   1.367   5.536 -2.1643 -0.3490  1.5925
11715TIP3    H256561   6.276   1.466   5.466 -1.7636 -0.8624  0.3212
11716TIP3   OH256562   3.833   0.645  12.144 -0.2304  0.2994 -0.4025
11716TIP3    H156563   3.829   0.550  12.158 -0.3937  0.3512 -0.1100
11716TIP3    H256564   3.890   0.655  12.068  2.0243  0.1102  1.2177
11717TIP3   OH256565   6.389   1.162   4.397 -0.7245 -0.1208  0.3449
11717TIP3    H156566   6.310   1.213   4.381 -0.0464  1.3620  1.5787
11717TIP3    H256567   6.360   1.071   4.395 -1.5235  0.1063 -4.4150
11718TIP3   OH256568   5.687   4.078   2.267 -0.4653  0.5131  0.3714
11718TIP3    H156569   5.696   4.074   2.362 -0.0753 -0.2734  0.3089
11718TIP3    H256570   5.704   3.988   2.238 -1.0002  0.6572 -0.4051
11719TIP3   OH256571   5.257   1.357   2.282  0.3197 -0.1778  0.1273
11719TIP3    H156572   5.185   1.322   2.229  0.1890 -1.0445  0.8609
11719TIP3    H256573   5.213   1.415   2.345  0.4985  1.0344 -0.8452
11720TIP3   OH256574   5.801   0.701  12.182  0.3116 -0.1379 -0.1783
11720TIP3    H156575   5.878   0.718  12.129  0.6667  2.0154  0.9656
11720TIP3    H256576   5.835   0.682  12.269 -0.3504 -1.7830 -0.2580
11721TIP3   OH256577   0.955   0.185   2.336 -0.2091 -0.1177 -0.1757
11721TIP3    H156578   0.912   0.148   2.259  0.6601 -1.8255  0.1293
11721TIP3    H256579   1.024   0.122   2.358 -0.5042  0.2840  2.0694
11722TIP3   OH256580   4.719   5.550  10.800 -0.8743 -0.0022 -0.1339
11722TIP3    H156581   4.744   5.616  10.736 -0.5091  1.0746  1.0880
11722TIP3    H256582   4.646   5.503  10.760 -0.7449  0.7467 -1.2661
11723TIP3   OH256583   5.360   3.885  12.771  0.0126  0.0179 -0.1461
11723TIP3    H156584   5.389   3.843  12.852  0.4236 -1.9928 -1.2989
11723TIP3    H256585   5.439   3.928  12.737  0.6800 -1.8249 -1.0647
11724TIP3   OH256586   5.125   0.553   1.100 -0.4477  0.1408  0.3203
11724TIP3    H156587   5.043   0.529   1.055  0.0168 -0.9803  0.0467
11724TIP3    H256588   5.097   0.575   1.189 -0.9884 -0.8811  0.4189
11725TIP3   OH256589   0.123   2.267  16.101  0.1763 -0.2806 -0.7641
11725TIP3    H156590   0.213   2.235  16.109  0.6106  1.3139  0.9200
11725TIP3    H256591   0.071   2.201  16.146  0.2399 -2.1729 -3.3272
11726TIP3   OH256592   3.255   6.725  12.033  0.7014  0.5546  0.3404
11726TIP3    H156593   3.298   6.659  11.980 -1.2471 -1.7573  1.5282
11726TIP3    H256594   3.275   6.701  12.123 -1.6253  0.3918  0.8520
11727TIP3   OH256595   2.291   3.970   1.681  0.0956  0.2443 -0.0146
11727TIP3    H156596   2.247   3.887   1.697 -0.3215  0.6324  0.9421
11727TIP3    H256597   2.262   4.026   1.753  1.9590  0.5946  0.4792
11728TIP3   OH256598   2.737   1.042  12.364  0.3890 -0.4289  0.4677
11728TIP3    H156599   2.716   0.987  12.289  1.3327 -0.5444  0.2891
11728TIP3    H256600   2.687   1.123  12.348  2.4367  0.4959 -1.5223
11729TIP3   OH256601   6.388   6.376   3.732 -0.1772  0.0734  0.2329
11729TIP3    H156602   6.331   6.438   3.687  0.7538  1.0297  0.3725
11729TIP3    H256603   6.330   6.302   3.753 -1.6429  1.5149  1.3558
11730TIP3   OH256604   3.860   4.980   2.126 -0.3662 -0.6217 -0.3171
11730TIP3    H156605   3.858   5.066   2.083 -0.8429 -0.9710 -0.9911
11730TIP3    H256606   3.862   5.001   2.220 -1.0792  0.1229 -0.4615
11731TIP3   OH256607   0.613   2.921  13.663 -0.3660 -0.2346 -0.5659
11731TIP3    H156608   0.555   2.867  13.718  1.7018 -0.1403  1.8302
11731TIP3    H256609   0.673   2.857  13.624  0.6779  0.0790  0.4975
11732TIP3   OH256610   6.058   0.492   5.322 -0.3924  0.1395  0.6675
11732TIP3    H156611   6.036   0.400   5.331  0.4252 -0.0539  0.7356
11732TIP3    H256612   6.039   0.512   5.230 -1.1048  0.0475  0.7968
11733TIP3   OH256613   0.008   3.051  11.810  0.2342  0.1039  0.9099
11733TIP3    H156614   0.021   3.090  11.724 -0.8852 -0.3873  0.5062
11733TIP3    H256615  -0.054   3.110  11.854  0.5908  0.2072  1.2784
11734TIP3   OH256616   3.263   0.630  16.427  0.0297 -0.0365  0.2861
11734TIP3    H156617   3.299   0.709  16.386  0.2104 -0.0685  0.3805
11734TIP3    H256618   3.239   0.574  16.353  1.0457 -0.4009  0.2262
11735TIP3   OH256619   0.893   2.291   1.779 -0.6097  0.1776 -0.0369
11735TIP3    H156620   0.910   2.201   1.805  0.5340  0.5046  0.3725
11735TIP3    H256621   0.808   2.312   1.817 -0.7770 -0.6551  0.0429
11736TIP3   OH256622   2.229   6.287   6.606  0.1908 -0.0886  0.3778
11736TIP3    H156623   2.244   6.290   6.700 -0.7600 -3.1028  0.6531
11736TIP3    H256624   2.191   6.201   6.590  1.5667 -0.1385 -2.9472
11737TIP3   OH256625   1.158   3.440   3.948 -0.0689  0.0982  0.0216
11737TIP3    H156626   1.253   3.444   3.948  0.0834 -2.4810 -1.7442
11737TIP3    H256627   1.134   3.436   4.041  1.3080  3.8727  0.6201
11738TIP3   OH256628   2.528   6.431   2.078 -0.0252  0.0827  0.2854
11738TIP3    H156629   2.488   6.484   2.147 -0.6521 -1.2056  0.9334
11738TIP3    H256630   2.620   6.424   2.104  0.2088  1.3464 -0.1346
11739TIP3   OH256631   1.457   1.193   4.382  0.2436  0.4776 -0.2892
11739TIP3    H156632   1.534   1.169   4.332  0.1546  0.1271 -0.2635
11739TIP3    H256633   1.488   1.204   4.472 -0.1064 -1.8270  0.1513
11740TIP3   OH256634   1.115   2.422   5.097  0.0935 -0.3528 -0.3037
11740TIP3    H156635   1.030   2.398   5.059 -0.5046 -0.7311  1.2557
11740TIP3    H256636   1.106   2.514   5.121 -0.8809 -1.1290  2.4846
11741TIP3   OH256637   1.927   2.534   1.076 -0.9876  0.0113  0.6890
11741TIP3    H156638   1.950   2.573   0.992  1.5936 -0.9573  0.8708
11741TIP3    H256639   1.847   2.484   1.058 -2.0179  2.0144 -0.4954
11742TIP3   OH256640   4.157   0.839  15.864  0.8550  0.6122  0.1256
11742TIP3    H156641   4.166   0.897  15.788 -0.1166  0.7560  0.1193
11742TIP3    H256642   4.241   0.792  15.868  1.2492  1.2574 -0.4910
11743TIP3   OH256643   0.850   0.988  14.634  0.0164 -0.0807  0.1951
11743TIP3    H156644   0.775   0.997  14.693  0.2945  0.8693  0.4154
11743TIP3    H256645   0.887   1.076  14.630 -0.1861 -0.0670 -1.6350
11744TIP3   OH256646   3.303   5.763   2.895 -0.2097 -0.1536  0.1987
11744TIP3    H156647   3.329   5.854   2.880  2.4819 -1.2715 -2.5693
11744TIP3    H256648   3.262   5.736   2.812 -4.4580 -0.4144  2.2691
11745TIP3   OH256649   1.777   3.343   5.064  0.7254 -0.4496  0.0836
11745TIP3    H156650   1.760   3.386   4.980 -0.2417 -1.1760 -0.1057
11745TIP3    H256651   1.693   3.348   5.110  0.9546 -1.0183  0.5709
11746TIP3   OH256652   2.909   2.576   5.097  0.1116  0.4447 -0.4024
11746TIP3    H156653   2.924   2.537   5.011  0.2911 -1.1827  0.3312
11746TIP3    H256654   2.877   2.503   5.150 -0.3391  1.5137  0.8107
11747TIP3   OH256655   2.593   0.644   4.337  0.1569 -0.0968 -0.0077
11747TIP3    H156656   2.624   0.734   4.342 -0.5095  0.1215  0.1552
11747TIP3    H256657   2.625   0.612   4.252 -1.4315  0.9593 -1.0080
11748TIP3   OH256658   5.759   0.268   0.785  0.1741 -0.0129  0.3096
11748TIP3    H156659   5.672   0.304   0.801 -0.4104 -1.1852 -0.1796
11748TIP3    H256660   5.799   0.264   0.871 -0.3749  0.2373  0.5815
11749TIP3   OH256661   1.356   3.820   0.740 -0.4959 -0.4391  0.5431
11749TIP3    H156662   1.310   3.746   0.701  0.3318 -0.3845 -0.5778
11749TIP3    H256663   1.448   3.804   0.719 -0.4122  1.3835 -0.5464
11750TIP3   OH256664   4.185   1.273   4.954 -0.0889  0.1161 -0.0394
11750TIP3    H156665   4.219   1.202   4.900 -0.6750  0.6080 -1.0751
11750TIP3    H256666   4.172   1.346   4.892 -0.2179  0.8681  0.8650
11751TIP3   OH256667   2.633   1.517   1.227  0.2572 -0.0323  0.2855
11751TIP3    H156668   2.715   1.564   1.241  0.4491  0.3481 -1.9464
11751TIP3    H256669   2.660   1.428   1.203 -0.0280 -0.3921  1.2804
11752TIP3   OH256670   1.207   3.072  11.952  0.1481  0.9022  0.4146
11752TIP3    H156671   1.201   3.083  11.857  3.4153 -0.8391 -0.0670
11752TIP3    H256672   1.157   2.993  11.971 -1.9023  2.1666  0.4134
11753TIP3   OH256673   0.340   1.815  14.727 -0.1020 -0.5098 -0.4824
11753TIP3    H156674   0.274   1.755  14.692 -3.0456  1.2979  1.7852
11753TIP3    H256675   0.356   1.877  14.657 -0.8845 -0.9015 -1.0129
11754TIP3   OH256676   5.452   5.348   0.370 -0.0435 -0.2947  0.1475
11754TIP3    H156677   5.478   5.288   0.440 -0.2378  0.8649  1.2045
11754TIP3    H256678   5.377   5.395   0.404  0.5659  1.0876 -0.4039
11755TIP3   OH256679   6.490   4.777   1.955  0.2682 -0.4039 -0.5693
11755TIP3    H156680   6.477   4.683   1.950 -0.7629 -0.3675  1.2009
11755TIP3    H256681   6.448   4.803   2.037 -1.0173  1.8469 -1.8822
11756TIP3   OH256682   5.413   6.145  16.435  0.4858  0.0137 -0.0749
11756TIP3    H156683   5.350   6.094  16.385 -0.1505  1.7003 -1.0477
11756TIP3    H256684   5.486   6.159  16.375  1.6268 -1.6005  0.9175
11757TIP3   OH256685   1.585   6.648  11.085 -0.4594  0.8625  0.1477
11757TIP3    H156686   1.533   6.660  11.165 -0.1250  0.0944  0.4842
11757TIP3    H256687   1.523   6.666  11.014 -1.2634 -0.3195  0.5386
11758TIP3   OH256688   4.232   2.508  13.673 -0.1417  0.1142  0.2491
11758TIP3    H156689   4.193   2.539  13.591  1.3797 -0.0522 -0.5600
11758TIP3    H256690   4.240   2.413  13.660  0.6122  0.1627  0.3710
11759TIP3   OH256691   0.624   3.311   3.593 -0.0241 -0.1760 -0.3720
11759TIP3    H156692   0.706   3.351   3.563 -2.1882  2.5670 -3.0266
11759TIP3    H256693   0.590   3.373   3.658 -0.0339 -1.2725  0.6759
11760TIP3   OH256694   1.647   3.142   3.051  0.2212  0.2288 -0.2595
11760TIP3    H156695   1.687   3.144   2.964  0.9497 -0.5645  0.0465
11760TIP3    H256696   1.583   3.213   3.050  0.8144  0.7581 -1.1663
11761TIP3   OH256697   1.923   2.381   4.146  0.5512 -0.3737 -0.2447
11761TIP3    H156698   1.858   2.433   4.099 -0.6003 -0.9460  0.6688
11761TIP3    H256699   1.989   2.444   4.175  0.3016  0.2461 -1.0081
11762TIP3   OH256700   1.256   4.648   1.286  0.3611  0.1455  0.1651
11762TIP3    H156701   1.307   4.577   1.326  1.1753  0.6155 -0.0377
11762TIP3    H256702   1.320   4.697   1.234 -0.5602 -0.0452 -1.1487
11763TIP3   OH256703   5.081   0.099  10.819  0.2165 -0.3339 -0.1777
11763TIP3    H156704   5.026   0.067  10.748  0.7479  1.3037 -1.3563
11763TIP3    H256705   5.029   0.083  10.898 -0.4034 -2.1099 -0.9173
11764TIP3   OH256706   1.320   4.542  13.708 -0.2659  0.1126  0.1477
11764TIP3    H156707   1.408   4.562  13.676  0.4992  0.5502  2.4209
11764TIP3    H256708   1.282   4.628  13.725 -0.2334 -0.1317  1.4822
11765TIP3   OH256709   4.801   6.512   0.094 -0.3388 -0.3389 -0.0573
11765TIP3    H156710   4.717   6.548   0.064 -0.9873 -1.0223  0.8825
11765TIP3    H256711   4.776   6.447   0.160  1.1234  2.8565  3.8065
11766TIP3   OH256712   5.617   2.514  11.868 -0.2231 -0.1864 -0.0358
11766TIP3    H156713   5.647   2.584  11.809  1.3038 -0.1844  0.6982
11766TIP3    H256714   5.698   2.481  11.907 -0.8714 -2.7859 -0.8249
11767TIP3   OH256715   0.872   4.323   4.414  0.3991 -0.6033 -0.3634
11767TIP3    H156716   0.798   4.378   4.440  0.8160 -0.8881  1.5267
11767TIP3    H256717   0.891   4.271   4.492  1.8222 -1.3930 -1.2244
11768TIP3   OH256718   6.145   2.172   5.928 -0.7606  0.0753  0.3060
11768TIP3    H156719   6.239   2.185   5.924 -0.6834 -0.6032 -0.2908
11768TIP3    H256720   6.132   2.108   5.999 -0.8669  0.9639  1.0946
11769TIP3   OH256721   3.073   4.264  13.852  0.6656 -0.2639 -0.0194
11769TIP3    H156722   3.164   4.233  13.848  0.3131 -1.4253  0.5168
11769TIP3    H256723   3.039   4.225  13.933 -1.1365 -2.1860 -1.6503
11770TIP3   OH256724   4.573   4.777   1.831 -0.3700  0.4831 -0.1974
11770TIP3    H156725   4.665   4.804   1.830 -0.2046 -0.0776 -0.3797
11770TIP3    H256726   4.563   4.732   1.915  0.1403 -1.5378 -1.1794
11771TIP3   OH256727   6.396   4.110  17.191 -0.1147  0.4692 -0.1162
11771TIP3    H156728   6.406   4.067  17.106  1.2165  3.4630 -1.5732
11771TIP3    H256729   6.459   4.183  17.188 -1.6245  1.9564  2.5601
11772TIP3   OH256730   1.636   0.029   3.563 -0.2852  0.1163 -0.1214
11772TIP3    H156731   1.633  -0.066   3.557 -1.6467  0.0829  0.8836
11772TIP3    H256732   1.693   0.047   3.637  0.1413  0.0963 -0.4412
11773TIP3   OH256733   1.255   1.526   1.146 -0.4521  0.1220 -0.5090
11773TIP3    H156734   1.287   1.442   1.179 -1.2360 -0.5441 -1.4231
11773TIP3    H256735   1.256   1.517   1.051 -3.9720 -0.1928 -0.5694
11774TIP3   OH256736   2.834   4.777  14.026  0.1067  0.1260  0.0989
11774TIP3    H156737   2.925   4.748  14.026  0.0120 -0.1968 -0.5972
11774TIP3    H256738   2.790   4.721  14.089 -0.0495 -1.1857 -1.1531
11775TIP3   OH256739   4.062   6.016   2.356 -0.1448  0.5599 -0.1136
11775TIP3    H156740   3.991   5.960   2.327  1.3728 -1.7438  0.4636
11775TIP3    H256741   4.050   6.098   2.308 -1.8129 -0.6166 -1.7632
11776TIP3   OH256742   1.821   1.059   3.055  0.3941 -0.5142 -0.2534
11776TIP3    H156743   1.793   1.130   3.114 -1.8809 -1.2939 -0.3321
11776TIP3    H256744   1.899   1.093   3.013  0.4585  1.1815  1.1543
11777TIP3   OH256745   4.912   6.519  16.300  0.6025  0.0625  0.2067
11777TIP3    H156746   4.981   6.509  16.364  0.0254  0.7447  0.9443
11777TIP3    H256747   4.952   6.494  16.217  1.0651 -1.8114  0.9654
11778TIP3   OH256748   2.702   0.780   6.369  0.3418 -0.6873 -0.3582
11778TIP3    H156749   2.785   0.800   6.327 -0.5444  0.8359 -1.4156
11778TIP3    H256750   2.698   0.838   6.445 -0.7001  0.7825 -1.5128
11779TIP3   OH256751   3.714   4.400  16.977 -0.4317  0.0475 -0.1429
11779TIP3    H156752   3.727   4.486  16.937 -0.6499  0.1522  0.0092
11779TIP3    H256753   3.640   4.363  16.929 -1.8626  0.9154  1.3578
11780TIP3   OH256754   3.356   6.030  16.088  0.0805 -0.2937  1.3424
11780TIP3    H156755   3.439   6.073  16.107 -0.7310  2.1842 -0.4038
11780TIP3    H256756   3.298   6.059  16.159 -0.4571  1.5537  0.1851
11781TIP3   OH256757   4.475   1.609   0.642 -0.6451 -0.4160  0.0743
11781TIP3    H156758   4.482   1.537   0.705  0.5627 -0.1801  0.2300
11781TIP3    H256759   4.496   1.570   0.558 -2.5071 -0.7851 -0.2400
11782TIP3   OH256760   3.328   1.481  11.139  0.2863 -0.4811  0.1932
11782TIP3    H156761   3.237   1.504  11.160  0.6747 -1.7328  3.4979
11782TIP3    H256762   3.324   1.451  11.048 -2.8414 -1.6196  0.6165
11783TIP3   OH256763   4.189   5.369  16.401  0.2812 -0.0585  0.3621
11783TIP3    H156764   4.165   5.452  16.443  0.3330 -0.2054  0.6862
11783TIP3    H256765   4.260   5.334  16.456  1.4653  0.5348 -0.7727
11784TIP3   OH256766   0.396   0.716  13.954 -0.0807 -0.7180  0.4723
11784TIP3    H156767   0.337   0.789  13.973  3.0696  1.7507  1.0445
11784TIP3    H256768   0.418   0.726  13.861 -0.6093 -1.7368  0.2212
11785TIP3   OH256769   3.030   4.084  12.569 -0.2671 -0.0753  0.5104
11785TIP3    H156770   3.042   4.031  12.490  0.7741  1.9299 -0.7304
11785TIP3    H256771   2.944   4.124  12.558  0.9042  2.1563 -0.8545
11786TIP3   OH256772   5.484   4.343  13.593  0.1458 -0.6408  0.9669
11786TIP3    H156773   5.424   4.405  13.635 -0.2168 -0.0659 -0.3564
11786TIP3    H256774   5.490   4.269  13.654 -1.9325 -0.7110  1.1185
11787TIP3   OH256775   0.197   2.661  16.184 -0.5544  0.7673 -0.2852
11787TIP3    H156776   0.263   2.604  16.222 -0.7582  0.1392 -0.8738
11787TIP3    H256777   0.134   2.602  16.142 -0.1386  1.4488 -1.9349
11788TIP3   OH256778   4.637   0.567  10.867  0.1951 -0.4512  0.3014
11788TIP3    H156779   4.679   0.486  10.837  0.2589 -1.2591  2.4959
11788TIP3    H256780   4.557   0.538  10.910  0.8841  0.5279  2.2899
11789TIP3   OH256781   3.026   1.446   3.384 -0.3092  0.2699 -0.3237
11789TIP3    H156782   2.976   1.475   3.307 -1.2679  1.5329  0.7367
11789TIP3    H256783   3.115   1.477   3.368 -0.8459  1.9451 -0.2217
11790TIP3   OH256784   4.369   4.906  13.186  0.3397  0.0349  0.0206
11790TIP3    H156785   4.365   4.990  13.139 -2.2822 -1.4670 -2.6034
11790TIP3    H256786   4.430   4.853  13.134 -2.7725 -1.7227 -1.9789
11791TIP3   OH256787   5.889   2.664  16.039  0.3371  0.3357 -0.0718
11791TIP3    H156788   5.808   2.713  16.053 -0.2833 -0.3723 -1.0903
11791TIP3    H256789   5.890   2.647  15.945  1.3386 -0.2437  0.0356
11792TIP3   OH256790   1.936   1.290   4.718  0.2914  1.0572 -0.0066
11792TIP3    H156791   1.999   1.348   4.676 -1.2617  1.1116 -2.3770
11792TIP3    H256792   1.854   1.304   4.670 -0.5265 -1.9123  0.3936
11793TIP3   OH256793   0.943   2.605  16.007 -0.3017  0.4134 -0.1076
11793TIP3    H156794   0.888   2.559  16.070 -1.0982  0.3841 -0.7975
11793TIP3    H256795   1.009   2.649  16.059 -0.6504 -0.0143  0.7014
11794TIP3   OH256796   5.741   4.154  16.856 -0.4211  0.4549  0.3800
11794TIP3    H156797   5.694   4.235  16.875 -2.1873  0.0846 -2.1340
11794TIP3    H256798   5.764   4.160  16.764  0.5316 -1.3533  0.4611
11795TIP3   OH256799   3.412   0.400  17.026 -0.2121 -0.1127 -0.3203
11795TIP3    H156800   3.408   0.304  17.023  1.1653 -0.2350  0.7630
11795TIP3    H256801   3.436   0.419  17.117 -1.6631  1.3235 -0.2197
11796TIP3   OH256802   6.263   5.134   2.754  0.1179  0.1138 -0.0163
11796TIP3    H156803   6.238   5.166   2.840  0.5478 -2.0059  0.9344
11796TIP3    H256804   6.284   5.042   2.768  2.0909  0.2112 -2.0181
11797TIP3   OH256805   4.271   0.318   1.297 -0.1174 -0.1841 -0.0385
11797TIP3    H156806   4.305   0.283   1.380 -0.2845 -1.2300 -0.4128
11797TIP3    H256807   4.231   0.402   1.322 -2.0371 -1.4592  1.3132
11798TIP3   OH256808   1.571   1.399  11.465  0.0668 -0.1735  0.5846
11798TIP3    H156809   1.510   1.367  11.398  1.2673  0.5886 -0.9111
11798TIP3    H256810   1.556   1.494  11.468  3.3462  0.5648 -2.1811
11799TIP3   OH256811   6.210   5.363  14.844  0.4470  0.0088  0.4587
11799TIP3    H156812   6.154   5.285  14.844 -0.2638  0.5008  1.5338
11799TIP3    H256813   6.264   5.354  14.923  1.0580  0.1178  0.0537
11800TIP3   OH256814   4.705   1.477   4.478  0.1344 -0.0142  0.2825
11800TIP3    H156815   4.654   1.477   4.560  2.4077  0.0282  1.7527
11800TIP3    H256816   4.669   1.550   4.428 -1.0462  0.2175  1.4411
11801TIP3   OH256817   5.499   4.138   4.497 -0.0164  0.8049 -0.0309
11801TIP3    H156818   5.491   4.198   4.571  0.6853  0.7628  0.0825
11801TIP3    H256819   5.433   4.168   4.434 -1.3844  0.1576  1.0736
11802TIP3   OH256820   6.389   1.022   2.975  0.0797  0.0088  0.3253
11802TIP3    H156821   6.297   0.997   2.974  0.2906 -0.8466 -1.9610
11802TIP3    H256822   6.400   1.070   3.056 -2.2343 -0.4285  0.9410
11803TIP3   OH256823   2.733   2.006   6.022 -0.9745  0.4813 -0.7736
11803TIP3    H156824   2.786   2.057   5.961  1.1890 -0.9883 -0.1484
11803TIP3    H256825   2.703   2.070   6.087  0.5806  1.2103 -0.7684
11804TIP3   OH256826   2.515   0.770  13.830 -0.4986 -0.5281 -0.3311
11804TIP3    H156827   2.577   0.798  13.763  0.7285 -0.8062  0.6690
11804TIP3    H256828   2.474   0.851  13.861 -0.2709 -0.2971 -0.6369
11805TIP3   OH256829   3.010   5.541  16.968 -0.6279 -0.9831 -0.6287
11805TIP3    H156830   2.969   5.509  16.887  1.8842 -0.9198 -1.9836
11805TIP3    H256831   3.084   5.595  16.938 -1.2712  1.3114  1.6884
11806TIP3   OH256832   0.169   6.080  15.506 -0.2417  0.1400 -0.6718
11806TIP3    H156833   0.175   5.995  15.551 -2.1127  0.8898  1.0794
11806TIP3    H256834   0.219   6.068  15.426 -1.1320 -2.9081 -0.8440
11807TIP3   OH256835   4.403   0.133  12.799 -0.1649  0.5309 -0.8246
11807TIP3    H156836   4.381   0.123  12.707 -0.2219  0.8585 -0.8470
11807TIP3    H256837   4.471   0.200  12.801 -1.0183  1.3999 -0.5214
11808TIP3   OH256838   6.099   0.487   2.455 -0.5411  0.1970 -0.4603
11808TIP3    H156839   6.097   0.394   2.431 -0.1728 -0.3459  1.5181
11808TIP3    H256840   6.009   0.517   2.442 -0.2192  0.1446 -3.1821
11809TIP3   OH256841   3.370   2.028  16.242  0.0318  0.3039 -0.0341
11809TIP3    H156842   3.345   2.036  16.150  0.3331  0.6719 -0.0840
11809TIP3    H256843   3.373   1.934  16.258  1.0922  0.2176 -0.7048
11810TIP3   OH256844   2.909   4.947   5.644 -0.0538 -0.7348  0.1449
11810TIP3    H156845   2.950   4.925   5.560 -1.4782  1.1059 -1.0747
11810TIP3    H256846   2.983   4.971   5.700  0.7161  1.3542 -1.6578
11811TIP3   OH256847   3.606   6.063  14.764 -0.0933 -0.6594  0.4963
11811TIP3    H156848   3.553   6.004  14.711 -0.6303  0.2067  0.0556
11811TIP3    H256849   3.559   6.146  14.762  1.1369  0.0516  0.3023
11812TIP3   OH256850   6.617   1.948  12.742 -0.4850  0.1917 -0.4190
11812TIP3    H156851   6.625   1.888  12.668 -0.2728 -0.2447 -0.0359
11812TIP3    H256852   6.568   1.900  12.808 -0.5966  0.5530 -0.2335
11813TIP3   OH256853   6.531   5.701  10.652 -0.3408  0.1130 -0.5763
11813TIP3    H156854   6.572   5.787  10.640 -1.5056  0.9279  1.2073
11813TIP3    H256855   6.519   5.668  10.563  1.0511  1.3343 -1.2457
11814TIP3   OH256856   0.585   1.112  13.485 -0.1444  0.1558 -0.7069
11814TIP3    H156857   0.596   1.207  13.478 -1.0142  0.1262 -2.9539
11814TIP3    H256858   0.532   1.100  13.563 -0.0003  1.5333 -0.3762
11815TIP3   OH256859   1.985   1.997   4.056 -0.0404 -0.3946 -0.3537
11815TIP3    H156860   1.946   1.985   3.970 -0.9046 -3.1726  0.3771
11815TIP3    H256861   2.005   1.908   4.086  0.9204  0.5741  2.0055
11816TIP3   OH256862   2.461   3.946   0.775  0.1702 -0.1658 -0.2990
11816TIP3    H156863   2.531   4.001   0.739  1.5029 -1.6797 -0.0458
11816TIP3    H256864   2.494   3.857   0.768 -2.4285 -1.0769 -1.7293
11817TIP3   OH256865   2.554   2.463  16.304 -0.4701 -0.6709 -0.1697
11817TIP3    H156866   2.563   2.396  16.236  2.4536  0.2826 -0.8091
11817TIP3    H256867   2.549   2.545  16.256  0.4344 -0.0880  0.7082
11818TIP3   OH256868   1.578   6.256   0.796  0.6173 -0.7855  0.0358
11818TIP3    H156869   1.657   6.276   0.845 -0.0401 -0.3933  0.9657
11818TIP3    H256870   1.522   6.209   0.859  0.2949 -1.4556 -0.7391
11819TIP3   OH256871   3.061   4.333  13.592  0.1239 -0.1102  0.0348
11819TIP3    H156872   3.027   4.299  13.674 -0.4000 -0.6096 -0.3877
11819TIP3    H256873   3.154   4.348  13.609 -0.5730  2.6241  1.6374
11820TIP3   OH256874   2.879   3.807   3.857  0.4528  0.7709  0.1057
11820TIP3    H156875   2.802   3.811   3.801  1.7706 -3.2138 -2.1900
11820TIP3    H256876   2.953   3.820   3.797  1.7879 -1.5125  1.1964
11821TIP3   OH256877   6.617   0.845   4.996 -0.3695  0.2969  0.5157
11821TIP3    H156878   6.705   0.807   4.986  0.2855  1.7597  0.6200
11821TIP3    H256879   6.594   0.877   4.909 -1.6564 -1.8381  0.0269
11822TIP3   OH256880   5.310   1.199   5.905 -0.1500 -0.5023  0.5826
11822TIP3    H156881   5.363   1.265   5.860 -1.0285 -0.8675 -1.0156
11822TIP3    H256882   5.302   1.232   5.994 -2.8994  3.0669 -0.8232
11823TIP3   OH256883   3.769   3.965   3.799  0.0456 -0.2263 -0.1227
11823TIP3    H156884   3.705   4.036   3.798  1.2069  0.8297  0.0716
11823TIP3    H256885   3.854   4.009   3.795  0.8263 -1.5277  1.6391
11824TIP3   OH256886   2.292   4.479   2.370  0.3510  0.1813 -0.7120
11824TIP3    H156887   2.322   4.570   2.374 -0.1510  0.3412 -0.5628
11824TIP3    H256888   2.211   4.483   2.318  0.0358 -0.1013 -0.2448
11825TIP3   OH256889   6.323   4.036  16.603  0.3770  0.5367 -0.2726
11825TIP3    H156890   6.263   4.100  16.566 -2.9959 -1.1609  2.0028
11825TIP3    H256891   6.279   3.952  16.590  4.1168 -1.2595 -2.0763
11826TIP3   OH256892   6.510   4.187   4.828  0.3462  0.6141 -0.0312
11826TIP3    H156893   6.446   4.197   4.898 -0.1574  0.2770 -0.4380
11826TIP3    H256894   6.486   4.255   4.764 -1.0158 -0.9642 -1.2389
11827TIP3   OH256895   0.724   2.830   5.215 -0.2483  0.7514 -0.0463
11827TIP3    H156896   0.643   2.818   5.165 -1.4144 -2.1713  2.3983
11827TIP3    H256897   0.715   2.918   5.253 -1.9253  0.7696 -0.4340
11828TIP3   OH256898   5.164   1.728   4.151  0.8101  0.4907 -0.0059
11828TIP3    H156899   5.225   1.753   4.081  0.1712  1.2825 -0.2847
11828TIP3    H256900   5.155   1.633   4.141  0.1327  0.6931 -1.5005
11829TIP3   OH256901   5.294   2.026   6.540 -0.4090 -0.1110  0.2146
11829TIP3    H156902   5.231   1.964   6.504 -0.0516 -1.7970  2.3852
11829TIP3    H256903   5.380   1.990   6.516 -0.2104 -0.0455  0.8132
11830TIP3   OH256904   4.987   4.963  12.498  0.3909  0.1216 -0.4014
11830TIP3    H156905   4.897   4.993  12.488  0.5726 -0.0733 -2.6946
11830TIP3    H256906   5.028   4.978  12.413  2.5316  0.1728  0.5991
11831TIP3   OH256907   2.574   4.967  13.484  0.0642  0.0819 -0.6990
11831TIP3    H156908   2.650   5.025  13.472 -0.1417  0.4600 -0.1613
11831TIP3    H256909   2.536   4.960  13.396  0.1713  0.6507 -0.7942
11832TIP3   OH256910   2.518   6.039  13.776 -0.1024 -0.4085  0.1161
11832TIP3    H156911   2.605   6.076  13.792  0.0130 -0.0804 -1.1942
11832TIP3    H256912   2.511   5.967  13.838  1.3843 -0.8438 -0.1990
11833TIP3   OH256913   0.892   4.547   2.789  0.5401  0.6566  0.4785
11833TIP3    H156914   0.926   4.495   2.716 -2.3621  0.2040 -0.6187
11833TIP3    H256915   0.893   4.487   2.864 -3.1453 -1.2007 -0.8658
11834TIP3   OH256916   4.483   6.298  13.921  0.4538  0.2554 -0.1876
11834TIP3    H156917   4.563   6.328  13.965  0.6137 -1.7802  0.9533
11834TIP3    H256918   4.494   6.204  13.913 -0.4344  0.3469 -2.9217
11835TIP3   OH256919   4.414   3.433   0.037  0.6671  0.1216 -0.2430
11835TIP3    H156920   4.408   3.504   0.100 -1.2700  0.9654 -1.3475
11835TIP3    H256921   4.499   3.392   0.055  1.1729  1.8101  1.3308
11836TIP3   OH256922   3.684   2.113   4.267 -0.0199  0.4755  0.2288
11836TIP3    H156923   3.654   2.022   4.275  0.4925  0.3382  0.6422
11836TIP3    H256924   3.693   2.127   4.172 -0.6868  0.2912  0.1371
11837TIP3   OH256925   1.107   5.085   4.607 -0.2592 -0.1666  0.2583
11837TIP3    H156926   1.064   5.023   4.666 -4.1040  0.5751 -1.5905
11837TIP3    H256927   1.126   5.161   4.662 -3.3434  0.3235  0.7421
11838TIP3   OH256928   2.653   5.730  15.321 -0.2463 -0.2128 -0.7618
11838TIP3    H156929   2.680   5.812  15.361  0.5431 -0.2371 -1.2304
11838TIP3    H256930   2.652   5.667  15.393 -2.5419  0.5769 -0.0656
11839TIP3   OH256931   4.856   0.648  13.206  0.0769  0.0435  0.3533
11839TIP3    H156932   4.827   0.665  13.116 -0.3724 -0.9835  0.2915
11839TIP3    H256933   4.828   0.558  13.223  0.9863 -0.0857  1.1969
11840TIP3   OH256934   0.057   0.824  11.262 -0.7950 -0.1343  0.0790
11840TIP3    H156935  -0.022   0.802  11.312  0.4062 -1.0256  1.6156
11840TIP3    H256936   0.024   0.876  11.188 -2.6502  0.8414  1.5416
11841TIP3   OH256937   0.037   3.265  16.368 -0.5244  0.2856  1.0440
11841TIP3    H156938  -0.007   3.208  16.304 -3.2544  2.5543  0.8032
11841TIP3    H256939   0.102   3.313  16.317 -1.0699  0.3772  0.4324
11842TIP3   OH256940   0.580   3.163   0.029  0.1519 -0.4279  0.2270
11842TIP3    H156941   0.529   3.189  -0.048  2.5927  0.4687 -1.1446
11842TIP3    H256942   0.515   3.151   0.098 -1.7302  2.6832 -0.9179
11843TIP3   OH256943   2.001   1.219  12.576  0.4214  0.1417 -0.2461
11843TIP3    H156944   2.057   1.201  12.652 -1.1000  3.0687  1.6773
11843TIP3    H256945   2.056   1.272  12.518  1.4398 -1.7021 -0.9754
11844TIP3   OH256946   4.614   0.637  14.634 -0.4327  0.9835 -0.3707
11844TIP3    H156947   4.673   0.636  14.710 -1.8555  1.3328  0.7620
11844TIP3    H256948   4.630   0.554  14.589 -0.1599  0.4110  0.7758
11845TIP3   OH256949   1.508   5.060   1.839  0.3184 -0.5856 -0.2493
11845TIP3    H156950   1.589   5.031   1.795  0.7490 -0.9036  0.7301
11845TIP3    H256951   1.448   4.986   1.829  0.1567 -0.3572 -0.9630
11846TIP3   OH256952   3.982   6.080   1.720 -0.4728 -0.2347  0.3419
11846TIP3    H156953   3.945   6.168   1.712 -1.0640 -0.5050  0.0653
11846TIP3    H256954   3.983   6.063   1.814  2.1822  1.1270  0.6026
11847TIP3   OH256955   1.241   5.995  14.336 -0.0567  0.4216  0.3473
11847TIP3    H156956   1.182   6.056  14.380  0.5225  1.6674 -0.5629
11847TIP3    H256957   1.324   6.005  14.383 -0.1187 -0.0981  0.5671
11848TIP3   OH256958   4.587   1.913   1.690 -0.1285  0.2408  0.2220
11848TIP3    H156959   4.540   1.983   1.734 -0.5851  0.1946 -0.1865
11848TIP3    H256960   4.627   1.955   1.613  0.1159  0.1836  0.3171
11849TIP3   OH256961   5.689   5.861  13.249  0.0221  0.3140 -0.3381
11849TIP3    H156962   5.653   5.779  13.214 -0.0558 -0.1940  0.9158
11849TIP3    H256963   5.613   5.917  13.262 -0.4234 -0.8487  2.5495
11850TIP3   OH256964   5.962   2.788   3.428 -0.3469  0.4043 -0.2918
11850TIP3    H156965   5.960   2.750   3.516 -0.5166  1.3002  0.1031
11850TIP3    H256966   6.035   2.745   3.384  0.2986  0.5898  0.5885
11851TIP3   OH256967   5.654   4.288  14.561  0.5195  0.1429  0.2235
11851TIP3    H156968   5.615   4.374  14.547  2.6906  1.5575  2.5960
11851TIP3    H256969   5.620   4.259  14.645 -0.4791 -1.5187 -0.7242
11852TIP3   OH256970   3.322   2.245  11.942  0.1845 -0.3481 -0.3953
11852TIP3    H156971   3.342   2.332  11.909 -0.4240 -0.3599 -0.8033
11852TIP3    H256972   3.265   2.261  12.018  0.2433 -0.3828 -0.3440
11853TIP3   OH256973   0.420   0.790  13.101 -0.3711 -0.5915  0.5397
11853TIP3    H156974   0.394   0.871  13.057 -2.5359 -1.2029  0.6523
11853TIP3    H256975   0.482   0.818  13.169  0.1821  0.7638 -0.4976
11854TIP3   OH256976   4.442   6.763  11.575  0.0873 -0.0768  0.6508
11854TIP3    H156977   4.393   6.812  11.640  0.9456  1.2615  0.3274
11854TIP3    H256978   4.515   6.725  11.623  2.0064  2.7775  0.1305
11855TIP3   OH256979   5.255   3.148  15.603 -0.5841  0.1252 -0.1046
11855TIP3    H156980   5.163   3.155  15.577 -1.1442 -2.2630  1.1115
11855TIP3    H256981   5.296   3.099  15.532 -0.1036  1.6338 -0.8969
11856TIP3   OH256982   4.405   1.611   5.605 -0.0032  0.2080 -0.1255
11856TIP3    H156983   4.418   1.534   5.549 -0.8743  0.1009 -0.1968
11856TIP3    H256984   4.375   1.575   5.689  3.3973  0.2249  1.1483
11857TIP3   OH256985   4.551   3.734  12.863 -0.4468 -0.3819 -0.4889
11857TIP3    H156986   4.573   3.701  12.950 -0.7984  0.6717  0.0025
11857TIP3    H256987   4.628   3.713  12.809 -1.5159 -4.0292 -0.7686
11858TIP3   OH256988   5.984   2.622   0.361  0.2778 -0.2046  0.5717
11858TIP3    H156989   6.032   2.585   0.436  0.8356  0.3724  0.5030
11858TIP3    H256990   5.974   2.715   0.383 -0.1228 -0.1637  0.2212
11859TIP3   OH256991   0.961   3.873  13.516 -0.0888  0.1171 -0.0627
11859TIP3    H156992   0.893   3.901  13.577 -0.4577 -0.6233 -0.1283
11859TIP3    H256993   0.917   3.867  13.431  0.3360  0.7784 -0.3370
11860TIP3   OH256994   1.156   2.331  16.606  0.0643  0.3156  0.0985
11860TIP3    H156995   1.063   2.327  16.627  0.1056  1.5448  0.5122
11860TIP3    H256996   1.161   2.376  16.522  0.3450  1.1202  0.5374
11861TIP3   OH256997   6.670   1.055  14.484  0.4592 -0.7122  0.0536
11861TIP3    H156998   6.628   0.972  14.510  0.8737 -1.4439 -1.5391
11861TIP3    H256999   6.671   1.107  14.564 -3.2448 -0.7735  0.2187
11862TIP3   OH257000   1.579   0.769  16.370  0.3567 -0.1782 -0.0609
11862TIP3    H157001   1.632   0.764  16.290  1.3568 -1.3792  0.6430
11862TIP3    H257002   1.531   0.851  16.362 -0.3924 -0.8004 -2.4082
11863TIP3   OH257003   2.165   5.336  16.391  0.3795 -0.0939  0.2714
11863TIP3    H157004   2.148   5.243  16.405  0.4369 -0.0052  0.9325
11863TIP3    H257005   2.219   5.362  16.466 -0.5597  0.7365  0.6593
11864TIP3   OH257006   5.971   1.984  13.148  0.1088 -0.3615 -0.3487
11864TIP3    H157007   5.992   1.980  13.055  1.5267 -0.9455 -0.0256
11864TIP3    H257008   5.885   2.026  13.152 -0.2938 -0.9942 -1.9551
11865TIP3   OH257009   1.509   0.073   5.368  0.0173 -0.6440  0.3482
11865TIP3    H157010   1.466   0.149   5.327  0.2308 -0.2451  0.8667
11865TIP3    H257011   1.601   0.082   5.344  0.2467 -0.0776  1.4187
11866TIP3   OH257012   6.394   3.700  16.406  1.0499  0.1145 -0.0635
11866TIP3    H157013   6.437   3.777  16.367  1.0423  1.1971  2.0083
11866TIP3    H257014   6.335   3.736  16.471  0.1387 -1.6094  0.0885
11867TIP3   OH257015   0.080   2.948   2.319  0.1428 -0.1557  0.3902
11867TIP3    H157016   0.022   2.881   2.284 -1.4278  0.9170  0.8907
11867TIP3    H257017   0.166   2.906   2.323 -0.3786 -1.4209 -1.3380
11868TIP3   OH257018   3.602   6.536  15.907 -0.3398 -0.4151  0.1960
11868TIP3    H157019   3.684   6.507  15.946 -0.0834  0.4158  0.2964
11868TIP3    H257020   3.541   6.539  15.980 -0.3053 -0.4782  0.2274
11869TIP3   OH257021   1.716   2.449  14.583  0.6023 -0.5103 -0.0396
11869TIP3    H157022   1.664   2.510  14.531  1.1768  0.1658  0.1829
11869TIP3    H257023   1.674   2.364  14.568  0.3413 -0.2106 -1.0550
11870TIP3   OH257024   0.236   2.836   4.012 -0.0838  0.1918  0.1115
11870TIP3    H157025   0.314   2.780   4.004 -0.7350 -1.0040  1.8357
11870TIP3    H257026   0.271   2.922   4.035  0.8074 -0.0056 -0.4602
11871TIP3   OH257027   0.550   5.521   1.785 -0.9410  0.4497  0.9221
11871TIP3    H157028   0.582   5.538   1.697  1.9531 -0.8027  1.6581
11871TIP3    H257029   0.594   5.587   1.839 -0.4700 -0.5536  1.7883
11872TIP3   OH257030   3.725   4.966   0.757  0.0337  0.7797 -0.1988
11872TIP3    H157031   3.726   4.966   0.661  1.7231  0.9643 -0.1919
11872TIP3    H257032   3.735   4.875   0.782  0.3864  0.8186 -0.1970
11873TIP3   OH257033   2.270   3.005   1.303 -0.7764  0.1170 -0.3108
11873TIP3    H157034   2.197   2.979   1.247  0.6062 -1.2250 -1.4909
11873TIP3    H257035   2.304   2.923   1.339 -0.8191  0.8530  1.4914
11874TIP3   OH257036   6.105   4.028   4.461  0.1803  0.0845 -0.3313
11874TIP3    H157037   6.097   4.042   4.555  0.0940  1.2963 -0.5108
11874TIP3    H257038   6.016   4.006   4.433  0.1187  0.1489 -0.1869
11875TIP3   OH257039   5.642   1.432   1.894  0.4474 -0.1536 -0.7876
11875TIP3    H157040   5.595   1.413   1.812 -1.0680 -1.3327  0.3107
11875TIP3    H257041   5.595   1.380   1.960 -0.6800  3.6051  1.4799
11876TIP3   OH257042   4.984   3.087   5.901 -0.2494 -0.7126 -0.4246
11876TIP3    H157043   4.988   3.116   5.810  1.1432 -0.3815 -0.2720
11876TIP3    H257044   4.891   3.092   5.924 -0.1617  3.3361 -0.5151
11877TIP3   OH257045   6.195   6.005  16.494  0.2345  0.4613 -0.3564
11877TIP3    H157046   6.268   6.037  16.442  1.3941 -1.3693  0.1003
11877TIP3    H257047   6.182   5.914  16.466  0.0111 -0.1393  1.5691
11878TIP3   OH257048   0.747   0.943  13.930 -0.2474 -0.1753 -0.2942
11878TIP3    H157049   0.716   0.855  13.910 -0.4635 -0.1174 -0.2129
11878TIP3    H257050   0.835   0.946  13.893 -0.1953 -0.4647 -0.1940
11879TIP3   OH257051   2.316   6.296  14.303  0.0867 -0.2441 -0.5418
11879TIP3    H157052   2.232   6.286  14.347 -0.6498 -2.3862 -2.3508
11879TIP3    H257053   2.378   6.249  14.359 -0.4072 -0.8988 -0.5377
11880TIP3   OH257054   2.715   4.095  14.160  0.1035  0.0910  0.5027
11880TIP3    H157055   2.662   4.174  14.150  0.4464  0.1832 -0.6371
11880TIP3    H257056   2.712   4.076  14.254  0.8014  2.0140  0.9455
11881TIP3   OH257057   2.569   4.218   4.909  0.1496 -0.5851  0.6896
11881TIP3    H157058   2.615   4.196   4.990  0.9638  0.3335  0.4888
11881TIP3    H257059   2.636   4.212   4.841 -0.5159 -1.2960  0.0936
11882TIP3   OH257060   2.854   6.014   4.812  0.7159 -0.2535  0.6571
11882TIP3    H157061   2.778   6.020   4.870 -0.6082 -2.3934 -0.8148
11882TIP3    H257062   2.874   6.105   4.790 -2.0744  0.3029  0.2537
11883TIP3   OH257063   5.846   4.785  14.798 -0.9616 -0.1933 -0.2859
11883TIP3    H157064   5.787   4.746  14.733 -1.1361  0.0928 -0.2996
11883TIP3    H257065   5.914   4.719  14.812 -0.1497  0.2991 -1.7965
11884TIP3   OH257066   2.642   0.843   2.146  0.1874 -0.4717 -0.2357
11884TIP3    H157067   2.590   0.799   2.078 -0.4431 -0.2284  0.0899
11884TIP3    H257068   2.678   0.920   2.102 -4.0678  2.3468  0.8906
11885TIP3   OH257069   2.133   2.400  17.043  0.1923 -0.5516 -0.3242
11885TIP3    H157070   2.062   2.464  17.042 -0.7264 -1.5328  0.4316
11885TIP3    H257071   2.179   2.414  16.960 -0.7698  0.2229 -0.7400
11886TIP3   OH257072   1.411   6.248  11.855  0.7011 -0.0042 -0.0409
11886TIP3    H157073   1.336   6.291  11.896  0.6592 -0.2741  0.1648
11886TIP3    H257074   1.470   6.320  11.833  1.1854  0.0636  1.4352
11887TIP3   OH257075   2.458   1.334   3.331  0.5349 -0.0623 -0.0677
11887TIP3    H157076   2.518   1.362   3.262  0.1776 -0.2791 -0.4771
11887TIP3    H257077   2.458   1.238   3.325  1.4754 -0.1424  1.0805
11888TIP3   OH257078   1.575   6.413   3.235 -0.1859 -0.2564  0.3138
11888TIP3    H157079   1.510   6.418   3.305 -0.6460  0.4874 -0.1612
11888TIP3    H257080   1.613   6.325   3.244  1.0320  0.4774  2.6107
11889TIP3   OH257081   6.076   4.621   0.110  0.2102  0.2916 -0.3830
11889TIP3    H157082   6.148   4.662   0.063  0.4157 -0.4647 -0.7342
11889TIP3    H257083   6.065   4.536   0.068 -1.2122  0.5961 -0.6547
11890TIP3   OH257084   1.243   5.347  16.448  0.1783 -0.3436 -0.4767
11890TIP3    H157085   1.293   5.429  16.450  0.5162 -0.5533  1.1477
11890TIP3    H257086   1.301   5.284  16.491 -1.0520 -0.8443  0.4701
11891TIP3   OH257087   1.426   3.457  11.477  0.2518  0.4989 -0.5922
11891TIP3    H157088   1.411   3.519  11.405 -0.6552  0.0561 -0.7895
11891TIP3    H257089   1.399   3.505  11.556 -0.3554  0.3991 -0.7353
11892TIP3   OH257090   5.803   0.435  11.168 -0.2911  0.5555  0.9942
11892TIP3    H157091   5.872   0.433  11.102 -0.3271 -2.5148  0.9582
11892TIP3    H257092   5.738   0.496  11.134  1.0310  1.2242 -0.3933
11893TIP3   OH257093   3.981   3.635   0.587  0.2520  0.6168  0.7951
11893TIP3    H157094   4.071   3.666   0.573  0.0805  0.7738  0.0794
11893TIP3    H257095   3.939   3.704   0.638  0.5544  0.5084  1.1995
11894TIP3   OH257096   0.491   1.381   4.213  0.3103 -0.0699  0.3323
11894TIP3    H157097   0.461   1.468   4.240  0.7716 -0.4403  2.1014
11894TIP3    H257098   0.584   1.379   4.237  0.3737 -0.9350  0.0323
11895TIP3   OH257099   1.679   1.793  11.121 -0.2375 -0.0902  0.5643
11895TIP3    H157100   1.768   1.765  11.141 -0.2488 -0.2051  0.4492
11895TIP3    H257101   1.689   1.879  11.080 -0.1673 -0.2135  0.3276
11896TIP3   OH257102   0.584   5.255  15.257 -0.1401 -0.1317  0.2364
11896TIP3    H157103   0.505   5.202  15.247 -0.3920  0.6864 -2.3549
11896TIP3    H257104   0.626   5.219  15.335 -1.7299 -2.3034  0.1589
11897TIP3   OH257105   5.949   0.569  12.767 -0.4105 -0.0356  0.0110
11897TIP3    H157106   5.916   0.514  12.696 -1.7416 -0.6866  1.1258
11897TIP3    H257107   6.044   0.559  12.762 -0.6811 -3.5922  1.1044
11898TIP3   OH257108   4.677   5.089   4.139  0.0220 -0.1145 -0.0919
11898TIP3    H157109   4.613   5.159   4.149  1.4255  0.8620  2.5739
11898TIP3    H257110   4.755   5.133   4.104  0.6132 -0.4907  0.7398
11899TIP3   OH257111   6.637   3.265  11.887  0.3724  0.2482 -0.0584
11899TIP3    H157112   6.647   3.341  11.829 -0.3570 -0.6740 -1.4100
11899TIP3    H257113   6.641   3.302  11.976  1.0561  1.7279 -0.6930
11900TIP3   OH257114   0.206   0.127   3.815  0.3030  0.7412 -0.2494
11900TIP3    H157115   0.165   0.213   3.814 -2.6803 -0.6132 -2.5027
11900TIP3    H257116   0.204   0.100   3.907  0.8953  2.8494  0.4069
11901TIP3   OH257117   1.895   3.387   2.015  0.0018  0.5013 -0.4980
11901TIP3    H157118   1.873   3.478   2.036 -1.9363  0.2952 -1.5102
11901TIP3    H257119   1.894   3.383   1.920  1.7901 -0.2006 -0.5116
11902TIP3   OH257120   3.879   1.251   0.814 -0.3931  1.0004 -0.5006
11902TIP3    H157121   3.845   1.190   0.879 -1.3466  0.2398 -1.6999
11902TIP3    H257122   3.936   1.197   0.759 -2.2794  0.8773 -2.3787
11903TIP3   OH257123   1.426   1.178   3.258 -0.2845 -0.0707 -0.6720
11903TIP3    H157124   1.448   1.096   3.302 -2.5323 -0.1581  0.3027
11903TIP3    H257125   1.486   1.242   3.296  0.5807 -0.9626 -0.4937
11904TIP3   OH257126   2.880   5.980   1.245  0.0637 -0.1155  0.0042
11904TIP3    H157127   2.841   5.917   1.305  1.5747 -0.6083  0.4785
11904TIP3    H257128   2.959   6.011   1.290 -0.0813  1.3132 -0.6816
11905TIP3   OH257129   4.498   2.574  15.848 -0.5265  1.6103 -0.1208
11905TIP3    H157130   4.511   2.483  15.875  0.6263  1.9034  0.3196
11905TIP3    H257131   4.421   2.603  15.897 -1.7517  0.4510 -1.3049
11906TIP3   OH257132   2.687   2.673   1.939  0.4747  0.0281  0.5935
11906TIP3    H157133   2.755   2.606   1.929  2.0177  1.6303 -0.0921
11906TIP3    H257134   2.610   2.625   1.969  1.7685 -1.9182  0.9221
11907TIP3   OH257135   5.852   0.597  16.460 -0.0933  0.6588 -0.2029
11907TIP3    H157136   5.927   0.635  16.507 -0.1054 -1.5901  1.7663
11907TIP3    H257137   5.879   0.506  16.443 -1.9832  0.1008 -0.3027
11908TIP3   OH257138   4.289   2.347   4.504  0.3985 -0.0254  0.0322
11908TIP3    H157139   4.222   2.398   4.549  1.4403  2.1952 -0.8483
11908TIP3    H257140   4.250   2.329   4.418 -0.5189 -1.9640  0.8151
11909TIP3   OH257141   2.436   3.421  16.102  0.3931 -0.3407 -0.0330
11909TIP3    H157142   2.500   3.391  16.037  1.0926  0.2357  0.3859
11909TIP3    H257143   2.445   3.516  16.102 -0.2147 -0.2863  0.2902
11910TIP3   OH257144   1.978   4.690   0.691 -0.3536 -0.6410 -0.1641
11910TIP3    H157145   2.064   4.699   0.650  1.0074  0.3003  2.7830
11910TIP3    H257146   1.923   4.753   0.645  1.0025  0.0924 -0.8152
11911TIP3   OH257147   2.524   5.885   4.611 -0.1552  0.0641  0.3310
11911TIP3    H157148   2.600   5.928   4.571  0.9567 -1.1114  1.1675
11911TIP3    H257149   2.552   5.795   4.625 -2.3985 -0.9240 -1.2013
11912TIP3   OH257150   2.365   0.310   0.004  0.6680  0.6366  0.3742
11912TIP3    H157151   2.460   0.314  -0.007  1.0140 -1.3309  2.3486
11912TIP3    H257152   2.350   0.334   0.095 -0.7911  1.3980 -0.0484
11913TIP3   OH257153   4.537   5.870   2.555 -0.3620 -0.4663 -0.0562
11913TIP3    H157154   4.494   5.814   2.620 -3.5502  1.3132 -0.5396
11913TIP3    H257155   4.470   5.886   2.488  1.5207  1.1920 -1.6242
11914TIP3   OH257156   5.379   2.400   0.345  0.0738  0.2555  0.0986
11914TIP3    H157157   5.315   2.344   0.387 -0.6075  0.4001 -0.7403
11914TIP3    H257158   5.394   2.360   0.260 -1.1110  1.8348 -0.8882
11915TIP3   OH257159   2.146   6.565  14.375 -0.4366  0.7143 -0.4201
11915TIP3    H157160   2.192   6.498  14.426 -1.5432  0.2860  0.0231
11915TIP3    H257161   2.131   6.524  14.290 -0.8712  0.4884 -0.2375
11916TIP3   OH257162   3.017   5.322   0.507  0.0109  0.0787  0.4382
11916TIP3    H157163   2.954   5.251   0.494 -0.3211  0.2865  0.9097
11916TIP3    H257164   2.965   5.402   0.498  0.2779  0.2573  0.4718
11917TIP3   OH257165   0.052   6.300  16.559 -0.0313  0.1627  0.0094
11917TIP3    H157166   0.037   6.394  16.564 -0.6549  0.0775 -0.2197
11917TIP3    H257167   0.037   6.268  16.648  0.9136  0.3807  0.2532
11918TIP3   OH257168   2.401   0.025   0.031  0.2712 -0.3911 -0.0687
11918TIP3    H157169   2.376   0.115   0.010 -0.4191 -0.4176  0.6007
11918TIP3    H257170   2.380   0.016   0.124  1.4765 -0.8716  0.1530
11919TIP3   OH257171   3.102   0.681  14.220 -0.4860 -0.0265 -0.4821
11919TIP3    H157172   3.072   0.592  14.198  1.4701 -0.1788 -2.7049
11919TIP3    H257173   3.138   0.673  14.308  0.9886 -1.7879 -1.2127
11920TIP3   OH257174   3.810   2.065   2.265  0.1066  0.5653 -0.1460
11920TIP3    H157175   3.746   2.112   2.318 -1.3983 -0.6609 -0.8039
11920TIP3    H257176   3.819   1.980   2.308  0.0841  0.1599 -0.9233
11921TIP3   OH257177   0.291   3.596   2.334  0.1148  0.0202 -0.0995
11921TIP3    H157178   0.321   3.565   2.419 -0.0093 -1.2164 -0.4993
11921TIP3    H257179   0.321   3.531   2.271 -0.4528  0.5189 -0.9161
11922TIP3   OH257180   2.730   3.678   1.943  0.3639  0.6727  0.5458
11922TIP3    H157181   2.723   3.594   1.898  0.2080  0.5832  0.7390
11922TIP3    H257182   2.651   3.726   1.919  0.6917  0.9578  0.0352
11923TIP3   OH257183   2.308   0.397   1.133 -0.2438  0.0352  0.1290
11923TIP3    H157184   2.323   0.487   1.164 -2.4362  0.0698  1.2165
11923TIP3    H257185   2.358   0.342   1.193 -0.1395  0.4360  0.4086
11924TIP3   OH257186   6.074   5.565   5.863  0.0910  0.0050  0.0654
11924TIP3    H157187   6.158   5.561   5.909  0.5480 -2.1898 -0.8710
11924TIP3    H257188   6.093   5.615   5.783  0.2736  0.3560  0.3277
11925TIP3   OH257189   0.869   0.812   4.917  0.5908 -0.0370  0.3327
11925TIP3    H157190   0.846   0.884   4.976 -1.2407 -0.1583 -0.2079
11925TIP3    H257191   0.949   0.776   4.955  0.4725  1.0627  1.6995
11926TIP3   OH257192   3.500   0.904  16.396  0.7063 -0.2664 -0.1663
11926TIP3    H157193   3.515   0.819  16.436  0.4888 -0.0869  0.3042
11926TIP3    H257194   3.574   0.916  16.336  0.8778 -0.6647 -0.0355
11927TIP3   OH257195   3.490   1.278   2.152  0.1666 -0.3968  0.6945
11927TIP3    H157196   3.566   1.255   2.097  0.0475  0.0854  0.3213
11927TIP3    H257197   3.437   1.198   2.155  0.7369 -0.7669  1.0379
11928TIP3   OH257198   2.166   0.478   2.635  0.1120 -0.0207 -0.4898
11928TIP3    H157199   2.129   0.549   2.583  0.2616  1.0880  0.8831
11928TIP3    H257200   2.137   0.398   2.591 -0.5315  0.8878 -1.7305
11929TIP3   OH257201   1.079   1.384  12.248  0.8523  0.2992 -0.3821
11929TIP3    H157202   1.048   1.425  12.167 -0.7099  2.1414  1.0765
11929TIP3    H257203   1.092   1.457  12.309  2.2330 -1.0147  0.9714
11930TIP3   OH257204   3.977   4.347   4.137  0.7063 -1.1573  0.3324
11930TIP3    H157205   3.939   4.435   4.136 -1.1295 -1.9075  1.6911
11930TIP3    H257206   3.927   4.300   4.204  1.3230 -3.3768 -0.7152
11931TIP3   OH257207   0.206   1.699   3.185  0.3261  0.3593 -0.1208
11931TIP3    H157208   0.288   1.660   3.154 -0.2937 -1.4334  0.3966
11931TIP3    H257209   0.146   1.691   3.110 -0.3646 -1.4927  0.5829
11932TIP3   OH257210   5.202   5.002   1.829 -0.6840  0.2870 -0.6377
11932TIP3    H157211   5.195   4.939   1.757 -0.5054  0.0448 -0.4415
11932TIP3    H257212   5.122   5.056   1.821 -1.1998 -0.4312 -0.3540
11933TIP3   OH257213   6.779   6.386  13.084 -0.3666  0.0785 -0.1681
11933TIP3    H157214   6.827   6.462  13.116 -0.3890 -0.5630  1.4194
11933TIP3    H257215   6.693   6.421  13.060  0.4141  0.9707 -1.6999
11934TIP3   OH257216   4.755   5.662   2.776 -0.0811  0.4765 -0.3380
11934TIP3    H157217   4.833   5.608   2.764 -0.2101  0.3004 -0.3763
11934TIP3    H257218   4.788   5.752   2.774  0.1828  0.3909  0.1075
11935TIP3   OH257219   3.519   0.031   0.338 -0.5524 -0.1460  0.6937
11935TIP3    H157220   3.472  -0.007   0.412 -1.8718  0.1078  0.0139
11935TIP3    H257221   3.456   0.092   0.300 -0.3992 -1.2566 -1.4261
11936TIP3   OH257222   6.565   2.858  10.777 -0.1527 -0.7284  0.4120
11936TIP3    H157223   6.592   2.949  10.765 -3.2878  0.4778  1.8620
11936TIP3    H257224   6.493   2.846  10.715 -0.3869 -1.9186  0.8922
11937TIP3   OH257225   4.413   1.403  16.415  0.3760  0.4788  0.1131
11937TIP3    H157226   4.324   1.372  16.428  0.2601 -0.3957 -2.3888
11937TIP3    H257227   4.403   1.490  16.375  0.5846 -0.5968 -2.3507
11938TIP3   OH257228   1.568   5.592  15.860 -0.0466 -1.2710 -0.2006
11938TIP3    H157229   1.609   5.678  15.863  0.1645 -1.2766 -1.9608
11938TIP3    H257230   1.639   5.531  15.879  0.2274 -1.1386 -0.7636
11939TIP3   OH257231   6.390   3.121  16.065  0.2845 -0.4644 -0.5957
11939TIP3    H157232   6.379   3.099  16.158  0.0819 -0.3094 -0.5823
11939TIP3    H257233   6.482   3.147  16.058 -0.0005  0.6795 -0.1976
11940TIP3   OH257234   6.767   2.855  15.051  0.0175 -0.2518  0.2624
11940TIP3    H157235   6.709   2.812  15.113 -0.4937  0.6679  0.4339
11940TIP3    H257236   6.848   2.804  15.054 -0.2498 -0.6286  1.1479
11941TIP3   OH257237   6.165   4.846  12.464  0.2555  0.0739  0.1305
11941TIP3    H157238   6.132   4.889  12.543 -0.1463 -1.3665  0.7573
11941TIP3    H257239   6.234   4.787  12.495  1.0049  0.4707 -0.7546
11942TIP3   OH257240   2.915   3.844   1.691 -0.6039 -0.9794 -0.6137
11942TIP3    H157241   2.955   3.847   1.778  1.0248 -2.2191 -1.2993
11942TIP3    H257242   2.983   3.877   1.632 -1.1964 -1.4668 -1.5823
11943TIP3   OH257243   3.471   2.763  13.719 -0.1396  0.3898  0.1816
11943TIP3    H157244   3.426   2.786  13.800  1.6238  2.5133  0.5833
11943TIP3    H257245   3.482   2.846  13.673  0.6751 -0.5290 -1.3183
11944TIP3   OH257246   4.007   2.310  15.388 -0.3888 -0.2521  0.3201
11944TIP3    H157247   3.992   2.380  15.452 -2.4365 -0.7930  0.4932
11944TIP3    H257248   3.997   2.230  15.439 -0.1724 -0.6732 -0.3062
11945TIP3   OH257249   5.341   2.880   5.754 -0.3033  0.7961 -0.0173
11945TIP3    H157250   5.343   2.863   5.848 -1.4924 -1.7572 -0.4202
11945TIP3    H257251   5.432   2.903   5.732 -0.0131  1.3952  1.7197
11946TIP3   OH257252   2.646   4.561  13.938  0.0914 -0.2445  0.6853
11946TIP3    H157253   2.679   4.531  14.023  2.6183  0.0124 -0.1818
11946TIP3    H257254   2.703   4.520  13.873 -2.1571 -0.8862 -0.9603
11947TIP3   OH257255   1.144   4.245  15.106 -0.1547 -0.0327  0.6381
11947TIP3    H157256   1.116   4.332  15.075  1.2713  1.0646  2.3602
11947TIP3    H257257   1.063   4.194  15.109 -0.9937  1.1880 -0.5146
11948TIP3   OH257258   3.552   4.654  16.503 -0.3216  0.1333  0.3149
11948TIP3    H157259   3.616   4.592  16.470 -1.7686 -1.1505 -0.0989
11948TIP3    H257260   3.538   4.715  16.431  0.4130  0.4126  0.4040
11949TIP3   OH257261   1.193   5.097  14.923  0.2829  0.1816  0.2175
11949TIP3    H157262   1.229   5.019  14.879 -0.6866  0.3576 -0.9030
11949TIP3    H257263   1.181   5.160  14.853 -0.4975  0.7692  0.8815
11950TIP3   OH257264   5.917   3.167  13.493 -0.0464  0.0404 -0.0439
11950TIP3    H157265   5.868   3.223  13.553 -0.4474 -0.1968 -0.1462
11950TIP3    H257266   5.925   3.084  13.539 -0.0892 -0.0476 -0.1951
11951TIP3   OH257267   1.847   5.217  13.506 -0.3650  0.1242 -0.1457
11951TIP3    H157268   1.856   5.286  13.440 -0.3604 -0.4011 -0.6990
11951TIP3    H257269   1.899   5.248  13.580 -1.7136  1.4972  0.2448
11952TIP3   OH257270   2.358   3.457   4.211  0.3158  0.2332 -0.0877
11952TIP3    H157271   2.386   3.371   4.242 -0.2962 -0.5260 -1.5850
11952TIP3    H257272   2.433   3.492   4.164 -0.6248 -1.1084 -2.6993
11953TIP3   OH257273   0.784   2.304   1.462 -0.3966 -0.0823  0.1228
11953TIP3    H157274   0.847   2.363   1.421  1.9107 -2.0950  0.6647
11953TIP3    H257275   0.742   2.357   1.530  1.8189  0.8622  0.7998
11954TIP3   OH257276   4.774   5.768  15.199  0.6309 -0.3610  0.3036
11954TIP3    H157277   4.862   5.771  15.237 -0.4132 -0.5382  2.7718
11954TIP3    H257278   4.747   5.677  15.207 -0.2414 -0.0797  0.6164
11955TIP3   OH257279   1.792   4.518   3.442  0.3373 -0.9658  0.5797
11955TIP3    H157280   1.887   4.520   3.449  0.4075 -0.0986 -0.3590
11955TIP3    H257281   1.775   4.531   3.348 -0.7294  0.4873  0.9549
11956TIP3   OH257282   3.195   3.241   2.970  0.3786  0.2181 -0.5711
11956TIP3    H157283   3.211   3.324   2.927  1.8364  0.7148  0.8769
11956TIP3    H257284   3.200   3.261   3.064 -0.3573 -1.2829 -0.1918
11957TIP3   OH257285   2.227   2.972  11.880 -0.1448  0.1703 -0.0312
11957TIP3    H157286   2.255   2.900  11.937  0.2390 -0.1905 -0.6667
11957TIP3    H257287   2.248   3.051  11.928 -0.5817 -0.1434  0.6849
11958TIP3   OH257288   1.187   2.339  16.981 -0.1630 -0.0998 -0.8519
11958TIP3    H157289   1.142   2.410  16.936 -1.6987 -0.3329  0.2841
11958TIP3    H257290   1.148   2.337  17.068  0.8418 -1.4351 -0.4117
11959TIP3   OH257291   6.696   2.652  11.918  0.2187 -0.0619  0.7586
11959TIP3    H157292   6.677   2.715  11.988  0.7287  1.6053 -0.5587
11959TIP3    H257293   6.630   2.670  11.851  0.5354 -0.7562  0.2567
11960TIP3   OH257294   2.589   4.904  16.811 -0.4661  0.2160 -0.1061
11960TIP3    H157295   2.570   4.932  16.721 -0.0899 -1.0391 -0.5907
11960TIP3    H257296   2.667   4.953  16.836 -0.4270  0.3836 -0.5591
11961TIP3   OH257297   3.278   6.673  16.717 -0.0064 -0.5112 -0.5574
11961TIP3    H157298   3.214   6.709  16.778 -0.2930 -0.0198 -1.1381
11961TIP3    H257299   3.260   6.717  16.634  0.5806 -0.9410 -0.9206
11962TIP3   OH257300   0.975   4.547  12.476 -0.1427 -0.1143 -0.5980
11962TIP3    H157301   0.985   4.634  12.514  0.3640  0.0168 -1.0213
11962TIP3    H257302   0.999   4.559  12.384 -0.5165 -0.6032 -0.7547
11963TIP3   OH257303   3.164   0.971   0.668 -0.2536 -0.4128 -0.4918
11963TIP3    H157304   3.255   0.994   0.684 -0.3349  0.2248 -0.9390
11963TIP3    H257305   3.165   0.876   0.655  0.1809 -0.5720  0.6543
11964TIP3   OH257306   2.673   1.473   1.514  0.1835 -0.2974  0.0873
11964TIP3    H157307   2.709   1.560   1.531 -1.1753  0.3931 -0.4559
11964TIP3    H257308   2.657   1.471   1.420 -1.2737 -0.5416  0.3310
11965TIP3   OH257309   5.341   6.593   5.428  0.4770 -0.2815 -0.6547
11965TIP3    H157310   5.262   6.563   5.384  0.4368 -1.5436  0.2534
11965TIP3    H257311   5.379   6.659   5.369 -1.1126  0.1520 -1.1962
11966TIP3   OH257312   3.853   3.145  11.874 -0.2102  0.0664 -0.2709
11966TIP3    H157313   3.766   3.185  11.865 -0.0831  0.1839 -1.0550
11966TIP3    H257314   3.865   3.135  11.968 -0.6127  1.0791 -0.1001
11967TIP3   OH257315   5.677   6.582  13.978  0.1392  0.4743  0.6550
11967TIP3    H157316   5.710   6.538  13.899 -2.7972  0.4186 -0.5710
11967TIP3    H257317   5.589   6.610  13.956 -0.4235  1.2612  3.6473
11968TIP3   OH257318   6.546   6.750  13.872 -0.0329  0.1510  0.4668
11968TIP3    H157319   6.491   6.814  13.828  0.5151 -0.0887 -0.5659
11968TIP3    H257320   6.573   6.793  13.954 -3.1608 -0.3801  1.8291
11969TIP3   OH257321   4.861   1.846   4.155 -0.1974 -0.1972  0.6897
11969TIP3    H157322   4.841   1.770   4.211  0.0171 -0.9098 -0.1787
11969TIP3    H257323   4.928   1.894   4.203 -0.5589 -0.3960  1.3969
11970TIP3   OH257324   1.946   2.850  14.363  0.2711 -0.3192 -0.2805
11970TIP3    H157325   2.011   2.789  14.397  1.9229  1.7219  0.3159
11970TIP3    H257326   1.918   2.811  14.280  0.5755 -2.3607  0.5698
11971TIP3   OH257327   0.668   1.958  13.074 -0.1230  0.0093  0.4872
11971TIP3    H157328   0.647   1.974  12.982  1.1390 -0.6208  0.0695
11971TIP3    H257329   0.744   1.900  13.071  0.2365  0.3860  1.9218
11972TIP3   OH257330   2.347   1.648  11.496 -0.4266 -0.2668 -0.2739
11972TIP3    H157331   2.428   1.602  11.520 -0.9240 -0.8996  0.2203
11972TIP3    H257332   2.323   1.697  11.575 -1.1218 -0.9638 -0.0440
11973TIP3   OH257333   4.761   1.298   0.929 -0.2097 -0.0141 -0.3824
11973TIP3    H157334   4.835   1.263   0.978 -0.9962 -1.0605  0.0844
11973TIP3    H257335   4.688   1.298   0.992 -1.1347 -1.0231 -1.4257
11974TIP3   OH257336   0.230   0.901  15.420  0.1206  0.4833 -0.1361
11974TIP3    H157337   0.314   0.888  15.462  0.3630 -0.6435 -0.9474
11974TIP3    H257338   0.230   0.841  15.346 -1.8847 -0.3988  0.5365
11975TIP3   OH257339   4.393   4.942   5.902 -0.5107  0.2575 -0.4390
11975TIP3    H157340   4.459   5.008   5.877  0.8934 -0.8836  0.2100
11975TIP3    H257341   4.339   4.986   5.968 -1.3498  1.7112 -2.0673
11976TIP3   OH257342   0.393   0.294  13.423  0.3583  0.4385  0.1615
11976TIP3    H157343   0.370   0.384  13.447  1.1430  0.8411 -0.5517
11976TIP3    H257344   0.388   0.245  13.505 -3.4573  0.3848 -0.0499
11977TIP3   OH257345   0.517   1.305   4.538 -0.2163 -0.1442 -0.1294
11977TIP3    H157346   0.602   1.338   4.509 -1.2412  2.5863 -0.1243
11977TIP3    H257347   0.460   1.320   4.463 -1.4895  1.3309  1.1101
11978TIP3   OH257348   0.574   1.527  11.114 -0.6222  0.0631 -0.4602
11978TIP3    H157349   0.648   1.574  11.075  1.4094 -2.7396 -0.1302
11978TIP3    H257350   0.539   1.473  11.042 -1.9391  0.8548 -0.4307
11979TIP3   OH257351   1.371   2.056  12.302  0.4639  0.2624  0.5747
11979TIP3    H157352   1.439   1.989  12.313  1.4969  1.0407 -0.8833
11979TIP3    H257353   1.380   2.083  12.210 -0.8922  1.3761  0.7720
11980TIP3   OH257354   3.130   5.271  15.289 -0.4747 -0.1073  0.7568
11980TIP3    H157355   3.188   5.237  15.221 -1.9030 -0.0923 -0.4924
11980TIP3    H257356   3.179   5.343  15.329  1.1726 -1.4063  1.0942
11981TIP3   OH257357   1.351   2.749   0.228 -0.0363 -0.6584 -0.1072
11981TIP3    H157358   1.372   2.752   0.321  1.7318 -0.6708 -0.4958
11981TIP3    H257359   1.293   2.824   0.214 -0.7550 -0.9717  1.0909
11982TIP3   OH257360   0.369   2.905  14.948  0.2390  0.7441  0.2413
11982TIP3    H157361   0.378   2.992  14.987 -1.4746  1.2820 -0.5239
11982TIP3    H257362   0.300   2.863  15.000  1.4807 -0.3948  0.9952
11983TIP3   OH257363   4.994   1.315   5.986  0.2451 -0.2952  0.4305
11983TIP3    H157364   5.072   1.294   6.038  2.4144  1.8494 -1.8062
11983TIP3    H257365   4.995   1.251   5.915  0.5390  0.3651 -0.1617
11984TIP3   OH257366   4.522   1.513   1.080  0.1746  0.4243 -0.6397
11984TIP3    H157367   4.571   1.553   1.009 -0.3238 -1.7293 -2.2285
11984TIP3    H257368   4.587   1.502   1.150  1.1792  0.5829 -1.5299
11985TIP3   OH257369   0.156   4.259   5.392 -0.0815 -0.1982  0.3621
11985TIP3    H157370   0.065   4.245   5.415  0.2675 -1.7609  0.8133
11985TIP3    H257371   0.156   4.272   5.297 -1.0099  1.9585  0.6326
11986TIP3   OH257372   3.158   2.780  15.455  0.2537  0.8922 -0.0098
11986TIP3    H157373   3.204   2.841  15.399  2.1892  0.1837  0.7713
11986TIP3    H257374   3.159   2.697  15.407 -0.8206  1.0416 -0.2961
11987TIP3   OH257375   1.112   5.987  15.775  0.4078 -0.4945  0.7345
11987TIP3    H157376   1.120   5.948  15.688  3.2861  1.1084  0.2119
11987TIP3    H257377   1.089   5.913  15.832  2.7300 -2.4270 -0.7090
11988TIP3   OH257378   3.087   1.617   1.619 -0.5663 -0.3619 -0.3338
11988TIP3    H157379   3.044   1.537   1.649  1.0474 -1.3920 -0.7029
11988TIP3    H257380   3.140   1.646   1.693 -1.1675  0.3865 -0.1911
11989TIP3   OH257381   2.515   6.125   0.447 -0.0945  0.4016  0.6746
11989TIP3    H157382   2.480   6.045   0.486  1.5766  0.0996  1.5900
11989TIP3    H257383   2.461   6.138   0.369 -1.7867 -0.4207  1.6578
11990TIP3   OH257384   4.307   5.082   1.706  0.2580 -0.3246  0.0203
11990TIP3    H157385   4.384   5.055   1.757 -0.0467  0.5091  0.9422
11990TIP3    H257386   4.330   5.062   1.615  1.6612  0.1085  0.2591
11991TIP3   OH257387   0.762   0.758  16.837  0.3930 -0.0814  0.3272
11991TIP3    H157388   0.693   0.735  16.899  2.6771 -1.5234  2.3927
11991TIP3    H257389   0.771   0.681  16.781  1.7825 -0.7112  1.4162
11992TIP3   OH257390   6.650   3.195  12.236 -0.2631  0.1200  0.0817
11992TIP3    H157391   6.671   3.109  12.200  0.6698 -0.3672  1.7451
11992TIP3    H257392   6.572   3.182  12.289 -0.8656  0.5764 -0.6703
11993TIP3   OH257393   6.534   2.213  12.811  0.0037 -0.3437 -0.3571
11993TIP3    H157394   6.540   2.118  12.806 -0.0255 -0.3318 -0.6125
11993TIP3    H257395   6.527   2.232  12.905  0.7415 -0.5463 -0.2618
11994TIP3   OH257396   5.532   1.491  13.754  0.0541 -0.1328  0.3357
11994TIP3    H157397   5.585   1.416  13.726 -0.5962 -0.7363  0.7149
11994TIP3    H257398   5.511   1.537  13.673  2.1928  0.8165  0.2764
11995TIP3   OH257399   4.762   0.903  13.808  0.0678 -0.2916 -0.3380
11995TIP3    H157400   4.668   0.883  13.815 -0.4353  1.1264 -2.3594
11995TIP3    H257401   4.769   0.994  13.838  0.9363 -0.6888  0.6574
11996TIP3   OH257402   4.565   0.407  11.306  0.4534 -0.1966  0.3982
11996TIP3    H157403   4.648   0.454  11.308 -0.6276  1.8984 -1.4770
11996TIP3    H257404   4.544   0.400  11.212 -2.8197  1.7723  0.9091
11997TIP3   OH257405   3.745   3.042   6.263 -0.2951 -0.4604  0.5101
11997TIP3    H157406   3.746   2.958   6.218  1.8075  1.4343 -3.2052
11997TIP3    H257407   3.835   3.055   6.294 -0.5449  0.5133  0.8623
11998TIP3   OH257408   3.485   3.721   1.352 -0.2424  0.2680  0.2705
11998TIP3    H157409   3.457   3.788   1.289 -0.9716 -1.2509 -1.0589
11998TIP3    H257410   3.543   3.664   1.302  2.8220  1.6141  2.1911
11999TIP3   OH257411   6.531   4.994   5.982  0.2170 -0.4491  0.3650
11999TIP3    H157412   6.613   4.944   5.990  0.0167 -0.7929  0.2701
11999TIP3    H257413   6.504   5.010   6.072  0.8716  0.4577  0.4047
12000TIP3   OH257414   0.745   4.116   4.121  0.0556 -0.3950 -0.3144
12000TIP3    H157415   0.706   4.181   4.179  1.7151  0.3516 -0.0100
12000TIP3    H257416   0.758   4.039   4.177 -2.1311 -1.1125 -0.7373
12001TIP3   OH257417   1.100   5.123   0.112 -0.3997 -0.3884 -0.3954
12001TIP3    H157418   1.126   5.032   0.122  0.4271 -0.2139 -0.8945
12001TIP3    H257419   1.044   5.124   0.035  0.2376 -0.3530 -0.8634
12002TIP3   OH257420   2.079   3.032   5.368 -0.2257 -0.4500  0.2560
12002TIP3    H157421   2.001   3.070   5.410  1.3897 -0.2843  3.3053
12002TIP3    H257422   2.114   3.102   5.313  1.1503  1.6658  3.6585
12003TIP3   OH257423   0.866   4.447   4.971 -0.1552 -0.0879  0.0887
12003TIP3    H157424   0.834   4.524   5.018 -2.1079 -1.7828  1.6698
12003TIP3    H257425   0.900   4.481   4.889 -2.3085  2.3110  0.1168
12004TIP3   OH257426   2.154   6.444   2.355 -0.1454 -0.1793  0.1210
12004TIP3    H157427   2.140   6.381   2.426  0.7419 -0.4296  0.0872
12004TIP3    H257428   2.096   6.415   2.285 -2.2115  1.0001  1.3128
12005TIP3   OH257429   4.808   3.841  11.735  0.6394 -0.2309 -0.3820
12005TIP3    H157430   4.848   3.774  11.789 -0.5342  0.4627  1.3876
12005TIP3    H257431   4.868   3.915  11.739  0.5231 -0.1599  0.0131
12006TIP3   OH257432   3.977   0.423   2.308 -0.0771 -0.3599 -0.0541
12006TIP3    H157433   3.997   0.329   2.307 -2.8559 -0.9867 -2.8111
12006TIP3    H257434   3.932   0.439   2.225  1.4256  3.6847 -0.1796
12007TIP3   OH257435   4.021   6.343  12.361  0.6779 -0.3640  0.6557
12007TIP3    H157436   4.108   6.306  12.347  1.5952  1.9104  0.0753
12007TIP3    H257437   4.038   6.431  12.394 -1.4184 -0.1622  1.2445
12008TIP3   OH257438   1.532   3.052  11.340 -0.6034 -0.0826  0.1811
12008TIP3    H157439   1.584   3.108  11.397 -0.8565 -1.9933  2.4054
12008TIP3    H257440   1.452   3.101  11.323  0.5415  1.5328 -0.5814
12009TIP3   OH257441   3.735   0.162  12.406 -0.3133  0.0962  0.2031
12009TIP3    H157442   3.662   0.199  12.356 -0.7878 -0.8043  0.2334
12009TIP3    H257443   3.757   0.081  12.360  1.3246  0.8541 -0.3928
12010TIP3   OH257444   2.989   2.059  10.809 -0.4422 -0.2250 -0.0242
12010TIP3    H157445   2.913   2.079  10.864  1.0145  1.8841  1.2894
12010TIP3    H257446   3.013   1.969  10.834 -1.4784 -0.2867  0.7807
12011TIP3   OH257447   0.545   6.109   0.414 -0.0044 -0.2745  0.1125
12011TIP3    H157448   0.461   6.147   0.438  0.6902  1.7086 -0.5578
12011TIP3    H257449   0.523   6.041   0.350 -1.1683 -0.4973  0.7304
12012TIP3   OH257450   4.838   0.698   1.813 -0.6092 -0.5519 -0.2964
12012TIP3    H157451   4.893   0.763   1.770 -0.8304  0.2555  0.6200
12012TIP3    H257452   4.874   0.690   1.901 -0.8633 -1.3457 -0.2579
12013TIP3   OH257453   3.929   6.453  13.128 -0.0793 -0.0369 -0.0112
12013TIP3    H157454   3.873   6.518  13.170  1.2211  0.7156  0.5810
12013TIP3    H257455   3.972   6.408  13.200 -0.6243 -1.2527 -0.4353
12014TIP3   OH257456   2.039   2.740  13.418  0.8482  0.1938  0.3453
12014TIP3    H157457   2.115   2.684  13.403  0.9358  0.3134  0.3434
12014TIP3    H257458   2.073   2.829  13.412  0.4582  0.2634 -0.9628
12015TIP3   OH257459   4.469   1.184   1.776  0.3646  0.1139  0.1160
12015TIP3    H157460   4.399   1.197   1.712 -0.2082 -0.5720  0.6040
12015TIP3    H257461   4.477   1.089   1.784  1.6366  0.1780 -0.2507
12016TIP3   OH257462   2.386   1.212  10.601  0.1607 -0.1990 -0.1934
12016TIP3    H157463   2.352   1.283  10.546 -0.1269 -0.9391 -0.9707
12016TIP3    H257464   2.480   1.227  10.605  0.3437 -0.7898 -1.8318
12017TIP3   OH257465   3.983   6.373  15.798 -0.3892  0.4520  0.5457
12017TIP3    H157466   3.928   6.366  15.719 -0.8876  1.5339  0.7912
12017TIP3    H257467   4.072   6.373  15.765 -0.5496 -0.3441  0.0745
12018TIP3   OH257468   4.100   0.637   3.477 -0.0218  0.3734  0.7028
12018TIP3    H157469   4.032   0.669   3.536 -1.8226  0.1230 -1.1675
12018TIP3    H257470   4.112   0.708   3.414  1.7175  0.5495  1.2002
12019TIP3   OH257471   6.213   6.593   3.622  0.5985 -0.9435 -0.2204
12019TIP3    H157472   6.128   6.586   3.578  1.2664 -0.5991 -1.5972
12019TIP3    H257473   6.195   6.648   3.698 -0.4906 -1.1511 -0.3150
12020TIP3   OH257474   0.491   3.372  11.562  0.4962 -0.4903 -0.5368
12020TIP3    H157475   0.444   3.358  11.644  1.4171  1.8674  0.4584
12020TIP3    H257476   0.533   3.288  11.543  0.8825 -0.8667  1.8276
12021TIP3   OH257477   2.795   2.110   3.289 -0.1725 -0.2239 -0.0396
12021TIP3    H157478   2.774   2.066   3.207 -0.3082 -0.7224  0.2585
12021TIP3    H257479   2.880   2.073   3.314  0.0163  0.1568 -0.1135
12022TIP3   OH257480   6.744   1.576   5.297 -0.1353  0.0867 -0.1647
12022TIP3    H157481   6.717   1.563   5.388 -0.7385  0.2442 -0.3157
12022TIP3    H257482   6.715   1.497   5.251  0.8919 -0.3584 -0.0711
12023TIP3   OH257483   4.911   0.957  11.425 -0.0526  0.3977 -0.0031
12023TIP3    H157484   4.983   1.009  11.460 -0.4371 -0.9558  3.0219
12023TIP3    H257485   4.954   0.880  11.386  0.1956 -0.0615  1.1582
12024TIP3   OH257486   3.727   3.250   0.477 -0.4135 -0.2758 -0.4033
12024TIP3    H157487   3.803   3.229   0.531  0.7003  0.5035 -1.6431
12024TIP3    H257488   3.677   3.313   0.529  0.9230  0.8626 -0.4935
12025TIP3   OH257489   5.876   2.442   2.214  0.2164  0.2151 -0.1229
12025TIP3    H157490   5.937   2.368   2.213 -2.1193 -1.7870  1.6074
12025TIP3    H257491   5.902   2.494   2.290  0.9350  0.3725 -0.4759
12026TIP3   OH257492   0.499   0.022  15.600 -0.3560 -0.5770  0.1966
12026TIP3    H157493   0.450  -0.012  15.675 -1.4055  0.7772  0.1515
12026TIP3    H257494   0.444   0.092  15.566  1.7749  1.2150  0.3538
12027TIP3   OH257495   2.132   6.767  14.641  0.3212  0.0297  0.2883
12027TIP3    H157496   2.224   6.747  14.622 -0.0985 -1.0621 -0.6667
12027TIP3    H257497   2.095   6.683  14.669 -0.7514  0.1195 -0.8434
12028TIP3   OH257498   4.089   6.758   4.402  0.1789  0.1062  0.1934
12028TIP3    H157499   4.077   6.834   4.459 -2.8726  0.1712 -0.4473
12028TIP3    H257500   4.069   6.790   4.314  0.8035 -0.9915 -0.3639
12029TIP3   OH257501   2.037   2.306   1.346 -0.0103  0.1318 -0.0287
12029TIP3    H157502   2.079   2.374   1.295  1.4006 -0.7053  0.0004
12029TIP3    H257503   2.054   2.330   1.437  0.1596 -0.0703 -0.0090
12030TIP3   OH257504   2.206   1.145   0.532 -0.1302 -0.1312 -0.9642
12030TIP3    H157505   2.294   1.169   0.560  0.0836  0.2529 -1.9709
12030TIP3    H257506   2.171   1.094   0.605  0.8364 -0.0799 -0.4624
12031TIP3   OH257507   0.671   4.034   5.188  0.0428 -0.0339  0.2737
12031TIP3    H157508   0.685   4.111   5.243  1.2487  0.9802 -1.4290
12031TIP3    H257509   0.616   4.065   5.116  0.0619 -0.9104 -0.1239
12032TIP3   OH257510   2.821   4.831   6.206  0.1891 -0.0987 -1.1596
12032TIP3    H157511   2.764   4.807   6.132 -0.1833 -0.7618 -0.6588
12032TIP3    H257512   2.783   4.786   6.281  0.6733  0.4369 -0.5922
12033TIP3   OH257513   3.482   6.558  16.855  0.1317 -0.2550 -0.5232
12033TIP3    H157514   3.407   6.591  16.806  0.2834 -0.0010 -0.5807
12033TIP3    H257515   3.548   6.626  16.848  0.3603 -0.4678 -0.4489
12034TIP3   OH257516   2.947   5.595   3.614 -0.0397  0.6214 -0.2295
12034TIP3    H157517   2.934   5.571   3.523 -0.9903 -1.3060  0.3926
12034TIP3    H257518   3.010   5.668   3.611  2.5761 -1.6328 -2.2054
12035TIP3   OH257519   0.159   2.868   5.544  0.2128 -0.1038 -0.2147
12035TIP3    H157520   0.216   2.919   5.601 -1.0907  1.4741 -0.2896
12035TIP3    H257521   0.212   2.793   5.518  2.0371  1.0018  0.2217
12036TIP3   OH257522   6.048   6.670  11.177  0.3342 -0.5600  0.6760
12036TIP3    H157523   6.024   6.577  11.169 -0.5073 -0.4881  2.1667
12036TIP3    H257524   6.011   6.711  11.100 -0.6232 -1.2161  0.7726
12037TIP3   OH257525   6.295   2.001   2.788 -0.4419 -0.4262 -0.4296
12037TIP3    H157526   6.341   2.085   2.792  0.9084 -1.2014  0.9801
12037TIP3    H257527   6.283   1.985   2.694  2.5718 -0.3820 -0.8720
12038TIP3   OH257528   6.689   4.401  12.474 -0.0866 -0.0760  0.3414
12038TIP3    H157529   6.657   4.347  12.403  0.8604 -0.9391  0.5482
12038TIP3    H257530   6.625   4.390  12.544 -1.6734  1.7659 -0.7971
12039TIP3   OH257531   1.511   5.562   1.050 -0.2494 -0.0641 -0.3520
12039TIP3    H157532   1.526   5.471   1.076 -1.3859  0.2127  1.3260
12039TIP3    H257533   1.484   5.556   0.958 -0.5854 -1.4499 -0.1755
12040TIP3   OH257534   5.302   0.233   4.364 -0.3383 -0.1770 -0.4979
12040TIP3    H157535   5.228   0.229   4.303 -3.5905 -1.7508  3.3460
12040TIP3    H257536   5.327   0.325   4.365 -1.7895  0.2635 -2.3884
12041TIP3   OH257537   0.079   6.695  12.428 -0.0059  0.2000 -0.0716
12041TIP3    H157538   0.035   6.628  12.480 -1.4120  1.3206  0.2234
12041TIP3    H257539   0.138   6.647  12.371  0.5457 -1.1348  1.6154
12042TIP3   OH257540   4.197   0.618  11.204  0.3802 -0.1933  0.8452
12042TIP3    H157541   4.184   0.707  11.235 -0.0862 -0.0276  0.1877
12042TIP3    H257542   4.109   0.586  11.184  0.5716 -0.6940  0.7837
12043TIP3   OH257543   5.578   1.315   6.482 -0.0464  0.0570 -0.3018
12043TIP3    H157544   5.623   1.237   6.449  0.2073 -0.3604  1.0235
12043TIP3    H257545   5.512   1.333   6.415 -0.1478 -1.3390 -0.6063
12044TIP3   OH257546   5.983   1.892  12.514 -0.2828  0.2557 -0.0332
12044TIP3    H157547   5.939   1.847  12.587  0.3634 -1.3541 -0.6184
12044TIP3    H257548   6.061   1.931  12.554 -0.4945  0.2972  0.3461
12045TIP3   OH257549   6.752   4.052   0.532  0.3760  0.4483  0.0442
12045TIP3    H157550   6.700   3.972   0.542  1.3101  0.1021  2.5605
12045TIP3    H257551   6.720   4.092   0.451 -3.1477 -0.1861  1.0658
12046TIP3   OH257552   2.474   1.900   5.562 -0.1490  0.5665  0.1817
12046TIP3    H157553   2.403   1.859   5.512 -0.4994  2.6902 -1.1033
12046TIP3    H257554   2.438   1.909   5.650 -1.1140  0.7290 -0.2180
12047TIP3   OH257555   0.632   5.181   1.462  0.2052  0.3175 -0.2952
12047TIP3    H157556   0.689   5.255   1.439  1.4415 -0.7599 -0.7617
12047TIP3    H257557   0.684   5.129   1.524 -0.2040 -0.7711 -0.8604
12048TIP3   OH257558   6.594   2.296   5.458  0.4196 -0.0107 -0.4913
12048TIP3    H157559   6.558   2.373   5.414  0.5275  0.1564 -0.2896
12048TIP3    H257560   6.623   2.329   5.544 -0.5856 -0.5014  0.0448
12049TIP3   OH257561   2.902   1.364  12.548 -0.4078  0.5094  0.1482
12049TIP3    H157562   2.814   1.326  12.551  0.3690 -1.4650 -1.0289
12049TIP3    H257563   2.891   1.453  12.582 -2.9393  0.4548 -0.4220
12050TIP3   OH257564   3.081   4.398  11.117 -0.2231  0.0504  0.0025
12050TIP3    H157565   3.152   4.338  11.140  0.6796  1.2527  0.3729
12050TIP3    H257566   3.002   4.355  11.151  0.3186 -1.2830 -0.4069
12051TIP3   OH257567   5.336   5.618   4.206 -1.1086  0.2587 -0.8125
12051TIP3    H157568   5.304   5.566   4.132  0.4860 -1.2272 -0.4933
12051TIP3    H257569   5.418   5.656   4.175 -0.8176  0.2439 -0.0669
12052TIP3   OH257570   0.726   0.425   3.732  0.5865 -0.1952  0.1153
12052TIP3    H157571   0.788   0.497   3.723  0.3200  0.1923  1.3365
12052TIP3    H257572   0.697   0.429   3.823 -1.1938 -0.4121 -0.4370
12053TIP3   OH257573   0.969   1.628   0.939  0.0941 -0.1060  0.2771
12053TIP3    H157574   1.037   1.679   0.982  0.0468  3.6407 -3.7469
12053TIP3    H257575   0.892   1.684   0.941 -1.3066 -1.9641 -0.1819
12054TIP3   OH257576   0.660   5.990  16.318  0.0442 -0.0139  0.2785
12054TIP3    H157577   0.657   6.065  16.378 -2.5888  0.7552 -0.7366
12054TIP3    H257578   0.696   6.026  16.237  0.8790 -0.3897  0.4740
12055TIP3   OH257579   4.266   1.823  11.802 -0.0216  0.4666  0.2849
12055TIP3    H157580   4.252   1.775  11.721  0.2089  1.2646 -0.2385
12055TIP3    H257581   4.277   1.914  11.774  0.9891  0.6157  1.1329
12056TIP3   OH257582   4.827   1.031   3.402 -0.2442 -0.0287 -0.8951
12056TIP3    H157583   4.785   0.949   3.429  0.6219 -0.7589 -1.7240
12056TIP3    H257584   4.758   1.080   3.358 -1.0061  0.0897  0.4135
12057TIP3   OH257585   6.489   5.431  12.478 -0.0256 -0.4493 -0.1149
12057TIP3    H157586   6.445   5.396  12.556 -0.6192  0.0803 -0.2025
12057TIP3    H257587   6.562   5.482  12.513 -2.5036  2.9519  0.3306
12058TIP3   OH257588   5.506   3.467  13.705 -0.0479  0.2489 -0.3275
12058TIP3    H157589   5.563   3.542  13.691  0.2455 -0.0632 -0.8410
12058TIP3    H257590   5.487   3.435  13.616  0.2394 -0.5877 -0.0926
12059TIP3   OH257591   5.087   2.304   0.803  0.0587  0.3126  0.5498
12059TIP3    H157592   4.992   2.310   0.797  0.0032 -0.1604  0.9254
12059TIP3    H257593   5.112   2.374   0.863 -0.2704 -1.0162  2.2569
12060TIP3   OH257594   0.640   0.639   3.121 -0.5528  0.0312 -0.3814
12060TIP3    H157595   0.673   0.568   3.065 -0.2378  0.9714 -1.3944
12060TIP3    H257596   0.658   0.719   3.072 -1.8271  0.7551  0.2999
12061TIP3   OH257597   1.851   6.196  14.125  0.5866 -0.2827 -0.4991
12061TIP3    H157598   1.845   6.175  14.032 -1.7529  0.0806 -0.4815
12061TIP3    H257599   1.943   6.184  14.147  1.4685  1.1601 -3.2196
12062TIP3   OH257600   2.059   2.158  15.517 -0.4362 -0.4895  0.0590
12062TIP3    H157601   2.052   2.147  15.422 -2.3894 -3.5464  0.4960
12062TIP3    H257602   2.134   2.104  15.541  0.1866  0.4520  0.2567
12063TIP3   OH257603   5.167   1.272  17.046  0.8306 -0.2167 -0.2000
12063TIP3    H157604   5.102   1.279  17.116 -0.1452 -1.1111 -1.0021
12063TIP3    H257605   5.207   1.186  17.060 -0.6521 -1.1856 -1.8281
12064TIP3   OH257606   0.277   0.775   6.091 -0.0659  0.2079  0.3951
12064TIP3    H157607   0.245   0.858   6.126 -0.3069  0.2908 -0.0196
12064TIP3    H257608   0.255   0.711   6.158  0.8342  0.6014  1.0696
12065TIP3   OH257609   6.462   1.781  10.865  0.3483  0.5549  0.1235
12065TIP3    H157610   6.370   1.758  10.882  0.6108 -0.6738 -0.0653
12065TIP3    H257611   6.457   1.854  10.804 -0.5052  0.4354  0.0371
12066TIP3   OH257612   6.412   2.161   5.907  0.0451 -0.3751 -0.2645
12066TIP3    H157613   6.398   2.080   5.957 -0.4824 -0.3034 -0.2913
12066TIP3    H257614   6.494   2.197   5.942  0.7624 -1.3881 -0.8849
12067TIP3   OH257615   0.792   5.697   4.938  0.0301  0.3514 -0.0513
12067TIP3    H157616   0.699   5.718   4.926 -0.9042 -2.3725  1.9204
12067TIP3    H257617   0.811   5.723   5.028  1.1679  0.7449 -0.3953
12068TIP3   OH257618   3.323   0.716  13.662  0.1910 -0.2581 -0.7784
12068TIP3    H157619   3.419   0.722  13.667  0.4450 -0.9760 -4.1137
12068TIP3    H257620   3.294   0.807  13.660  0.6285 -0.0031  2.2020
12069TIP3   OH257621   5.530   5.239  13.328  0.0725 -0.0481  0.0691
12069TIP3    H157622   5.557   5.147  13.332 -0.7103 -0.2962 -0.1987
12069TIP3    H257623   5.456   5.245  13.388 -1.5576 -0.2095 -1.8533
12070TIP3   OH257624   6.242   0.496  15.154 -0.0076 -0.1428 -0.8208
12070TIP3    H157625   6.278   0.526  15.238  0.0815 -1.0363 -0.5337
12070TIP3    H257626   6.209   0.408  15.172 -0.9335  0.0616 -1.4712
12071TIP3   OH257627   1.297   1.362   6.360 -0.4318 -0.0084  0.4609
12071TIP3    H157628   1.244   1.299   6.409 -3.4886  1.5613 -0.7675
12071TIP3    H257629   1.274   1.447   6.397  1.2139  0.7086 -0.1265
12072TIP3   OH257630   1.821   0.444   5.074 -0.0465 -0.2100  0.0625
12072TIP3    H157631   1.809   0.484   4.989  2.6999  1.1480  0.2554
12072TIP3    H257632   1.763   0.493   5.133 -2.0589 -1.2501 -0.9790
12073TIP3   OH257633   1.952   1.976   2.036  0.4820 -0.0815  0.3520
12073TIP3    H157634   2.035   2.023   2.036  1.1861 -1.3204  0.0011
12073TIP3    H257635   1.893   2.031   1.983  0.9293  1.0324  1.0075
12074TIP3   OH257636   1.245   4.427   3.963  0.1630 -0.3887 -0.5007
12074TIP3    H157637   1.330   4.472   3.962 -0.6531  1.1658 -0.0810
12074TIP3    H257638   1.217   4.431   4.054 -0.6868 -0.3152 -0.7684
12075TIP3   OH257639   5.639   0.564   3.974  0.3115  0.1433 -0.1182
12075TIP3    H157640   5.559   0.617   3.975 -0.9448 -1.7306  2.6260
12075TIP3    H257641   5.708   0.626   3.952 -1.5168  2.3298  0.1416
12076TIP3   OH257642   6.582   1.448  12.871  0.0694  0.1105  0.3765
12076TIP3    H157643   6.653   1.392  12.901  0.3066 -0.1224 -0.5986
12076TIP3    H257644   6.502   1.400  12.894  0.2482 -0.0286  0.7003
12077TIP3   OH257645   5.367   4.729  15.191 -0.0744  0.0675 -0.0645
12077TIP3    H157646   5.329   4.653  15.236  1.9065 -1.0288 -0.1804
12077TIP3    H257647   5.443   4.753  15.243 -0.4670  1.7656 -0.2429
12078TIP3   OH257648   6.701   1.632  14.862  0.2809 -0.0069 -0.2980
12078TIP3    H157649   6.608   1.621  14.880  0.8430 -0.7873  2.2722
12078TIP3    H257650   6.721   1.722  14.887  0.1879  0.2223 -1.0333
12079TIP3   OH257651   6.221   4.519   4.933  0.0719  0.1451 -0.5960
12079TIP3    H157652   6.288   4.457   4.961 -0.4561 -0.8834 -1.5884
12079TIP3    H257653   6.145   4.499   4.988 -0.2779 -0.4687 -1.2929
12080TIP3   OH257654   3.076   5.348   4.277 -0.1756 -0.2684  0.1285
12080TIP3    H157655   3.101   5.405   4.203 -0.2300 -0.3691  0.0318
12080TIP3    H257656   3.112   5.262   4.253  0.0490 -0.2362  0.3508
12081TIP3   OH257657   4.808   4.103   0.418 -0.2724  0.5383 -0.1116
12081TIP3    H157658   4.732   4.153   0.387  0.0004  0.9433 -0.1302
12081TIP3    H257659   4.852   4.162   0.479 -0.7878 -0.2346  1.0392
12082TIP3   OH257660   3.382   3.903  12.699  0.4911 -0.5925  0.0877
12082TIP3    H157661   3.379   3.824  12.752  0.4535  0.2317  1.3508
12082TIP3    H257662   3.314   3.891  12.633 -0.8616 -0.7841  1.4872
12083TIP3   OH257663   6.495   3.922   2.763  0.1462 -0.0938 -0.2659
12083TIP3    H157664   6.514   3.832   2.738  0.1599 -0.2721  0.4050
12083TIP3    H257665   6.473   3.918   2.856 -2.5359  0.1939 -0.8492
12084TIP3   OH257666   3.398   4.607   0.831 -0.3837 -0.2086  0.3851
12084TIP3    H157667   3.461   4.584   0.762 -1.5631 -1.5194 -0.2815
12084TIP3    H257668   3.323   4.642   0.784 -0.4771  0.6196  1.1355
12085TIP3   OH257669   3.065   5.964  16.919  0.3130  0.2056 -0.2397
12085TIP3    H157670   2.972   5.976  16.901  0.0187  2.3704  2.3539
12085TIP3    H257671   3.067   5.905  16.994  0.9984  0.5686  0.0345
12086TIP3   OH257672   0.812   0.964  13.429 -0.2641 -0.0457 -0.9413
12086TIP3    H157673   0.739   1.017  13.460  0.5724 -0.3248  1.6040
12086TIP3    H257674   0.885   1.025  13.422  0.3393 -0.5499  0.6577
12087TIP3   OH257675   5.935   5.128  12.287  0.1950 -0.3708 -0.6689
12087TIP3    H157676   6.018   5.082  12.277 -0.5101 -2.3959  2.3231
12087TIP3    H257677   5.912   5.156  12.198  4.8128  1.6668 -1.3483
12088TIP3   OH257678   5.841   4.318  14.310 -0.2181 -0.0656 -0.8021
12088TIP3    H157679   5.932   4.288  14.298  0.7705  2.4136  0.1667
12088TIP3    H257680   5.828   4.317  14.405 -0.4907  1.5443 -0.8080
12089TIP3   OH257681   3.047   4.861   0.234 -0.3410  0.1387  0.1027
12089TIP3    H157682   3.064   4.894   0.322  1.9186 -0.7166  0.0047
12089TIP3    H257683   3.111   4.905   0.179 -1.1423 -0.0250 -0.9714
12090TIP3   OH257684   0.404   2.880  15.345 -0.0223  0.1269 -0.6650
12090TIP3    H157685   0.467   2.882  15.417 -0.3747 -1.1818 -0.3037
12090TIP3    H257686   0.437   2.944  15.283  1.7168 -0.5915 -0.5217
12091TIP3   OH257687   1.481   4.784  17.024  0.2734  0.0207 -0.5118
12091TIP3    H157688   1.453   4.787  16.932  1.1307  0.0144 -0.7793
12091TIP3    H257689   1.460   4.871  17.058 -0.7981 -0.2470 -0.4908
12092TIP3   OH257690   4.776   1.809  17.217 -0.5140  0.4840  0.0772
12092TIP3    H157691   4.849   1.855  17.258  1.4061 -1.2582 -1.2903
12092TIP3    H257692   4.717   1.879  17.187  0.5856  1.9112  1.1948
12093TIP3   OH257693   1.355   0.964   0.805  0.0592  0.3347  0.1342
12093TIP3    H157694   1.273   1.009   0.785  0.4154  1.2298  0.6657
12093TIP3    H257695   1.367   0.903   0.732  0.2423  2.0246 -1.2773
12094TIP3   OH257696   2.070   2.047  15.778 -0.6032  0.3356  0.3029
12094TIP3    H157697   2.038   2.126  15.734  0.6811  1.2998  1.0669
12094TIP3    H257698   2.021   1.975  15.737 -0.0976  1.2901 -2.0506
12095TIP3   OH257699   5.371   3.552   5.667  0.4008  0.4902 -0.4362
12095TIP3    H157700   5.394   3.547   5.575  2.1703 -1.3426  0.0633
12095TIP3    H257701   5.313   3.477   5.682  1.1992 -0.0260  0.1915
12096TIP3   OH257702   3.957   5.218   1.976  0.4388 -0.3767 -0.4450
12096TIP3    H157703   4.019   5.229   2.048 -1.0332  1.3178  0.6008
12096TIP3    H257704   3.940   5.307   1.945 -2.0475 -0.7231 -0.1976
12097TIP3   OH257705   1.039   1.384  16.826 -0.0953  0.1634  0.4600
12097TIP3    H157706   1.108   1.394  16.891  0.1666 -1.9041  0.5271
12097TIP3    H257707   0.995   1.303  16.850 -1.7522  0.8152 -0.3268
12098TIP3   OH257708   2.118   4.032  14.022  0.2218  0.1957  0.1176
12098TIP3    H157709   2.048   4.088  14.056  1.0665  1.7071 -0.6127
12098TIP3    H257710   2.195   4.088  14.020  1.6142 -1.6054  1.4022
12099TIP3   OH257711   6.691   2.549   4.806 -0.2429  0.2940 -0.6087
12099TIP3    H157712   6.721   2.458   4.816  1.2678  0.9782  1.5975
12099TIP3    H257713   6.761   2.591   4.756 -0.4453  0.5030 -0.7176
12100TIP3   OH257714   3.764   3.429   3.050  0.7881  0.0468  0.4317
12100TIP3    H157715   3.790   3.455   3.139  0.0236 -1.4157  1.0949
12100TIP3    H257716   3.701   3.496   3.024  0.1622 -0.1381  1.4396
12101TIP3   OH257717   1.418   6.521  12.819  0.2255  0.7353  0.0507
12101TIP3    H157718   1.407   6.520  12.724 -2.2608 -0.6970  0.3020
12101TIP3    H257719   1.361   6.591  12.849  0.2791  0.5674  0.5484
12102TIP3   OH257720   5.196   0.631  15.077  0.0913 -0.6462  0.2326
12102TIP3    H157721   5.263   0.693  15.048  0.7240 -1.7893 -0.7843
12102TIP3    H257722   5.166   0.666  15.162 -0.8886  2.0497 -1.1519
12103TIP3   OH257723   2.064   5.618  13.536  0.4967 -0.2700 -0.3844
12103TIP3    H157724   1.970   5.637  13.529  0.2844 -0.9280  0.5725
12103TIP3    H257725   2.103   5.701  13.564  0.2095  0.0079 -0.7879
12104TIP3   OH257726   2.742   1.544  13.077  0.2057  0.2722  0.0054
12104TIP3    H157727   2.663   1.594  13.055 -0.3141 -1.0638 -1.2928
12104TIP3    H257728   2.729   1.516  13.167 -0.2186  1.1461  0.2174
12105TIP3   OH257729   6.086   4.243  14.914  0.2743  0.0805 -0.3950
12105TIP3    H157730   6.069   4.163  14.964 -1.3500  0.2911 -0.5846
12105TIP3    H257731   6.160   4.220  14.857  2.4553 -0.0085  2.3984
12106TIP3   OH257732   1.306   0.812   2.489  0.2513  0.0559  0.2742
12106TIP3    H157733   1.261   0.727   2.482 -0.2912  0.0821  2.9653
12106TIP3    H257734   1.393   0.795   2.454 -0.2367 -1.2991 -0.3380
12107TIP3   OH257735   6.660   3.252  16.640 -0.4590  0.2372 -0.3871
12107TIP3    H157736   6.674   3.248  16.545 -1.9601  0.8437 -0.6646
12107TIP3    H257737   6.583   3.309  16.649  0.4669  1.2404  1.2788
12108TIP3   OH257738   2.385   4.187   5.151 -0.2835  0.1804  0.2333
12108TIP3    H157739   2.294   4.174   5.124 -0.1789 -0.2507  0.0918
12108TIP3    H257740   2.424   4.237   5.079 -0.7266  1.4545  0.8529
12109TIP3   OH257741   4.500   5.938  15.193 -0.0508  0.0024  0.4232
12109TIP3    H157742   4.592   5.922  15.211  0.1824  1.6555  0.8287
12109TIP3    H257743   4.463   5.852  15.176  1.2352 -0.8499  1.8607
12110TIP3   OH257744   4.004   1.618   0.388  0.1203 -0.2976  0.2712
12110TIP3    H157745   4.009   1.536   0.340 -0.2667 -0.2276  0.1084
12110TIP3    H257746   3.952   1.675   0.332 -0.8336 -0.4020  1.0484
12111TIP3   OH257747   6.419   0.005  12.675  0.0476  0.2435  0.3755
12111TIP3    H157748   6.331  -0.032  12.680 -0.4425  1.1404 -1.1697
12111TIP3    H257749   6.466  -0.054  12.616 -0.3725  1.3560 -1.0979
12112TIP3   OH257750   1.519   1.190  12.105 -0.1619  0.1499 -0.3979
12112TIP3    H157751   1.597   1.183  12.160  0.2048  0.3592 -0.8913
12112TIP3    H257752   1.446   1.179  12.166  0.2368  0.7090  0.1818
12113TIP3   OH257753   6.347   0.780   2.472 -0.1242 -0.1170  0.4705
12113TIP3    H157754   6.368   0.822   2.389 -1.1146  0.3545  0.4515
12113TIP3    H257755   6.329   0.853   2.532  3.8621 -0.2996  2.0433
12114TIP3   OH257756   2.897   2.015  14.240 -0.1845 -0.2266 -0.4955
12114TIP3    H157757   2.850   1.937  14.211  0.0716 -0.0979 -1.2828
12114TIP3    H257758   2.982   2.009  14.198 -0.5972  1.0905 -1.5644
12115TIP3   OH257759   2.524   1.096   1.091 -0.3947  0.2220  0.0797
12115TIP3    H157760   2.558   1.008   1.106 -1.7460 -0.1625  0.9771
12115TIP3    H257761   2.583   1.133   1.025  2.5353  0.0755  2.5205
12116TIP3   OH257762   4.495   3.594   0.477  0.1826  0.1866 -0.3000
12116TIP3    H157763   4.551   3.614   0.552  0.2305 -2.1862  0.3532
12116TIP3    H257764   4.418   3.650   0.489  1.7938  2.5327 -0.5190
12117TIP3   OH257765   0.655   4.985   3.719 -0.3297  0.9096  0.1551
12117TIP3    H157766   0.652   5.030   3.635 -2.8065  0.0538 -0.2428
12117TIP3    H257767   0.568   4.998   3.756 -0.7522 -2.6221  0.5278
12118TIP3   OH257768   2.840   3.765  12.241  0.6777  1.0272  0.8343
12118TIP3    H157769   2.797   3.849  12.259  0.8881  1.6112 -1.3206
12118TIP3    H257770   2.926   3.789  12.208  1.4291 -0.0887  1.9530
12119TIP3   OH257771   6.057   0.174   5.636 -0.6449 -0.3767  0.0311
12119TIP3    H157772   6.141   0.147   5.674  0.0354  3.2148  1.2610
12119TIP3    H257773   6.069   0.165   5.542  0.3486 -2.0116  0.2988
12120TIP3   OH257774   2.267   5.923  15.422  0.3243 -0.6603 -0.2150
12120TIP3    H157775   2.186   5.872  15.417 -0.0635 -0.1883  0.9806
12120TIP3    H257776   2.314   5.902  15.341 -0.8491 -1.1790 -0.7740
12121TIP3   OH257777   1.522   1.084  14.325 -0.1687 -0.3574 -0.4439
12121TIP3    H157778   1.520   1.110  14.232  0.6061  1.9174  0.1361
12121TIP3    H257779   1.610   1.105  14.354 -0.7205 -0.0798  1.0857
12122TIP3   OH257780   1.553   1.177   5.388 -0.2145  0.0626  0.2242
12122TIP3    H157781   1.549   1.113   5.459 -2.5426  0.2254  0.2782
12122TIP3    H257782   1.498   1.249   5.418  0.7803  1.2089 -0.6922
12123TIP3   OH257783   1.450   4.645   3.990  0.7333 -0.2541  0.5520
12123TIP3    H157784   1.535   4.678   4.018  0.7362 -0.4650  0.7965
12123TIP3    H257785   1.386   4.699   4.037  0.7366 -0.4622  0.7971
12124TIP3   OH257786   3.859   1.784  16.643 -0.6541  0.6856  0.5058
12124TIP3    H157787   3.853   1.832  16.560 -0.1650  1.8115  1.1149
12124TIP3    H257788   3.842   1.850  16.710 -2.0808 -0.4400  1.2636
12125TIP3   OH257789   0.543   0.733  16.238  0.3824 -0.4559  0.1839
12125TIP3    H157790   0.517   0.800  16.175  0.9147 -0.6504 -0.2501
12125TIP3    H257791   0.466   0.721  16.294  0.6521  1.2810  0.9413
12126TIP3   OH257792   0.938   2.834  17.019 -0.9537  0.3207  0.7436
12126TIP3    H157793   0.850   2.818  17.055 -1.3589  0.9136  0.0233
12126TIP3    H257794   0.934   2.923  16.986 -0.4089 -0.0348 -0.2851
12127TIP3   OH257795   4.592   5.773   1.866  0.0415 -1.0617 -0.2978
12127TIP3    H157796   4.634   5.693   1.897  0.5229 -0.5224  0.4603
12127TIP3    H257797   4.604   5.771   1.772  0.9819 -1.3596 -0.1794
12128TIP3   OH257798   0.160   0.490   4.061  0.2421  0.1891 -0.3592
12128TIP3    H157799   0.212   0.543   4.121  2.9253 -0.9018 -1.6069
12128TIP3    H257800   0.119   0.423   4.116  2.8108 -0.9104  0.2935
12129TIP3   OH257801   5.982   3.594   0.490  0.0704 -0.0566 -0.0352
12129TIP3    H157802   5.887   3.603   0.481 -0.0901 -1.2085  0.4145
12129TIP3    H257803   5.998   3.501   0.473  0.9175 -0.2185  1.5748
12130TIP3   OH257804   5.933   1.811  16.560 -0.1579 -0.0810 -0.3280
12130TIP3    H157805   5.909   1.727  16.599  0.2461  0.5070  1.2260
12130TIP3    H257806   6.026   1.820  16.577 -0.1002  0.4788 -0.9122
12131TIP3   OH257807   2.110   0.678  15.356  0.4123  0.0359 -0.1172
12131TIP3    H157808   2.118   0.749  15.420 -1.3936 -0.5145  0.7607
12131TIP3    H257809   2.043   0.709  15.295 -0.9287 -1.1899  0.6945
12132TIP3   OH257810   4.748   4.410   1.929 -0.3698 -0.0703  0.1052
12132TIP3    H157811   4.697   4.430   1.851 -1.2009 -1.1980  0.3428
12132TIP3    H257812   4.689   4.358   1.983  0.2553  0.5768  1.4251
12133TIP3   OH257813   5.780   5.011  11.542 -0.5614 -0.1481 -0.7450
12133TIP3    H157814   5.802   5.064  11.618 -0.1065 -0.6682 -0.5111
12133TIP3    H257815   5.864   4.981  11.508 -0.7604  0.2461 -1.5669
12134TIP3   OH257816   6.769   6.732  10.846  0.0425  0.2819  0.0552
12134TIP3    H157817   6.764   6.658  10.785  0.0824 -0.0464  0.4477
12134TIP3    H257818   6.780   6.809  10.789 -0.5689  0.0524 -0.3841
12135TIP3   OH257819   3.829   5.466   5.692 -0.2558 -0.2247 -0.4590
12135TIP3    H157820   3.910   5.473   5.742  0.1952  0.8789 -1.3217
12135TIP3    H257821   3.809   5.373   5.692  0.9808 -0.4995 -0.1696
12136TIP3   OH257822   1.950   0.655  16.176  0.1503 -0.0365  0.0426
12136TIP3    H157823   1.943   0.580  16.236 -0.5252 -0.4685 -0.5662
12136TIP3    H257824   1.860   0.685  16.166  0.0766 -0.8549 -1.8785
12137TIP3   OH257825   5.605   3.707   1.594  0.5416 -0.1829  0.5481
12137TIP3    H157826   5.586   3.728   1.685  0.1256  0.1567  0.3826
12137TIP3    H257827   5.688   3.659   1.598  1.5877  1.5847  0.9381
12138TIP3   OH257828   0.040   3.085   4.976 -0.2115  0.0011  0.1201
12138TIP3    H157829   0.040   2.990   4.991 -1.0717  0.0330  0.3267
12138TIP3    H257830  -0.032   3.118   5.029  0.8875  0.9425  1.0438
12139TIP3   OH257831   4.019   4.328   4.544 -0.1152  0.0488  0.0134
12139TIP3    H157832   4.002   4.240   4.578  1.4115  0.8931  3.1472
12139TIP3    H257833   4.114   4.332   4.536 -0.2915  0.7913 -1.9979
12140TIP3   OH257834   0.142   2.933  12.227 -0.3795  0.1836  0.2013
12140TIP3    H157835   0.219   2.893  12.186  0.3094 -0.2322  1.8817
12140TIP3    H257836   0.071   2.872  12.207 -0.1058  0.1141 -0.5962
12141TIP3   OH257837   6.270   3.490  11.194 -0.3052  0.3858  0.1163
12141TIP3    H157838   6.277   3.541  11.113 -0.8215  0.9626  0.4212
12141TIP3    H257839   6.326   3.536  11.256  0.0726 -0.0444  0.0977
12142TIP3   OH257840   2.617   4.342   6.092 -0.7284 -0.0759  0.2797
12142TIP3    H157841   2.612   4.328   5.997  1.4034  0.9371 -0.0083
12142TIP3    H257842   2.556   4.414   6.108 -1.8205 -0.8867 -0.1680
12143TIP3   OH257843   0.789   0.116   3.039 -0.3534 -0.1099 -0.6653
12143TIP3    H157844   0.826   0.029   3.027 -0.4671 -0.2340 -0.1033
12143TIP3    H257845   0.783   0.151   2.950 -2.0915 -1.4050 -1.0974
12144TIP3   OH257846   5.216   5.890   2.490  0.2808 -0.3709  0.4475
12144TIP3    H157847   5.206   5.973   2.444 -0.1835 -0.6229  0.0861
12144TIP3    H257848   5.288   5.845   2.445 -0.0889 -0.5628  0.0462
12145TIP3   OH257849   2.362   6.548  11.522  0.0177  0.3684 -0.1100
12145TIP3    H157850   2.350   6.513  11.434 -1.8691 -0.6431  0.5091
12145TIP3    H257851   2.326   6.637  11.518  0.4519  0.5309 -0.4845
12146TIP3   OH257852   4.770   5.296  11.138  0.1605  0.0698  0.2720
12146TIP3    H157853   4.679   5.296  11.168 -0.2284 -1.3789 -0.8394
12146TIP3    H257854   4.807   5.378  11.171 -2.0195  1.4610 -0.6806
12147TIP3   OH257855   2.018   4.257  16.546  0.6899  0.1790  0.1170
12147TIP3    H157856   2.001   4.164  16.554  2.1934 -0.0918  0.2945
12147TIP3    H257857   2.070   4.279  16.623  1.2135  0.9526 -0.4437
12148TIP3   OH257858   6.077   0.769  15.232  0.2749  0.4035 -0.7716
12148TIP3    H157859   6.098   0.690  15.283 -1.4223  0.0208 -0.6269
12148TIP3    H257860   6.010   0.740  15.170  0.5804  1.4421 -1.6051
12149TIP3   OH257861   1.005   4.261  12.803 -0.3483  0.1804  0.2173
12149TIP3    H157862   1.065   4.217  12.743 -1.0154  0.0288 -0.3482
12149TIP3    H257863   0.920   4.259  12.759 -0.6191  1.0682  0.6642
12150TIP3   OH257864   6.176   4.947   5.523 -0.3504 -0.0563  0.0188
12150TIP3    H157865   6.237   5.013   5.490 -0.3354  0.3584  0.8625
12150TIP3    H257866   6.221   4.910   5.599 -1.0316  0.0482  0.4722
12151TIP3   OH257867   6.552   6.198  13.982 -0.8102 -0.0274 -0.7041
12151TIP3    H157868   6.584   6.177  14.070 -1.5714 -0.2062 -0.4721
12151TIP3    H257869   6.607   6.271  13.954  1.1036 -1.5400 -1.0565
12152TIP3   OH257870   3.889   6.042  12.075  0.0017 -0.2413  0.0580
12152TIP3    H157871   3.810   6.020  12.126  0.3891 -2.0553 -0.1002
12152TIP3    H257872   3.924   5.957  12.047  1.1861  0.6277 -1.1403
12153TIP3   OH257873   6.089   1.457  14.925  0.1685  0.5775 -0.1760
12153TIP3    H157874   6.058   1.543  14.953 -0.3127  0.3087  0.1203
12153TIP3    H257875   6.179   1.472  14.894 -0.2361  1.3490 -0.9848
12154TIP3   OH257876   6.358   0.895  14.257 -0.3330  0.2205  0.2889
12154TIP3    H157877   6.333   0.887  14.349 -0.9718  2.5040  0.3359
12154TIP3    H257878   6.449   0.865  14.255 -0.2044  0.4641  1.7308
12155TIP3   OH257879   5.335   2.496   1.494  0.3505  0.3791 -0.4440
12155TIP3    H157880   5.338   2.445   1.575 -2.2247  0.5829 -0.1651
12155TIP3    H257881   5.423   2.533   1.485  0.9105 -0.3463  1.8072
12156TIP3   OH257882   3.954   0.861   6.180 -0.1835  0.6292 -0.9102
12156TIP3    H157883   4.049   0.871   6.191 -0.1841 -0.1139 -0.1819
12156TIP3    H257884   3.943   0.833   6.089  0.3919 -0.5037 -0.6405
12157TIP3   OH257885   1.265   3.750  16.750 -0.8663  0.1344  0.1924
12157TIP3    H157886   1.302   3.831  16.786 -1.5171  0.4851  0.0758
12157TIP3    H257887   1.195   3.726  16.810  0.6856 -1.5185  1.4025
12158TIP3   OH257888   5.515   2.896   2.202 -0.5405  0.2095 -0.1133
12158TIP3    H157889   5.425   2.889   2.231 -0.3467  0.8059  0.6595
12158TIP3    H257890   5.513   2.963   2.133 -0.9098 -0.7922 -1.0788
12159TIP3   OH257891   1.540   2.289   1.200 -0.0657  0.5185 -0.3743
12159TIP3    H157892   1.560   2.349   1.128 -0.0448  1.4893  0.4154
12159TIP3    H257893   1.623   2.278   1.246  0.3332 -1.5715 -1.5615
12160TIP3   OH257894   2.647   4.243  11.482 -0.2690 -0.6002 -0.5860
12160TIP3    H157895   2.552   4.248  11.489 -0.1566 -0.0895  0.7214
12160TIP3    H257896   2.679   4.305  11.548  0.9272  1.4920 -3.0587
12161TIP3   OH257897   4.244   4.582   3.418  0.3303  0.4552 -0.4054
12161TIP3    H157898   4.286   4.658   3.458 -1.2339  0.0406  2.1534
12161TIP3    H257899   4.316   4.529   3.385  1.6798  1.0286  1.5428
12162TIP3   OH257900   3.556   2.601  13.295 -0.4095  0.4912  0.3321
12162TIP3    H157901   3.585   2.576  13.207  0.5610  0.8197  0.5526
12162TIP3    H257902   3.637   2.611  13.345 -0.9738 -0.1820  1.4084
12163TIP3   OH257903   1.413   3.262   4.770  0.2438  0.2514  0.2243
12163TIP3    H157904   1.423   3.313   4.851 -0.0745 -0.6919  0.8610
12163TIP3    H257905   1.467   3.309   4.706 -0.7732  1.9134  0.5588
12164TIP3   OH257906   2.745   0.000  15.287  0.2006 -0.1819 -0.3874
12164TIP3    H157907   2.690   0.016  15.210 -1.8863 -0.5313  0.9877
12164TIP3    H257908   2.720   0.069  15.348  1.0875 -0.5278  0.3671
12165TIP3   OH257909   3.870   3.947  12.692 -0.4081  0.4069  0.0661
12165TIP3    H157910   3.843   3.864  12.652  2.7950 -0.1642 -1.0324
12165TIP3    H257911   3.842   3.939  12.783 -0.9591 -1.4998 -0.2441
12166TIP3   OH257912   1.200   4.519  14.317  0.1332  0.3274  0.1886
12166TIP3    H157913   1.133   4.568  14.269 -0.0092  1.1587  1.2163
12166TIP3    H257914   1.266   4.497  14.250  0.2762  2.0789 -0.2754
12167TIP3   OH257915   4.998   2.807  13.411  0.3273  0.9066 -0.8091
12167TIP3    H157916   4.944   2.784  13.486 -0.4439 -0.3656 -1.7170
12167TIP3    H257917   5.032   2.894  13.431  0.4679  0.4121  1.1743
12168TIP3   OH257918   0.604   6.356   5.373  0.3870 -0.2474 -0.1004
12168TIP3    H157919   0.522   6.376   5.416  2.0659  1.9192  2.2320
12168TIP3    H257920   0.613   6.261   5.381 -0.7844 -0.2294  1.6492
12169TIP3   OH257921   5.374   5.796  16.595  0.1754  0.3323  0.4878
12169TIP3    H157922   5.337   5.711  16.618  1.7172 -0.4846 -0.0072
12169TIP3    H257923   5.382   5.794  16.500 -2.8882  2.3512  0.1134
12170TIP3   OH257924   5.242   5.354   1.934  0.2571 -0.3394 -0.6285
12170TIP3    H157925   5.194   5.332   1.855  1.6626 -1.1079 -1.2928
12170TIP3    H257926   5.317   5.405   1.904  0.2133  0.3001  0.3182
12171TIP3   OH257927   2.843   4.834  13.757  0.0750 -0.1475  0.5496
12171TIP3    H157928   2.825   4.816  13.849  1.6775 -2.7502  0.3866
12171TIP3    H257929   2.904   4.766  13.731 -0.1033  0.7640 -2.3674
12172TIP3   OH257930   4.967   2.397  17.052 -0.2012 -0.0118  0.9426
12172TIP3    H157931   4.945   2.489  17.069 -0.9154 -0.1644  0.8715
12172TIP3    H257932   5.060   2.398  17.029 -0.7213  0.9924 -1.2757
12173TIP3   OH257933   0.390   6.136   3.512 -0.3575  0.0325 -0.0691
12173TIP3    H157934   0.416   6.074   3.580 -1.8179  0.0150  0.4986
12173TIP3    H257935   0.344   6.205   3.560 -0.7957  0.3605 -0.9616
12174TIP3   OH257936   4.908   4.959   5.248 -0.5355 -0.2613  0.1015
12174TIP3    H157937   4.921   4.981   5.341  2.9721  1.5657 -0.7088
12174TIP3    H257938   4.988   4.913   5.224 -0.9512  0.2159 -2.2651
12175TIP3   OH257939   4.379   3.018   2.181 -0.3738  0.3274 -0.3280
12175TIP3    H157940   4.458   2.966   2.198  0.0245  0.3606 -2.0280
12175TIP3    H257941   4.408   3.089   2.124 -1.5895  0.4663 -0.7896
12176TIP3   OH257942   6.340   5.666   0.851  0.2651 -0.1809 -0.0317
12176TIP3    H157943   6.401   5.723   0.898 -1.7597  2.0330  0.0451
12176TIP3    H257944   6.303   5.722   0.783 -0.0398 -2.1245 -1.5223
12177TIP3   OH257945   2.088   6.316   4.761  0.2352 -0.6562 -0.3176
12177TIP3    H157946   2.152   6.246   4.743  0.7187  0.0971 -1.5947
12177TIP3    H257947   2.142   6.393   4.777 -0.3561 -0.1029 -1.0012
12178TIP3   OH257948   4.617   2.005   4.340 -0.3686 -0.0392 -0.4987
12178TIP3    H157949   4.544   2.048   4.384  0.8017 -0.9302  2.4621
12178TIP3    H257950   4.691   2.065   4.350  0.3165 -0.9850  0.2399
12179TIP3   OH257951   3.378   5.107  16.385 -0.6704 -0.4177 -0.2364
12179TIP3    H157952   3.322   5.185  16.382 -1.5173 -0.8691  2.4019
12179TIP3    H257953   3.461   5.139  16.419 -1.6772 -0.9518  2.9042
12180TIP3   OH257954   1.835   4.470   3.714  0.5429 -0.4522  0.3572
12180TIP3    H157955   1.829   4.464   3.619  0.7302 -0.9555  0.3749
12180TIP3    H257956   1.760   4.523   3.740 -0.4843 -1.7583  0.0762
12181TIP3   OH257957   2.635   1.084   6.291 -0.1434 -0.0856  0.3118
12181TIP3    H157958   2.721   1.103   6.330 -0.1934 -1.4481  1.1382
12181TIP3    H257959   2.573   1.096   6.364 -0.6155  0.5167 -0.1836
12182TIP3   OH257960   6.610   1.111   5.598 -0.2184 -0.6561 -0.0859
12182TIP3    H157961   6.582   1.191   5.643  3.0476  1.2342 -1.2214
12182TIP3    H257962   6.553   1.104   5.522  0.6536  1.7299 -1.0213
12183TIP3   OH257963   6.027   5.789   6.247 -0.3238  0.0994  0.1112
12183TIP3    H157964   6.059   5.703   6.274 -0.7526  0.0107  0.3339
12183TIP3    H257965   5.934   5.788   6.266 -0.1325  1.0222  1.1774
12184TIP3   OH257966   2.645   3.409   1.190  0.2754  0.6098 -0.5707
12184TIP3    H157967   2.667   3.317   1.208  1.1135  0.7982 -0.6026
12184TIP3    H257968   2.726   3.446   1.156 -0.0686  1.3633 -0.5703
12185TIP3   OH257969   0.246   4.640  14.396  0.5252 -1.0103 -0.0297
12185TIP3    H157970   0.268   4.677  14.310 -1.1291 -0.4819 -0.2573
12185TIP3    H257971   0.211   4.714  14.446 -0.8598 -1.8102  0.2287
12186TIP3   OH257972   4.466   0.427  11.008  0.3941  0.1269  0.2881
12186TIP3    H157973   4.521   0.355  10.976  0.1388 -0.7798  1.8636
12186TIP3    H257974   4.377   0.396  10.999  0.3564 -0.7525  3.2408
12187TIP3   OH257975   4.273   6.416   1.565 -0.1118 -0.0971 -0.1189
12187TIP3    H157976   4.205   6.430   1.500  1.9500  1.6720 -2.0076
12187TIP3    H257977   4.324   6.342   1.531  0.7979  0.6426 -0.3937
12188TIP3   OH257978   3.002   1.879  13.787  0.6359 -0.7152  0.3543
12188TIP3    H157979   3.018   1.840  13.873  2.1334 -1.3209 -0.1820
12188TIP3    H257980   3.085   1.869  13.741  0.8195  2.4037 -0.0837
12189TIP3   OH257981   0.410   3.274  14.554  0.2138  0.3132  0.1228
12189TIP3    H157982   0.427   3.294  14.462 -0.2391 -2.3983 -0.6155
12189TIP3    H257983   0.318   3.248  14.556  0.0643  0.9325  1.4587
12190TIP3   OH257984   2.929   2.033   4.187  0.1949  0.0376 -0.2991
12190TIP3    H157985   2.973   2.065   4.108 -2.6820  0.0127 -1.9813
12190TIP3    H257986   2.966   1.946   4.202  1.8692  0.6612 -0.6795
12191TIP3   OH257987   1.210   1.645   6.472 -0.5492  0.0293 -0.2537
12191TIP3    H157988   1.273   1.706   6.431 -0.3236  2.0752  2.9865
12191TIP3    H257989   1.125   1.683   6.452 -0.5410 -0.0348 -0.4180
12192TIP3   OH257990   2.825   2.676   6.551 -0.3010 -0.8865  0.0095
12192TIP3    H157991   2.835   2.624   6.631 -0.9081  0.6299  1.0890
12192TIP3    H257992   2.731   2.676   6.533 -0.5733  1.5414  1.2074
12193TIP3   OH257993   6.078   2.105  14.630  0.2865 -0.2434  0.4762
12193TIP3    H157994   6.041   2.150  14.706  0.0818 -0.3021  0.4121
12193TIP3    H257995   6.002   2.075  14.580  0.4188  0.6857 -0.2858
12194TIP3   OH257996   4.507   6.480   3.274  0.3579  0.1438 -0.8053
12194TIP3    H157997   4.491   6.387   3.292  1.4587 -0.1408 -1.2737
12194TIP3    H257998   4.562   6.510   3.347 -1.0248  0.7471  0.0085
12195TIP3   OH257999   3.531   0.655   4.857 -0.0694  0.2116 -0.2841
12195TIP3    H158000   3.520   0.630   4.765  0.2615  0.2338 -0.3293
12195TIP3    H258001   3.625   0.671   4.866 -0.1301  0.3942  0.0103
12196TIP3   OH258002   2.714   4.359   0.466  0.1749  0.0956 -0.0515
12196TIP3    H158003   2.662   4.279   0.466 -0.1907  0.3265 -0.5682
12196TIP3    H258004   2.758   4.358   0.381  0.0442  0.5191 -0.1274
12197TIP3   OH258005   5.302   2.792   1.384  0.2166 -0.1884  0.6736
12197TIP3    H158006   5.385   2.804   1.338 -0.7323  3.2219 -0.3471
12197TIP3    H258007   5.310   2.848   1.461 -0.8963 -0.3437  0.9053
12198TIP3   OH258008   4.278   1.466   0.350 -0.1081  0.3442 -0.6544
12198TIP3    H158009   4.294   1.547   0.399 -1.2586  0.0637  0.2172
12198TIP3    H258010   4.227   1.411   0.410 -0.3397 -0.5689 -1.6585
12199TIP3   OH258011   1.668   2.844  11.623  0.5445  0.2262 -0.2813
12199TIP3    H158012   1.722   2.884  11.691 -1.6978 -1.2805  2.5307
12199TIP3    H258013   1.729   2.795  11.570  2.2505  0.5262  1.3280
12200TIP3   OH258014   4.569   5.266   0.375  0.3580 -0.5293  0.5808
12200TIP3    H158015   4.536   5.292   0.461  0.0761 -1.5418  0.7846
12200TIP3    H258016   4.663   5.280   0.380  0.3014 -0.2709  0.9436
12201TIP3   OH258017   3.796   3.294   3.410 -0.5971 -0.5137 -0.0271
12201TIP3    H158018   3.824   3.371   3.359  0.6653 -0.7541  0.2926
12201TIP3    H258019   3.816   3.317   3.501 -1.5246 -0.6691  0.2237
12202TIP3   OH258020   4.284   1.423   1.200  0.0999 -0.3849 -0.0981
12202TIP3    H158021   4.371   1.404   1.167  0.9968  1.1894  1.2527
12202TIP3    H258022   4.271   1.516   1.182 -1.6501 -0.7779 -1.0267
12203TIP3   OH258023   3.785   2.195   1.253  0.1713 -0.4735  0.2621
12203TIP3    H158024   3.871   2.203   1.293  0.1886  1.7853 -0.1548
12203TIP3    H258025   3.736   2.137   1.311  1.2724  0.0136  1.6931
12204TIP3   OH258026   5.989   6.058   6.314 -0.7837 -0.6739 -0.5611
12204TIP3    H158027   5.893   6.060   6.314 -0.8109 -1.7406 -0.1057
12204TIP3    H258028   6.012   5.966   6.303  0.1718 -0.6165  0.7333
12205TIP3   OH258029   3.647   4.395   1.452 -0.3612  0.0588 -0.3493
12205TIP3    H158030   3.606   4.476   1.424 -0.1150  0.3441  0.1170
12205TIP3    H258031   3.727   4.422   1.497 -1.2953 -0.3215  1.6043
12206TIP3   OH258032   4.013   5.572  16.541 -0.5557  0.5257  0.2143
12206TIP3    H158033   3.918   5.585  16.540 -0.6774 -0.2411  1.2805
12206TIP3    H258034   4.040   5.599  16.629  0.0975 -0.1367  0.2214
12207TIP3   OH258035   1.398   0.452   3.876 -0.4289 -0.5508  0.4264
12207TIP3    H158036   1.416   0.424   3.966 -2.1199  0.5245  1.1307
12207TIP3    H258037   1.471   0.511   3.855 -1.1526  0.9276  1.9173
12208TIP3   OH258038   3.189   2.199   0.472  0.2820  0.3263 -0.2703
12208TIP3    H158039   3.152   2.119   0.511  1.2389  0.6222  1.2621
12208TIP3    H258040   3.272   2.170   0.434 -0.1537  0.2613 -1.1970
12209TIP3   OH258041   5.686   3.422   5.671  0.4631 -0.6629 -0.4380
12209TIP3    H158042   5.767   3.439   5.719  0.1046 -0.8054  0.2179
12209TIP3    H258043   5.617   3.434   5.736 -0.0332 -0.7181 -0.9539
12210TIP3   OH258044   3.062   3.226  13.567  0.3901 -0.3562 -0.2934
12210TIP3    H158045   3.071   3.240  13.662  0.6781 -0.9561 -0.2281
12210TIP3    H258046   3.069   3.132  13.556 -0.9230 -0.4086 -0.7851
12211TIP3   OH258047   2.212   3.915   3.540 -0.2437 -0.0282  0.1006
12211TIP3    H158048   2.269   3.851   3.496  0.3870  0.4377  0.2390
12211TIP3    H258049   2.132   3.866   3.560 -0.3550 -0.3872 -1.1332
12212TIP3   OH258050   1.541   5.398   1.711 -0.3645 -0.0749 -0.0348
12212TIP3    H158051   1.626   5.423   1.675  0.6373 -0.2592  2.0920
12212TIP3    H258052   1.482   5.397   1.636  1.6618 -0.6272 -1.6675
12213TIP3   OH258053   2.573   4.064   1.046  0.0330 -0.0783 -0.4685
12213TIP3    H158054   2.498   4.060   1.105 -1.6559  1.2732 -2.4427
12213TIP3    H258055   2.588   3.973   1.020  0.1174 -0.5457  1.1857
12214TIP3   OH258056   2.807   0.737  11.135  0.0211 -0.3062  0.2484
12214TIP3    H158057   2.884   0.787  11.161  0.3011 -0.8961  0.5542
12214TIP3    H258058   2.837   0.683  11.062 -0.6298  0.9637 -1.0020
12215TIP3   OH258059   5.426   2.091   0.834 -0.1689  0.3948  0.1069
12215TIP3    H158060   5.391   2.171   0.796 -2.1976 -0.3125  0.4032
12215TIP3    H258061   5.403   2.096   0.927  0.5525 -0.0783  0.3173
12216TIP3   OH258062   6.509   5.672   4.713 -0.2356 -0.1368  0.1472
12216TIP3    H158063   6.547   5.634   4.633  0.1335 -0.6441  0.5628
12216TIP3    H258064   6.420   5.638   4.715 -1.4679  2.6941 -1.9427
12217TIP3   OH258065   3.098   1.371  10.979  0.1671  0.0611  0.1823
12217TIP3    H158066   3.019   1.417  10.951 -0.0023  0.2865  1.0069
12217TIP3    H258067   3.069   1.283  11.001 -0.0266  0.3985  1.3333
12218TIP3   OH258068   5.426   5.305   5.168  0.1425 -0.1565  0.2932
12218TIP3    H158069   5.413   5.348   5.253 -0.3377 -0.1422  0.2171
12218TIP3    H258070   5.367   5.351   5.109  1.1134  0.4008 -0.2483
12219TIP3   OH258071   5.621   0.623  13.472  0.7356 -0.1203  0.1450
12219TIP3    H158072   5.654   0.670  13.395  0.9873  0.1616  0.4245
12219TIP3    H258073   5.622   0.688  13.542 -1.3787  0.1988 -0.0649
12220TIP3   OH258074   4.126   5.459  14.042  0.0512  0.0297  0.5655
12220TIP3    H158075   4.114   5.433  13.950 -0.6598  1.5859  0.1929
12220TIP3    H258076   4.040   5.446  14.082  0.6707 -1.8453  1.3501
12221TIP3   OH258077   4.833   3.447   4.156  0.2822 -0.5065 -0.0209
12221TIP3    H158078   4.806   3.538   4.169  0.6416 -0.2136 -1.2477
12221TIP3    H258079   4.879   3.447   4.073 -1.2009 -2.1162 -0.8948
12222TIP3   OH258080   3.920   1.550  10.616 -0.8953  0.4264 -0.0205
12222TIP3    H158081   3.926   1.566  10.710 -0.8151  0.3310 -0.0081
12222TIP3    H258082   3.926   1.637  10.576  0.1710  0.3761  0.0103
12223TIP3   OH258083   0.368   4.453  15.192 -0.7831  0.0669  0.0553
12223TIP3    H158084   0.312   4.485  15.122 -2.1068 -2.8543 -0.2918
12223TIP3    H258085   0.309   4.432  15.264  0.3016  0.6672  1.1501
12224TIP3   OH258086   5.928   6.526   1.809 -0.6092  0.7188 -0.4945
12224TIP3    H158087   5.908   6.460   1.742  0.6508  0.8479 -1.0207
12224TIP3    H258088   5.864   6.511   1.878 -0.9498 -0.4232 -1.0491
12225TIP3   OH258089   4.958   0.514  13.452  0.4271 -0.6530  0.4387
12225TIP3    H158090   4.984   0.458  13.524 -0.7428 -1.0003  0.6102
12225TIP3    H258091   5.038   0.530  13.403  0.9095 -1.8283  0.8420
12226TIP3   OH258092   3.906   3.348  12.455  0.1695 -0.6533  0.6557
12226TIP3    H158093   3.948   3.263  12.445 -0.5704 -1.0203  0.6402
12226TIP3    H258094   3.978   3.411  12.457  0.6404 -1.1548 -0.6403
12227TIP3   OH258095   5.128   4.300   5.109 -0.0644  0.3023 -0.0028
12227TIP3    H158096   5.099   4.371   5.051 -0.5912 -1.6101 -2.1296
12227TIP3    H258097   5.048   4.251   5.129  0.3002  0.2701  1.4361
12228TIP3   OH258098   0.164   4.570   3.998  0.0541  0.6307 -0.0856
12228TIP3    H158099   0.204   4.628   3.933  1.4102  1.4513  1.4349
12228TIP3    H258100   0.104   4.626   4.047  0.5026  0.4853  0.6375
12229TIP3   OH258101   2.395   6.572   2.258 -0.0431 -1.0053 -0.3813
12229TIP3    H158102   2.324   6.523   2.300 -0.1232  0.8240  1.6501
12229TIP3    H258103   2.353   6.652   2.227  0.9123 -0.4366 -0.2056
12230TIP3   OH258104   4.209   0.924   6.192  0.2645 -0.2467 -0.3638
12230TIP3    H158105   4.237   0.977   6.266  0.2397  0.3977 -0.8121
12230TIP3    H258106   4.274   0.941   6.124  0.4336 -1.0310 -0.4060
12231TIP3   OH258107   2.923   4.865  17.112 -0.4101  0.0251 -0.1460
12231TIP3    H158108   3.017   4.877  17.099 -0.2837 -1.0636 -0.2184
12231TIP3    H258109   2.913   4.773  17.135 -1.1937  0.6871  2.3260
12232TIP3   OH258110   1.638   6.535   3.575  0.4943  0.5165  0.0256
12232TIP3    H158111   1.571   6.470   3.553  0.9065  0.4291 -1.0500
12232TIP3    H258112   1.666   6.512   3.663 -0.3855  0.1115  0.2051
12233TIP3   OH258113   6.070   2.552   4.019  0.3162  0.5920 -0.1836
12233TIP3    H158114   6.059   2.488   3.948  0.6558 -0.0269  0.3237
12233TIP3    H258115   6.157   2.589   4.005  0.6947 -0.0855  0.3619
12234TIP3   OH258116   6.499   2.330  11.301 -0.0522 -0.1408 -0.0215
12234TIP3    H158117   6.474   2.268  11.232 -0.0045 -0.0449 -0.1236
12234TIP3    H258118   6.536   2.404  11.254  1.4870 -0.7564  0.1843
12235TIP3   OH258119   1.013   5.425  12.570  0.4291  0.5158  0.3033
12235TIP3    H158120   1.047   5.429  12.659 -0.1644 -0.6808  0.6094
12235TIP3    H258121   1.087   5.448  12.514  1.2584 -0.3256  1.0314
12236TIP3   OH258122   2.103   0.344   0.932  0.3712 -0.0040 -0.0975
12236TIP3    H158123   2.194   0.372   0.942 -0.0103  0.4355  2.3977
12236TIP3    H258124   2.055   0.392   0.999 -1.7610 -0.0779 -1.5072
12237TIP3   OH258125   4.352   3.623   2.284 -0.5610 -0.0416  0.1820
12237TIP3    H158126   4.315   3.567   2.216  1.2580  0.0552 -0.9265
12237TIP3    H258127   4.331   3.578   2.366 -0.6982 -1.4049 -0.5830
12238TIP3   OH258128   2.219   2.915   4.211  0.0661  0.4413 -0.1963
12238TIP3    H158129   2.144   2.962   4.174 -0.4359 -0.0136  0.2208
12238TIP3    H258130   2.182   2.869   4.287  0.9798  0.9871  0.5786
12239TIP3   OH258131   6.389   2.202  13.990 -0.2037  0.1520 -0.0629
12239TIP3    H158132   6.309   2.221  13.941  0.5414 -2.4917 -2.4542
12239TIP3    H258133   6.363   2.135  14.053 -0.5739  1.6716  1.4326
12240TIP3   OH258134   4.150   5.104  11.360  0.0523  0.3090 -0.0578
12240TIP3    H158135   4.129   5.031  11.302  0.3777  0.4631 -0.3727
12240TIP3    H258136   4.065   5.138  11.387 -0.1159 -1.3621  1.5884
12241TIP3   OH258137   4.945   0.641   4.857 -0.0295  0.6070 -0.7378
12241TIP3    H158138   4.864   0.652   4.907  0.2237  0.6596 -0.3329
12241TIP3    H258139   4.996   0.578   4.908 -1.1069 -1.8594 -2.6067
12242TIP3   OH258140   6.038   6.642  14.012  0.2429 -0.7318  0.1529
12242TIP3    H158141   6.111   6.650  13.950 -0.7541 -0.6470 -1.0277
12242TIP3    H258142   5.987   6.722  14.000 -1.5057 -1.9555 -0.9724
12243TIP3   OH258143   2.374   3.958  12.896 -0.4674 -0.6425  0.3502
12243TIP3    H158144   2.330   4.010  12.829  0.6401  0.1575  0.2393
12243TIP3    H258145   2.332   3.984  12.978 -2.5076 -2.3335 -0.1057
12244TIP3   OH258146   0.298   2.016  14.547 -1.1903  0.6611 -0.1716
12244TIP3    H158147   0.374   2.049  14.499  0.4551 -0.7425  1.4020
12244TIP3    H258148   0.227   2.015  14.482  0.2432  1.5012 -1.7876
12245TIP3   OH258149   6.556   6.300   4.279 -0.0907  0.5063  0.1421
12245TIP3    H158150   6.528   6.213   4.306  0.0162  0.6827  0.8256
12245TIP3    H258151   6.528   6.358   4.351  0.4897  0.9282  0.0313
12246TIP3   OH258152   4.698   6.220  15.397  0.3609 -0.0753  0.5406
12246TIP3    H158153   4.785   6.190  15.369  0.6803 -0.0444  1.4883
12246TIP3    H258154   4.679   6.168  15.476 -0.1164  0.5243  0.8236
12247TIP3   OH258155   0.040   1.065  11.427 -0.5129  0.8255  0.3163
12247TIP3    H158156   0.087   1.115  11.361 -0.6796  1.0635  0.3777
12247TIP3    H258157   0.039   0.975  11.394 -0.8171  0.9915 -0.1254
12248TIP3   OH258158   0.341   6.365  15.351 -0.5037  0.0324 -0.0937
12248TIP3    H158159   0.348   6.460  15.361  0.9072  0.0465 -1.0499
12248TIP3    H258160   0.264   6.352  15.295 -2.6974  0.4096  2.7179
12249TIP3   OH258161   3.881   2.263  16.927 -0.4883  0.1430 -0.2263
12249TIP3    H158162   3.949   2.201  16.901  0.5642  1.4013 -0.6001
12249TIP3    H258163   3.928   2.346  16.935 -1.6690  0.6725  1.2653
12250TIP3   OH258164   6.474   0.165  15.795  0.1227 -0.1755 -0.0817
12250TIP3    H158165   6.569   0.180  15.791  0.0569  0.0930 -0.5893
12250TIP3    H258166   6.435   0.250  15.778 -0.2216 -0.5040 -0.9628
12251TIP3   OH258167   3.061   1.606   0.290  0.0723  0.1520 -0.4358
12251TIP3    H158168   2.982   1.596   0.236 -1.0676  0.5085  1.1426
12251TIP3    H258169   3.107   1.523   0.279 -1.2898 -0.6628 -0.1646
12252TIP3   OH258170   3.558   1.821  16.333 -0.6753  0.3274 -0.3378
12252TIP3    H158171   3.631   1.868  16.373 -1.3767  0.8233  0.3704
12252TIP3    H258172   3.600   1.758  16.274  0.3898 -0.5711  1.3309
12253TIP3   OH258173   2.052   2.347   3.472 -0.7454  0.3659  0.7791
12253TIP3    H158174   2.096   2.299   3.542  0.1900  1.9490  1.3076
12253TIP3    H258175   2.066   2.439   3.494 -0.9307  0.8808 -1.1743
12254TIP3   OH258176   0.927   3.291  11.780 -0.3303  0.4759 -0.6058
12254TIP3    H158177   0.867   3.365  11.772 -0.5560  0.2062 -1.3952
12254TIP3    H258178   1.014   3.329  11.766 -0.3976  0.6910 -0.4470
12255TIP3   OH258179   3.021   6.556  15.862 -0.4332 -0.4849 -0.0758
12255TIP3    H158180   2.967   6.585  15.936 -1.0457  1.9109 -1.3904
12255TIP3    H258181   3.107   6.593  15.880 -0.4514 -0.3339 -0.3022
12256TIP3   OH258182   4.964   1.635   0.683 -0.2218 -0.0634  0.3154
12256TIP3    H158183   4.967   1.556   0.629  0.0355  0.0581  0.1534
12256TIP3    H258184   4.956   1.602   0.773 -0.7033 -0.2611  0.1991
12257TIP3   OH258185   4.695   0.178   2.477  0.0956  0.5683  0.1190
12257TIP3    H158186   4.699   0.272   2.493  1.0601  0.3076  1.5124
12257TIP3    H258187   4.786   0.149   2.485 -0.0042 -0.2913 -1.6057
12258TIP3   OH258188   0.312   1.107   4.661  0.3874 -0.1664  0.1945
12258TIP3    H158189   0.327   1.159   4.739 -1.0997  3.7646 -2.0176
12258TIP3    H258190   0.233   1.055   4.681 -1.2299  2.3820  0.6036
12259TIP3   OH258191   1.545   2.893   2.758 -0.5212  0.8352  0.0959
12259TIP3    H158192   1.491   2.901   2.837  0.2039  1.0287  0.5790
12259TIP3    H258193   1.517   2.810   2.719  0.1364 -0.0003  1.3520
12260TIP3   OH258194   2.599   1.519  16.872  0.5114 -0.0044  0.0673
12260TIP3    H158195   2.521   1.563  16.839  0.2018 -0.5215  0.0962
12260TIP3    H258196   2.568   1.471  16.949  0.4365 -1.7775 -1.0386
12261TIP3   OH258197   0.497   2.280   1.101  0.2432  0.1975 -0.0314
12261TIP3    H158198   0.456   2.349   1.154 -0.9928  0.8161 -1.7679
12261TIP3    H258199   0.453   2.285   1.017  0.4033 -2.5023 -0.3044
12262TIP3   OH258200   5.950   6.583  13.594  0.3542 -0.0765  0.5728
12262TIP3    H158201   5.991   6.579  13.508 -0.3129 -2.0622  0.3067
12262TIP3    H258202   5.980   6.665  13.632  0.5202  0.9116 -1.6205
12263TIP3   OH258203   6.263   2.680   1.408 -0.7981 -0.2352 -0.5414
12263TIP3    H158204   6.291   2.613   1.470  1.3527  0.8404 -0.2946
12263TIP3    H258205   6.210   2.633   1.344 -1.1379 -1.7654  0.8312
12264TIP3   OH258206   1.037   1.586   3.943 -0.0732  0.2857  0.4235
12264TIP3    H158207   1.079   1.506   3.974  0.1026  0.1419 -0.1907
12264TIP3    H258208   1.030   1.641   4.022  0.3674 -0.0838  0.7224
12265TIP3   OH258209   4.647   2.127  11.792  0.1005 -0.3578 -0.0951
12265TIP3    H158210   4.741   2.138  11.801 -0.0013  0.9675 -0.5716
12265TIP3    H258211   4.628   2.046  11.840  1.6786 -1.4308 -1.2311
12266TIP3   OH258212   0.498   2.094   2.650  0.3470 -0.0328 -0.5883
12266TIP3    H158213   0.519   2.134   2.735 -1.0323  0.5894 -0.5168
12266TIP3    H258214   0.493   2.000   2.669 -0.5749  0.1568  0.1729
12267TIP3   OH258215   0.395   3.357  16.817 -0.4771 -0.5041  0.3615
12267TIP3    H158216   0.314   3.351  16.767 -0.0478 -2.1745 -0.1912
12267TIP3    H258217   0.462   3.380  16.752 -0.4321  0.3558  0.7162
12268TIP3   OH258218   6.653   6.636  14.332  0.6067  0.0643 -0.1504
12268TIP3    H158219   6.626   6.558  14.284 -0.0543  0.6066 -0.6792
12268TIP3    H258220   6.645   6.613  14.424  0.2258 -0.4278 -0.3072
12269TIP3   OH258221   1.704   0.013   1.508  0.7302 -0.2406 -0.0387
12269TIP3    H158222   1.726  -0.052   1.441 -0.4087 -1.8000  1.0720
12269TIP3    H258223   1.668  -0.038   1.580  0.3480  1.5837  1.0931
12270TIP3   OH258224   5.131   4.875   5.842  0.2679 -0.2383  0.3216
12270TIP3    H158225   5.154   4.958   5.883 -2.3807  0.9681 -0.5501
12270TIP3    H258226   5.138   4.891   5.748  0.2005 -1.1284  0.1621
12271TIP3   OH258227   1.950   0.341   0.469 -0.3694  0.2805  0.5272
12271TIP3    H158228   1.962   0.258   0.516 -0.0616  0.8379  1.4501
12271TIP3    H258229   1.980   0.408   0.531 -2.2568  1.2202  0.4585
12272TIP3   OH258230   1.480   6.079  12.739 -0.1796  0.1494  0.9084
12272TIP3    H158231   1.484   6.152  12.677 -3.4868  0.2393  0.7042
12272TIP3    H258232   1.486   6.001  12.684  0.6446  0.2290  0.8717
12273TIP3   OH258233   0.100   2.274   5.081 -0.4071 -0.5685  0.1419
12273TIP3    H158234   0.065   2.185   5.089 -3.7617  0.6348 -0.4534
12273TIP3    H258235   0.168   2.279   5.149 -0.4913 -3.4157  0.4880
12274TIP3   OH258236   3.303   1.604  17.155 -0.2185 -0.4330  0.2065
12274TIP3    H158237   3.308   1.680  17.212  0.0463 -0.8638  0.7676
12274TIP3    H258238   3.247   1.632  17.082 -1.3925 -0.1862  1.1755
12275TIP3   OH258239   3.675   3.423  14.576 -0.3955  0.3735 -0.3085
12275TIP3    H158240   3.617   3.396  14.647 -0.2007  1.0186  0.0962
12275TIP3    H258241   3.680   3.347  14.519  2.6436 -1.5820  2.4154
12276TIP3   OH258242   2.364   0.587   4.472  0.1066  0.0837 -0.0440
12276TIP3    H158243   2.317   0.527   4.414  0.3850 -1.3458  1.1814
12276TIP3    H258244   2.442   0.613   4.422 -0.2202 -0.2486 -0.7360
12277TIP3   OH258245   3.773   0.791  11.152 -0.3592  0.1580  0.4747
12277TIP3    H158246   3.752   0.884  11.156 -0.5760  0.2540 -1.8862
12277TIP3    H258247   3.694   0.750  11.118  0.8124 -0.4195 -1.6602
12278TIP3   OH258248   5.161   3.945  12.517 -0.0464 -0.7134  0.0300
12278TIP3    H158249   5.196   3.903  12.595  2.0679  1.4374  0.3008
12278TIP3    H258250   5.204   3.900  12.444  2.2918  0.9401  0.3205
12279TIP3   OH258251   4.125   5.485  16.000 -0.2761  0.4586  0.4064
12279TIP3    H158252   4.205   5.488  16.052 -0.7163  2.2290  1.0207
12279TIP3    H258253   4.117   5.393  15.974  0.3602 -0.3409  2.8451
12280TIP3   OH258254   4.906   6.460  11.541  0.5491  0.3953 -0.2682
12280TIP3    H158255   4.944   6.546  11.563  0.7659  0.7062 -1.7401
12280TIP3    H258256   4.812   6.472  11.553  0.7025  0.3681  1.0272
12281TIP3   OH258257   5.741   6.676   3.651 -0.0858  0.1026 -0.3561
12281TIP3    H158258   5.700   6.726   3.580  1.4783  0.0748 -1.3022
12281TIP3    H258259   5.807   6.736   3.687 -0.8876  0.1303  1.1169
12282TIP3   OH258260   6.748   6.097   3.775  0.0154  0.6979 -0.7593
12282TIP3    H158261   6.691   6.083   3.850  0.3072 -0.9802 -0.8208
12282TIP3    H258262   6.745   6.191   3.759 -0.5167  0.9858  0.9689
12283TIP3   OH258263   0.655   3.982  11.440 -0.0794 -0.3652 -0.4308
12283TIP3    H158264   0.674   3.892  11.468  0.3788  0.1240  0.8850
12283TIP3    H258265   0.590   3.972  11.370  0.1278 -1.7307 -0.4480
12284TIP3   OH258266   3.198   0.045   6.653 -0.1907 -0.4417 -0.0026
12284TIP3    H158267   3.257   0.107   6.610 -0.7079 -1.0617 -1.6440
12284TIP3    H258268   3.250  -0.035   6.662 -0.6295 -0.8483 -1.0444
12285TIP3   OH258269   0.434   5.982  14.152  0.0620 -0.1761  0.0243
12285TIP3    H158270   0.387   5.904  14.123  1.4334 -0.2016 -2.2299
12285TIP3    H258271   0.517   5.949  14.186  1.2819  0.3827 -2.3320
12286TIP3   OH258272   6.301   2.938  13.489 -0.1882 -0.3169  0.0943
12286TIP3    H158273   6.382   2.903  13.452  0.1293  1.6447 -1.1161
12286TIP3    H258274   6.235   2.872  13.469  0.5854 -0.7102 -1.2494
12287TIP3   OH258275   1.909   6.720   4.444 -0.2486 -0.0481 -0.3302
12287TIP3    H158276   1.820   6.692   4.425 -0.2953  0.2816 -0.5839
12287TIP3    H258277   1.942   6.654   4.506 -1.0320  0.4345  0.6022
12288TIP3   OH258278   1.036   4.840  15.672 -0.3597 -0.3238  0.0894
12288TIP3    H158279   1.001   4.761  15.632 -0.2176 -0.3979  0.1136
12288TIP3    H258280   0.984   4.852  15.751 -1.1500  0.2474 -0.5108
12289TIP3   OH258281   6.509   2.192   4.184 -0.0870  0.0233  0.1654
12289TIP3    H158282   6.570   2.141   4.238 -0.0844  0.0363  0.1743
12289TIP3    H258283   6.511   2.280   4.221 -0.3681 -0.0604  0.3751
12290TIP3   OH258284   1.651   1.453  12.168 -0.1075 -0.8763  0.1789
12290TIP3    H158285   1.660   1.465  12.263 -0.0598 -0.1034  0.0773
12290TIP3    H258286   1.559   1.430  12.155 -0.4421  0.3981  0.2718
12291TIP3   OH258287   4.714   1.674  10.853  0.1320  0.2385 -0.0861
12291TIP3    H158288   4.782   1.645  10.792  0.8298  0.5709  0.5158
12291TIP3    H258289   4.636   1.686  10.799  0.6050  0.0366 -0.8229
12292TIP3   OH258290   6.510   1.242  14.384  0.0647  0.5668 -0.8958
12292TIP3    H158291   6.561   1.162  14.383 -0.2520  0.3075  1.1615
12292TIP3    H258292   6.434   1.223  14.328 -0.6770 -1.0397  0.6069
12293TIP3   OH258293   0.467   1.980   1.749 -0.2491 -0.2367  0.4432
12293TIP3    H158294   0.433   1.906   1.699 -1.2669  1.3075 -1.2403
12293TIP3    H258295   0.434   1.966   1.838 -0.9385 -1.4827  0.0066
12294TIP3   OH258296   0.512   0.017   6.666 -0.8377  0.3257 -1.2731
12294TIP3    H158297   0.469   0.023   6.581 -1.5457  0.5891 -0.9073
12294TIP3    H258298   0.439   0.013   6.729 -0.3242  0.3433 -0.6712
12295TIP3   OH258299   1.668   3.945  14.631 -0.5898 -0.4411 -0.0286
12295TIP3    H158300   1.721   3.867  14.646 -0.7631 -0.6167 -0.3303
12295TIP3    H258301   1.628   3.964  14.716 -0.7577 -0.8352 -0.0182
12296TIP3   OH258302   4.351   2.342   5.060  0.2879 -0.0676  0.0115
12296TIP3    H158303   4.441   2.339   5.091  0.5145  1.4129 -0.4471
12296TIP3    H258304   4.343   2.268   5.000  1.3718  0.1347 -0.3820
12297TIP3   OH258305   6.202   3.805   6.403 -0.7176  0.0575 -0.2035
12297TIP3    H158306   6.164   3.832   6.486  0.7627  0.9942  0.1851
12297TIP3    H258307   6.173   3.871   6.340 -1.5468 -0.4571 -0.3703
12298TIP3   OH258308   3.161   4.813   3.705 -0.0199 -0.0517  0.2790
12298TIP3    H158309   3.116   4.829   3.788 -2.2205  0.0123 -0.8966
12298TIP3    H258310   3.179   4.719   3.705 -0.5270 -0.1527  0.5885
12299TIP3   OH258311   0.884   6.643   1.016 -0.2523  0.3500 -0.3777
12299TIP3    H158312   0.866   6.731   1.048 -1.9283  0.8368 -2.5166
12299TIP3    H258313   0.957   6.653   0.956  0.0922  0.1457  0.0061
12300TIP3   OH258314   6.140   3.693  15.509  0.5712 -0.3893  0.1373
12300TIP3    H158315   6.230   3.728  15.512  0.2367  0.6009 -0.9124
12300TIP3    H258316   6.099   3.740  15.436 -0.2627 -2.1327 -0.5397
12301TIP3   OH258317   3.867   0.929   2.660  0.1054  0.0709  0.1950
12301TIP3    H158318   3.938   0.944   2.723  0.8830 -0.0874 -0.6360
12301TIP3    H258319   3.845   1.016   2.628  0.9361 -0.0182 -0.6352
12302TIP3   OH258320   5.413   4.130  12.266  0.1050  0.3973 -0.1551
12302TIP3    H158321   5.406   4.180  12.347  0.0119  0.2223 -0.0555
12302TIP3    H258322   5.434   4.196  12.199  0.8898  0.4364  0.1309
12303TIP3   OH258323   5.781   5.102   4.397  0.7898 -0.1636 -0.0890
12303TIP3    H158324   5.871   5.107   4.365  0.1599  1.6847 -1.7194
12303TIP3    H258325   5.761   5.191   4.426 -0.9000 -0.2545 -0.9136
12304TIP3   OH258326   5.043   5.095  12.750 -0.1418 -1.0281  0.2605
12304TIP3    H158327   5.135   5.100  12.776  0.2542 -1.0188 -1.1323
12304TIP3    H258328   5.045   5.072  12.657 -1.4256  3.1765 -0.8977
12305TIP3   OH258329   5.335   3.478  10.590 -0.2835  0.1502 -0.0678
12305TIP3    H158330   5.381   3.498  10.671 -0.5781  0.2525  0.0714
12305TIP3    H258331   5.401   3.490  10.522 -0.4250  1.4734  0.0284
12306TIP3   OH258332   2.417   5.558   4.873  0.1481 -0.2158  0.4426
12306TIP3    H158333   2.493   5.610   4.898 -1.0822  2.0248 -0.3366
12306TIP3    H258334   2.357   5.567   4.948 -0.6681  0.7104 -0.3157
12307TIP3   OH258335   0.378   2.027   1.391  0.2997  0.6466 -0.5020
12307TIP3    H158336   0.464   2.066   1.400  0.2629  0.2327  1.9513
12307TIP3    H258337   0.388   1.938   1.425 -1.2564  0.8370  0.4896
12308TIP3   OH258338   2.461   2.619   3.214 -0.1328 -0.5757 -0.2805
12308TIP3    H158339   2.388   2.675   3.190  0.9004 -0.0456 -2.3553
12308TIP3    H258340   2.422   2.550   3.268 -1.9833  0.2262 -0.5581
12309TIP3   OH258341   2.833   1.254   6.055  0.8055  0.3917 -0.1416
12309TIP3    H158342   2.871   1.301   5.980  0.4636 -1.0780 -1.2745
12309TIP3    H258343   2.802   1.172   6.017 -3.9101  1.6987  0.6408
12310TIP3   OH258344   4.545   2.157   3.587  0.4951 -0.1376  0.1691
12310TIP3    H158345   4.601   2.183   3.660 -0.0791 -0.2130  0.6341
12310TIP3    H258346   4.502   2.077   3.617  0.6119 -0.4294 -0.4283
12311TIP3   OH258347   3.630   4.469  10.417  0.5129 -0.5144 -0.2805
12311TIP3    H158348   3.664   4.536  10.358  1.4117  0.8497  1.7214
12311TIP3    H258349   3.570   4.516  10.474  0.1022 -1.6944  0.2707
12312TIP3   OH258350   3.097   3.452   5.705 -0.0573  0.9241 -0.4885
12312TIP3    H158351   3.095   3.539   5.666  0.1737  2.0812  1.9498
12312TIP3    H258352   3.005   3.424   5.705 -0.4664  2.2053  0.8799
12313TIP3   OH258353   4.321   0.331  17.130  0.0071  0.1845  0.7994
12313TIP3    H158354   4.329   0.252  17.183  0.3535 -0.6196 -0.4444
12313TIP3    H258355   4.246   0.377  17.168 -0.5666 -1.0291  1.1621
12314TIP3   OH258356   5.924   2.675   2.077 -0.0119  0.1110  0.7266
12314TIP3    H158357   5.903   2.600   2.132  0.9289 -0.0751  0.8507
12314TIP3    H258358   5.976   2.732   2.134 -0.4933  0.7224  0.5506
12315TIP3   OH258359   3.226   5.537   4.481 -0.1045 -0.0067  0.3238
12315TIP3    H158360   3.134   5.519   4.500 -0.1694 -0.1144 -0.0908
12315TIP3    H258361   3.245   5.487   4.401 -0.0569  1.0757 -0.3543
12316TIP3   OH258362   1.957   6.202   5.458 -0.3477  0.4516  1.1402
12316TIP3    H158363   1.925   6.219   5.547  0.4224  1.0926  1.3001
12316TIP3    H258364   1.880   6.172   5.410 -0.4566 -1.4123  2.4261
12317TIP3   OH258365   3.101   3.226  15.742 -0.4174 -0.2316  0.2295
12317TIP3    H158366   3.104   3.264  15.830 -0.9421  0.0637  0.1212
12317TIP3    H258367   3.144   3.141  15.752 -0.9664 -0.4385  0.8973
12318TIP3   OH258368   0.542   0.568   5.413  0.1199 -0.5143  0.1326
12318TIP3    H158369   0.533   0.576   5.508 -0.5788 -1.3982  0.1433
12318TIP3    H258370   0.552   0.659   5.383  0.4977 -0.2395  1.0565
12319TIP3   OH258371   4.390   3.955  12.797 -0.1625 -0.3164 -0.1184
12319TIP3    H158372   4.452   3.885  12.819  1.6526  1.1648 -0.3448
12319TIP3    H258373   4.305   3.912  12.794  0.8728 -2.4486  0.0656
12320TIP3   OH258374   4.170   5.168   2.594  0.4072  0.7012  0.0325
12320TIP3    H158375   4.085   5.150   2.554  0.9652 -0.0979 -0.8299
12320TIP3    H258376   4.234   5.135   2.530  1.3411  0.3604  1.1307
12321TIP3   OH258377   3.278   4.594  12.414  1.0365  0.2825  0.0614
12321TIP3    H158378   3.190   4.595  12.451  1.5738  3.0633  1.4087
12321TIP3    H258379   3.335   4.577  12.489  1.7484 -0.1906 -0.5748
12322TIP3   OH258380   3.285   0.426  15.240  0.0039 -0.0972  0.2850
12322TIP3    H158381   3.288   0.501  15.180  2.1071 -0.1448  0.2975
12322TIP3    H258382   3.191   0.406  15.248 -0.5028  1.7355 -0.6934
12323TIP3   OH258383   2.905   1.490  11.175  0.2536  0.4340 -0.2653
12323TIP3    H158384   2.867   1.518  11.091  0.7618  0.4338 -0.4963
12323TIP3    H258385   2.983   1.543  11.185 -0.2115  0.9666  0.5787
12324TIP3   OH258386   6.737   5.262   5.249 -0.1973 -0.3114  0.1138
12324TIP3    H158387   6.733   5.350   5.286  3.3080 -1.6656  4.0686
12324TIP3    H258388   6.682   5.209   5.307 -1.2394 -1.0332 -1.4875
12325TIP3   OH258389   5.826   3.776   3.197 -0.0954 -0.2561  0.5747
12325TIP3    H158390   5.844   3.763   3.290 -3.7301 -0.3311  1.3498
12325TIP3    H258391   5.812   3.688   3.162  1.0934 -0.2167 -0.0210
12326TIP3   OH258392   3.782   3.995  16.640  0.4585  0.6017 -0.1191
12326TIP3    H158393   3.714   3.952  16.588  2.0205  1.5438 -3.0659
12326TIP3    H258394   3.848   3.927  16.655 -0.6123 -0.0329  1.8479
12327TIP3   OH258395   0.440   3.797  16.352  0.0597 -0.0191 -0.6341
12327TIP3    H158396   0.493   3.847  16.289  0.5723  0.7025  0.3578
12327TIP3    H258397   0.371   3.757  16.299  0.1078  1.1069 -1.5702
12328TIP3   OH258398   0.740   0.423   4.122  0.1073  0.4103  0.5789
12328TIP3    H158399   0.752   0.342   4.072 -3.6144  0.8561 -1.2624
12328TIP3    H258400   0.758   0.399   4.212 -1.2526 -2.6237  0.1160
12329TIP3   OH258401   6.366   2.630   5.678 -0.2746 -0.0709  0.1857
12329TIP3    H158402   6.439   2.679   5.640 -1.3948  1.0284 -0.5597
12329TIP3    H258403   6.409   2.559   5.726  1.2430 -0.4435 -1.6323
12330TIP3   OH258404   4.226   1.388  14.236 -0.1783 -0.1174 -0.1630
12330TIP3    H158405   4.133   1.406  14.246 -0.5157 -2.1632  0.4733
12330TIP3    H258406   4.236   1.359  14.146 -0.4849 -1.8250  0.3460
12331TIP3   OH258407   5.592   4.404  16.614  0.3669  0.1069 -0.1120
12331TIP3    H158408   5.605   4.490  16.655  0.0701 -0.4395  1.1361
12331TIP3    H258409   5.510   4.372  16.651 -0.2215 -0.1424 -1.5999
12332TIP3   OH258410   3.116   3.948  11.899 -0.2725  0.3463 -0.1191
12332TIP3    H158411   3.090   4.036  11.926 -0.1245 -0.4176  2.5710
12332TIP3    H258412   3.039   3.915  11.852 -0.6756  1.5623 -0.3350
12333TIP3   OH258413   2.848   3.587  16.526 -0.8426 -0.6946 -0.2871
12333TIP3    H158414   2.925   3.539  16.494 -0.1899 -0.0713  0.3243
12333TIP3    H258415   2.773   3.536  16.495 -0.2087 -0.7273 -1.8188
12334TIP3   OH258416   5.381   0.886  13.686 -0.2526  0.0973 -0.1328
12334TIP3    H158417   5.469   0.866  13.716  0.4102 -0.0736 -2.0752
12334TIP3    H258418   5.383   0.866  13.592 -2.1856  0.6489 -0.3177
12335TIP3   OH258419   5.834   2.107  17.110  0.1216 -0.6184  0.2892
12335TIP3    H158420   5.858   2.046  17.041  2.2872  0.5598 -0.0215
12335TIP3    H258421   5.762   2.158  17.073 -0.0173 -1.2902 -0.3703
12336TIP3   OH258422   4.486   2.732  15.038  0.0352 -0.1156 -0.5368
12336TIP3    H158423   4.513   2.723  15.129  0.8108  3.1798 -0.3967
12336TIP3    H258424   4.394   2.759  15.043 -0.6069 -2.0924 -0.8405
12337TIP3   OH258425   5.053   2.095  10.664 -0.2135 -0.6415  0.2753
12337TIP3    H158426   5.016   2.073  10.579 -0.3815  0.8557 -0.0551
12337TIP3    H258427   5.147   2.102  10.649 -0.4503  1.6295 -0.2481
12338TIP3   OH258428   3.563   3.462  10.945 -0.3983  0.3255  0.2373
12338TIP3    H158429   3.467   3.465  10.950 -0.4859  0.2044 -1.1497
12338TIP3    H258430   3.582   3.478  10.853  0.7674 -3.0993 -0.1887
12339TIP3   OH258431   5.798   0.699   5.481 -0.2628  0.1021 -0.3857
12339TIP3    H158432   5.726   0.715   5.541  0.3409 -0.0851  0.4005
12339TIP3    H258433   5.876   0.699   5.537  0.4526  1.2573 -1.3567
12340TIP3   OH258434   3.517   5.925  14.993  0.0250  0.1747 -0.3065
12340TIP3    H158435   3.426   5.951  15.008  0.1142 -0.1412  0.8526
12340TIP3    H258436   3.541   5.968  14.911 -1.4871 -0.5644 -1.1583
12341TIP3   OH258437   3.948   2.457  10.687  0.0383 -0.3542 -0.3333
12341TIP3    H158438   3.995   2.503  10.617 -1.4525  1.0752 -0.4269
12341TIP3    H258439   3.918   2.376  10.646  2.1347 -1.1605 -0.3487
12342TIP3   OH258440   3.143   6.174   3.242 -0.3010  0.4245 -0.2288
12342TIP3    H158441   3.222   6.177   3.189 -0.1930  0.1648 -0.0871
12342TIP3    H258442   3.072   6.190   3.181 -0.3497 -1.9070 -0.8523
12343TIP3   OH258443   5.427   0.407   2.659  1.0559  0.6810 -0.1471
12343TIP3    H158444   5.383   0.441   2.580  2.7472  1.7277 -0.6903
12343TIP3    H258445   5.510   0.372   2.626  0.8507 -0.8346  0.9106
12344TIP3   OH258446   5.090   3.261   1.656 -0.5879 -0.3735  0.6245
12344TIP3    H158447   5.156   3.219   1.712 -1.5292  0.0574  2.0731
12344TIP3    H258448   5.024   3.192   1.642  0.1697 -0.8147 -0.8521
12345TIP3   OH258449   0.188   5.293  17.149  0.1194  0.2125 -0.6042
12345TIP3    H158450   0.115   5.231  17.140 -0.0438  0.3657 -0.3529
12345TIP3    H258451   0.266   5.242  17.129  0.0098 -0.1388 -0.1451
12346TIP3   OH258452   6.252   0.612  12.303 -0.7037 -0.0880 -0.3803
12346TIP3    H158453   6.319   0.547  12.325 -0.6170 -0.1357 -0.7826
12346TIP3    H258454   6.240   0.662  12.384  0.2599  0.3227 -0.4877
12347TIP3   OH258455   3.545   0.341  11.152 -0.2217 -0.0602 -0.6162
12347TIP3    H158456   3.571   0.251  11.131  1.7579  0.2734  0.3449
12347TIP3    H258457   3.449   0.337  11.155 -0.2057 -1.9454 -1.4013
12348TIP3   OH258458   4.179   0.977   3.933  0.1269 -0.3416 -0.1598
12348TIP3    H158459   4.129   0.959   3.854  1.9890 -2.0045 -1.0254
12348TIP3    H258460   4.184   0.892   3.977  0.3388  0.2696  1.0032
12349TIP3   OH258461   1.825   2.152  16.686 -0.8668  0.2670 -0.7191
12349TIP3    H158462   1.867   2.128  16.769 -2.3586  0.0102 -0.0261
12349TIP3    H258463   1.819   2.069  16.638 -2.2562 -0.0347 -0.0437
12350TIP3   OH258464   2.055   2.857   0.400  0.1520  0.1266 -0.5235
12350TIP3    H158465   2.052   2.921   0.471  0.0253  1.6555 -1.8787
12350TIP3    H258466   2.068   2.773   0.444  0.7569  1.1296  1.2628
12351TIP3   OH258467   3.527   4.545  13.170  0.6440 -0.3185  0.0420
12351TIP3    H158468   3.583   4.468  13.161  0.5226 -0.3906 -0.1086
12351TIP3    H258469   3.447   4.512  13.210  1.2877  0.0572  1.6578
12352TIP3   OH258470   4.448   6.487   4.848  0.4742 -0.2658  0.4951
12352TIP3    H158471   4.499   6.532   4.916  0.7759 -0.0850  0.1532
12352TIP3    H258472   4.429   6.555   4.784 -0.2861 -0.3124  0.6660
12353TIP3   OH258473   2.803   5.414   3.727 -0.5470  0.0568 -0.2461
12353TIP3    H158474   2.720   5.456   3.748 -0.8853 -0.2543 -0.9479
12353TIP3    H258475   2.860   5.486   3.701 -0.3862  0.3467  0.8665
12354TIP3   OH258476   1.411   4.669   2.172 -0.7785 -0.1318  0.2277
12354TIP3    H158477   1.329   4.661   2.123 -1.0753 -0.1289  0.7139
12354TIP3    H258478   1.467   4.600   2.137 -0.1496  1.3380 -1.7145
12355TIP3   OH258479   0.095   2.235   3.297 -0.6726 -0.0473 -0.3400
12355TIP3    H158480   0.096   2.252   3.203 -2.5086  1.1004 -0.1764
12355TIP3    H258481   0.051   2.151   3.306  0.9350 -0.9474 -0.5821
12356TIP3   OH258482   3.373   4.041  11.861  0.6160 -0.3674  0.0318
12356TIP3    H158483   3.439   3.985  11.903  1.4335  1.1264  0.7860
12356TIP3    H258484   3.292   3.991  11.867  0.9687 -0.7148  2.2839
12357TIP3   OH258485   4.706   5.009  13.034  0.6212  0.4519  0.2003
12357TIP3    H158486   4.786   4.972  13.071 -0.2357 -0.6113  1.0017
12357TIP3    H258487   4.679   4.947  12.967 -0.3981 -0.0117  1.0236
12358TIP3   OH258488   5.056   3.801   0.848 -0.1767  0.2057 -0.3649
12358TIP3    H158489   5.082   3.854   0.923  0.6397  1.8194 -1.7242
12358TIP3    H258490   4.971   3.837   0.822 -0.4077 -0.2761 -0.2766
12359TIP3   OH258491   5.303   3.442   0.041  0.7777  0.0814 -0.2073
12359TIP3    H158492   5.330   3.389  -0.034  0.8506  0.2766 -0.3193
12359TIP3    H258493   5.219   3.405   0.068  0.9828 -0.2926 -0.0888
12360TIP3   OH258494   1.722   0.415   6.206  0.5942 -0.7303  0.2209
12360TIP3    H158495   1.791   0.477   6.183  0.6179 -1.0521 -0.5751
12360TIP3    H258496   1.655   0.469   6.250  0.8422 -0.2326 -0.0052
12361TIP3   OH258497   0.562   1.582   6.616 -0.2368 -0.5267 -0.0419
12361TIP3    H158498   0.480   1.593   6.567 -1.3174  1.6214  2.1418
12361TIP3    H258499   0.565   1.489   6.636 -1.9129 -0.7251 -0.5865
12362TIP3   OH258500   0.431   6.366  12.068  0.1714  0.1446 -0.5475
12362TIP3    H158501   0.367   6.385  11.999 -1.4671 -1.9148  0.3331
12362TIP3    H258502   0.430   6.443  12.124 -0.2883  0.8198 -1.4702
12363TIP3   OH258503   1.235   4.150   2.025 -0.1629 -0.6734  0.4575
12363TIP3    H158504   1.249   4.164   2.119 -0.1929 -1.2501  0.5466
12363TIP3    H258505   1.194   4.064   2.019 -2.3629  0.3659  0.0885
12364TIP3   OH258506   4.079   0.838   4.864  0.3616  0.6211  0.0889
12364TIP3    H158507   4.144   0.879   4.921  0.8124  0.4427 -0.2973
12364TIP3    H258508   4.097   0.874   4.777  2.0038 -1.8322 -0.6385
12365TIP3   OH258509   5.361   4.558   0.555 -0.3202 -0.7922  0.2252
12365TIP3    H158510   5.393   4.618   0.623 -0.3763 -2.5130  1.7960
12365TIP3    H258511   5.440   4.525   0.513 -0.2843  0.2599 -0.5628
12366TIP3   OH258512   6.371   0.090   1.824  0.0284 -0.5709  0.0563
12366TIP3    H158513   6.371   0.070   1.731  0.1765  0.1579 -0.1065
12366TIP3    H258514   6.287   0.134   1.840  0.4997  0.3733  0.0165
12367TIP3   OH258515   6.235   5.562   1.461 -0.6445  0.3164  0.2684
12367TIP3    H158516   6.292   5.514   1.401 -0.3094  1.0465 -0.0146
12367TIP3    H258517   6.157   5.508   1.469  0.1176 -0.7395  0.7182
12368TIP3   OH258518   0.710   4.618  16.702 -0.0194 -0.1118  0.0702
12368TIP3    H158519   0.660   4.647  16.778  1.0162  0.5564  0.5157
12368TIP3    H258520   0.801   4.613  16.734  0.7072  1.8767 -1.5593
12369TIP3   OH258521   4.193   3.094   4.712  0.3534  0.4024 -0.0206
12369TIP3    H158522   4.194   3.007   4.752  1.3418 -0.0883 -1.0737
12369TIP3    H258523   4.280   3.103   4.673  0.6882  2.3572  1.1008
12370TIP3   OH258524   4.481   5.729  12.781  0.0683  0.2031  0.1236
12370TIP3    H158525   4.438   5.644  12.770 -3.3937  1.9741 -0.4751
12370TIP3    H258526   4.536   5.739  12.703 -0.2889 -1.0304 -0.2922
12371TIP3   OH258527   4.742   4.806   2.540 -0.3056 -0.4535  0.4921
12371TIP3    H158528   4.786   4.736   2.493  0.3990 -0.3147  0.9366
12371TIP3    H258529   4.748   4.882   2.482  0.1374 -0.4078  0.5964
12372TIP3   OH258530   1.216   2.173   4.366  0.1135 -0.1007  0.1617
12372TIP3    H158531   1.274   2.214   4.302  0.4985  1.8316  1.6998
12372TIP3    H258532   1.274   2.139   4.433 -0.3658 -0.7369  0.2529
12373TIP3   OH258533   5.756   5.378   5.203  0.2826  0.3470  0.2808
12373TIP3    H158534   5.712   5.414   5.127 -0.0856  1.3829  0.9670
12373TIP3    H258535   5.797   5.454   5.245 -0.8738  0.0661  1.9954
12374TIP3   OH258536   0.317   5.763  15.427 -0.1709  0.6556 -0.1484
12374TIP3    H158537   0.308   5.814  15.347  0.1121  0.7229 -0.1378
12374TIP3    H258538   0.356   5.824  15.490 -2.3760  1.2589  0.6894
12375TIP3   OH258539   0.106   6.496   0.674  0.4351 -0.2964 -0.2531
12375TIP3    H158540   0.058   6.426   0.720  0.9500  0.1818  1.0304
12375TIP3    H258541   0.135   6.555   0.744  1.7983  0.0954 -1.1361
12376TIP3   OH258542   5.738   6.012   5.309 -0.2884 -0.0475  0.9688
12376TIP3    H158543   5.745   5.986   5.401 -1.0431 -0.2423  0.9771
12376TIP3    H258544   5.741   5.930   5.260  1.2018  0.1309  0.7423
12377TIP3   OH258545   2.597   2.053  12.653  0.1888  0.4183 -0.0021
12377TIP3    H158546   2.541   1.980  12.627  3.8745 -2.1938 -0.9403
12377TIP3    H258547   2.642   2.079  12.573  0.8757  2.0083  0.8723
12378TIP3   OH258548   1.137   2.375  11.615  0.0389 -0.0888  0.0916
12378TIP3    H158549   1.174   2.298  11.658 -0.6635 -0.6978 -0.3927
12378TIP3    H258550   1.070   2.340  11.556 -0.3661  0.8997 -0.0433
12379TIP3   OH258551   0.144   2.311   2.679 -0.0789 -0.6161  0.3760
12379TIP3    H158552   0.191   2.343   2.756 -1.3265  0.2708  0.7905
12379TIP3    H258553   0.057   2.286   2.712 -0.9716  0.6937 -0.8741
12380TIP3   OH258554   1.787   1.807   2.930  0.3257  0.0679 -0.3786
12380TIP3    H158555   1.727   1.875   2.960  0.3324  0.0298 -0.2769
12380TIP3    H258556   1.737   1.726   2.938 -0.6986  0.3597 -3.2607
12381TIP3   OH258557   4.788   4.969   3.484  0.0118  0.0597 -0.2285
12381TIP3    H158558   4.714   5.012   3.441 -0.3493 -0.1667  0.1719
12381TIP3    H258559   4.865   5.015   3.449 -0.3710  1.1121  0.2708
12382TIP3   OH258560   3.748   1.399  15.348 -0.0414 -0.7540 -0.0320
12382TIP3    H158561   3.789   1.468  15.402  1.6082 -3.6156  2.5530
12382TIP3    H258562   3.816   1.375  15.285  0.1313 -1.4421  0.4163
12383TIP3   OH258563   1.950   4.513   0.088 -0.0973  0.0076 -0.4285
12383TIP3    H158564   2.023   4.566   0.055  0.2128 -0.7838 -1.0225
12383TIP3    H258565   1.920   4.465   0.011  0.2843 -1.4653  0.3334
12384TIP3   OH258566   1.327   3.002  12.462 -0.0610  0.8122 -0.5685
12384TIP3    H158567   1.261   3.011  12.531 -1.1250  0.2943 -1.5142
12384TIP3    H258568   1.347   2.908  12.461 -1.1211  0.5967 -1.9572
12385TIP3   OH258569   2.276   5.313  15.084  0.1413  0.2581  0.3645
12385TIP3    H158570   2.241   5.357  15.007  1.1541 -0.6811 -0.6632
12385TIP3    H258571   2.233   5.228  15.084 -0.7651  0.7166  1.5368
12386TIP3   OH258572   3.262   3.178   4.889  0.2118 -0.6749 -0.2066
12386TIP3    H158573   3.357   3.168   4.880  0.1979 -2.2440  0.9837
12386TIP3    H258574   3.251   3.244   4.958  0.4689 -1.0850  0.2363
12387TIP3   OH258575   3.142   3.425   3.519 -0.5437  0.1747 -0.5446
12387TIP3    H158576   3.090   3.358   3.562 -1.0548  0.0011 -1.4328
12387TIP3    H258577   3.222   3.380   3.492 -0.7477  0.0002 -0.8559
12388TIP3   OH258578   2.775   4.150  13.740 -0.1861  0.0532  0.2783
12388TIP3    H158579   2.848   4.116  13.792  1.8730  0.6529 -2.1368
12388TIP3    H258580   2.773   4.244  13.761 -0.7732 -0.0940  0.9102
12389TIP3   OH258581   5.442   1.920  14.087  0.1659  0.2951  0.0207
12389TIP3    H158582   5.411   1.867  14.014  1.7176 -1.4827  0.6115
12389TIP3    H258583   5.456   2.007  14.049 -1.9125  0.1770 -1.0762
12390TIP3   OH258584   2.800   6.692   0.188 -0.1937 -0.5494  0.3960
12390TIP3    H158585   2.789   6.656   0.276  0.3264  2.0853  1.5805
12390TIP3    H258586   2.889   6.726   0.186 -0.6664  0.7109 -0.6507
12391TIP3   OH258587   1.941   0.229  11.566 -0.3636 -0.0857  0.3716
12391TIP3    H158588   1.965   0.168  11.635  0.4015  0.4673  0.6131
12391TIP3    H258589   1.859   0.195  11.530 -1.1911  0.0725  2.0829
12392TIP3   OH258590   5.783   1.270  12.230 -0.4152  0.4353  0.2136
12392TIP3    H158591   5.796   1.206  12.299  0.1115 -0.7526 -0.9531
12392TIP3    H258592   5.698   1.247  12.192 -0.4137  0.6895  0.0552
12393TIP3   OH258593   5.649   4.737   1.866 -0.3466 -0.4667  0.0760
12393TIP3    H158594   5.734   4.756   1.827 -0.1050 -0.6770  0.4888
12393TIP3    H258595   5.617   4.660   1.818 -0.0179 -0.7686  0.3340
12394TIP3   OH258596   4.265   5.275  14.422 -0.3983  0.4161  0.2243
12394TIP3    H158597   4.353   5.243  14.405  0.3816  2.4720  0.2959
12394TIP3    H258598   4.271   5.370  14.414 -2.5074  0.6247  0.6712
12395TIP3   OH258599   6.624   0.537  14.565 -0.5548  0.7588 -0.3759
12395TIP3    H158600   6.579   0.567  14.486 -0.2150  3.7266  0.4862
12395TIP3    H258601   6.639   0.444  14.551 -0.5854  1.2199 -3.7847
12396TIP3   OH258602   4.227   3.322  14.919  0.0700  0.3456  0.2365
12396TIP3    H158603   4.181   3.277  14.848 -1.2424 -0.3254  1.4971
12396TIP3    H258604   4.291   3.258  14.949 -1.7256 -0.6976  1.9583
12397TIP3   OH258605   0.550   6.611   1.674 -0.1053 -0.1678 -0.1536
12397TIP3    H158606   0.564   6.671   1.601 -1.2740  0.0236 -0.2306
12397TIP3    H258607   0.534   6.668   1.749  0.1638 -0.3772  0.0669
12398TIP3   OH258608   1.932   4.455   4.567 -0.5918  1.0021  0.3004
12398TIP3    H158609   1.905   4.501   4.488 -0.8836  0.2379 -0.0459
12398TIP3    H258610   2.028   4.451   4.561 -0.5202  2.0266  0.5985
12399TIP3   OH258611   6.681   0.048   5.558 -0.7248  0.5702 -0.4475
12399TIP3    H158612   6.660  -0.019   5.623 -0.7466 -0.1533 -1.2076
12399TIP3    H258613   6.770   0.028   5.531 -1.4660 -0.3896 -2.2035
12400TIP3   OH258614   6.751   4.657   0.980 -0.4707  0.0132 -0.2448
12400TIP3    H158615   6.761   4.580   1.037 -0.9683 -0.6020 -0.9776
12400TIP3    H258616   6.791   4.630   0.898  0.7633  1.1069 -0.0100
12401TIP3   OH258617   4.815   1.673  16.963 -0.4843 -0.0712 -0.7870
12401TIP3    H158618   4.810   1.743  17.027  1.0007 -0.8685  0.2222
12401TIP3    H258619   4.891   1.695  16.908 -0.6664 -0.3199 -1.1473
12402TIP3   OH258620   0.566   5.145  12.266 -0.3633  0.0907  0.7320
12402TIP3    H158621   0.532   5.118  12.181  0.6569 -0.9560  0.6303
12402TIP3    H258622   0.598   5.063  12.306  0.2900  0.7490  1.5867
12403TIP3   OH258623   4.185   6.658   4.981  0.2065 -0.0573 -0.2040
12403TIP3    H158624   4.260   6.617   5.025 -0.3759 -0.7632  0.1298
12403TIP3    H258625   4.168   6.603   4.905 -0.1742 -0.0811 -0.1032
12404TIP3   OH258626   0.838   3.440   3.466 -0.0600 -0.2015 -0.5920
12404TIP3    H158627   0.929   3.468   3.473 -0.1278 -0.4466  1.3686
12404TIP3    H258628   0.841   3.364   3.408  1.1361 -0.8703  0.3266
12405TIP3   OH258629   2.864   0.830  15.906 -0.0596  0.4443  0.2580
12405TIP3    H158630   2.802   0.789  15.846  1.5261 -1.9983  0.2062
12405TIP3    H258631   2.834   0.805  15.993  0.4935 -0.2331  0.2587
12406TIP3   OH258632   0.515   2.424   3.595 -0.5527 -0.5947  0.2769
12406TIP3    H158633   0.606   2.416   3.566 -0.9898 -2.6740 -0.6142
12406TIP3    H258634   0.520   2.470   3.678  1.3178 -0.6636  0.2212
12407TIP3   OH258635   1.202   3.020   5.672  0.0535 -0.2107  0.8729
12407TIP3    H158636   1.137   3.064   5.618  0.4928 -0.0549  0.4635
12407TIP3    H258637   1.162   3.013   5.758 -0.9406 -1.0918  0.3515
12408TIP3   OH258638   5.711   6.061  10.688 -0.4309  0.4510 -1.0085
12408TIP3    H158639   5.669   5.986  10.731  0.0891 -0.4337 -2.0056
12408TIP3    H258640   5.781   6.022  10.636  1.7168  1.8864  0.7005
12409TIP3   OH258641   1.584   1.320  16.475 -0.1130 -0.4437  0.0394
12409TIP3    H158642   1.614   1.323  16.385 -2.0861  2.7394 -0.5937
12409TIP3    H258643   1.664   1.314  16.527  1.1656 -0.1239 -1.8361
12410TIP3   OH258644   4.063   0.471  15.830  0.1138 -0.1634  0.2035
12410TIP3    H158645   3.985   0.497  15.878  1.0341  1.6307  0.7588
12410TIP3    H258646   4.133   0.525  15.867  1.5619 -1.5530 -0.4745
12411TIP3   OH258647   4.425   0.510  12.811 -0.0584 -0.4419 -0.0186
12411TIP3    H158648   4.386   0.490  12.726 -0.1008  1.6609 -0.5297
12411TIP3    H258649   4.361   0.479  12.875 -0.3608 -1.3761 -0.7669
12412TIP3   OH258650   4.336   2.346  16.987 -0.5547 -0.0548  0.2640
12412TIP3    H158651   4.372   2.425  16.948 -2.6456  1.0500  0.4802
12412TIP3    H258652   4.340   2.280  16.918  0.6499  0.3848 -0.1008
12413TIP3   OH258653   6.470   6.012   1.137  0.1386 -0.1162  0.3378
12413TIP3    H158654   6.553   6.053   1.162  0.2157 -0.5269  0.7618
12413TIP3    H258655   6.484   5.919   1.153 -0.8955 -0.0379  1.7976
12414TIP3   OH258656   3.652   5.428  14.495  0.0056  0.3443  0.0531
12414TIP3    H158657   3.577   5.403  14.441 -0.6319  1.0844  0.5867
12414TIP3    H258658   3.627   5.403  14.584 -0.1141  1.6961  0.4090
12415TIP3   OH258659   0.665   0.059  13.766 -0.3542  0.2865 -0.1568
12415TIP3    H158660   0.607  -0.015  13.783 -1.1139  1.3773  2.1107
12415TIP3    H258661   0.749   0.033  13.804 -0.8787  0.9535  1.4935
12416TIP3   OH258662   4.355   3.963   0.276 -0.1170  0.2804 -0.2604
12416TIP3    H158663   4.305   3.947   0.356 -1.7906 -0.9954 -1.5175
12416TIP3    H258664   4.288   3.974   0.208  1.1662  4.3411 -1.0167
12417TIP3   OH258665   0.549   6.723   2.679 -0.1285 -0.8324 -0.7332
12417TIP3    H158666   0.570   6.817   2.677  1.4139 -1.1493  0.0859
12417TIP3    H258667   0.499   6.708   2.599  3.3551 -0.1655 -3.1670
12418TIP3   OH258668   5.372   3.249  16.350  0.2778  0.2873  0.0453
12418TIP3    H158669   5.280   3.250  16.324  0.2892  0.6169  0.0073
12418TIP3    H258670   5.379   3.179  16.414 -0.0748  0.4911  0.3081
12419TIP3   OH258671   6.150   5.159   0.715  0.0488  0.1578  0.3670
12419TIP3    H158672   6.236   5.200   0.724  0.2563  0.2238 -1.6582
12419TIP3    H258673   6.159   5.075   0.759  0.6203  0.8994  1.6874
12420TIP3   OH258674   0.377   3.412   6.207  0.3956  0.1007 -0.2181
12420TIP3    H158675   0.469   3.432   6.190  1.0253 -1.1377  1.5338
12420TIP3    H258676   0.329   3.461   6.141  2.2751  1.3874 -0.6712
12421TIP3   OH258677   4.589   4.289  15.737  0.5279 -0.2268 -0.0071
12421TIP3    H158678   4.650   4.299  15.665  1.1157 -0.6923  0.4235
12421TIP3    H258679   4.581   4.377  15.774  1.9237 -0.3981  0.7315
12422TIP3   OH258680   3.728   4.765   3.738  0.3157 -0.2260 -0.1172
12422TIP3    H158681   3.693   4.776   3.650  0.2536  0.1423 -0.0450
12422TIP3    H258682   3.813   4.809   3.736 -0.1194  0.6448  0.2905
12423TIP3   OH258683   1.659   1.028  15.500  0.3590 -0.1063  0.4984
12423TIP3    H158684   1.613   0.948  15.474  0.4072 -0.4404  1.4181
12423TIP3    H258685   1.720   1.000  15.568 -0.0259  0.8076  1.2404
12424TIP3   OH258686   3.734   5.544   2.676  0.0427  0.1954 -0.0493
12424TIP3    H158687   3.704   5.612   2.615 -0.6532  0.0027  0.0817
12424TIP3    H258688   3.821   5.574   2.703  0.3781  0.2612 -1.1699
12425TIP3   OH258689   5.376   1.229  12.911  0.2968 -0.3928  0.0135
12425TIP3    H158690   5.337   1.214  12.998 -0.6724  1.4587 -0.0691
12425TIP3    H258691   5.306   1.271  12.861  1.8488  1.3620 -0.7095
12426TIP3   OH258692   4.837   2.292  11.232  0.1342 -0.4520 -0.5876
12426TIP3    H158693   4.836   2.341  11.150  1.1697 -0.9371 -0.8992
12426TIP3    H258694   4.778   2.218  11.216 -0.8462  0.2630 -0.3678
12427TIP3   OH258695   3.116   0.323  14.767  0.1803  0.4265  0.1980
12427TIP3    H158696   3.110   0.304  14.673  0.7612  1.2945 -0.0150
12427TIP3    H258697   3.109   0.237  14.809 -2.7057  0.2692 -0.5171
12428TIP3   OH258698   5.942   1.768   0.978  0.1249 -0.2020 -0.0410
12428TIP3    H158699   5.919   1.711   0.905  0.8654  0.5877 -0.9113
12428TIP3    H258700   6.038   1.763   0.983 -0.0409 -1.7374  2.1111
12429TIP3   OH258701   0.987   5.199  14.767 -0.5816  0.5302  0.0471
12429TIP3    H158702   0.989   5.139  14.841 -1.4395 -0.9092 -1.0634
12429TIP3    H258703   0.917   5.260  14.787 -0.6706  0.2784  0.5142
12430TIP3   OH258704   0.988   3.526   1.310  0.7709  0.6512 -0.2471
12430TIP3    H158705   0.907   3.515   1.260  0.1944  0.6751  0.6803
12430TIP3    H258706   1.035   3.596   1.263  1.0002 -0.4606 -1.7151
12431TIP3   OH258707   4.941   1.184   5.473 -0.0739 -0.1059  0.6505
12431TIP3    H158708   4.960   1.201   5.565 -3.0519  0.5216  1.1839
12431TIP3    H258709   4.916   1.092   5.471 -1.5522  0.2910  0.7361
12432TIP3   OH258710   1.136   4.891   3.860  0.1878  0.1848  0.5533
12432TIP3    H158711   1.133   4.922   3.769  0.4610 -2.2942 -0.3365
12432TIP3    H258712   1.049   4.909   3.894 -1.2680 -2.5188 -1.5150
12433TIP3   OH258713   0.235   0.051   4.090 -0.0937 -0.4092  0.3619
12433TIP3    H158714   0.181  -0.016   4.131 -1.6018  0.8307  0.4511
12433TIP3    H258715   0.224   0.128   4.145  0.5672  0.2963 -0.4707
12434TIP3   OH258716   5.328   0.507  16.805 -0.2883 -0.0395  0.1064
12434TIP3    H158717   5.249   0.550  16.839 -1.7430 -0.3396 -2.7651
12434TIP3    H258718   5.380   0.579  16.768 -0.1963 -0.0919  0.1345
12435TIP3   OH258719   5.935   3.972   2.916  0.0488 -0.5360 -0.5200
12435TIP3    H158720   5.983   3.890   2.929  1.1387  0.1305 -0.2718
12435TIP3    H258721   5.981   4.036   2.971  1.3953  1.0906 -3.4199
12436TIP3   OH258722   1.278   2.126  11.665  0.2522  0.4257  0.5899
12436TIP3    H158723   1.270   2.032  11.655  0.2408  0.6151 -1.5603
12436TIP3    H258724   1.305   2.157  11.578 -0.4192  2.4577  1.0651
12437TIP3   OH258725   5.420   3.200  13.302  0.6519  0.3548 -0.7225
12437TIP3    H158726   5.393   3.202  13.210  0.2596  0.9745 -0.5958
12437TIP3    H258727   5.502   3.150  13.301  0.1307 -0.5062 -1.2706
12438TIP3   OH258728   0.581   1.311  12.760  0.2753 -0.3581 -0.1722
12438TIP3    H158729   0.605   1.378  12.823  0.0705  0.1523 -0.6359
12438TIP3    H258730   0.504   1.269  12.798 -2.1787  2.4499 -1.8319
12439TIP3   OH258731   2.822   2.259  15.901  0.0098  0.2004 -0.0696
12439TIP3    H158732   2.727   2.265  15.903 -0.1161 -0.0942 -3.1124
12439TIP3    H258733   2.843   2.183  15.955 -1.3869  0.8148  1.3686
12440TIP3   OH258734   2.035   5.328   1.407  0.3741  0.3515  0.2673
12440TIP3    H158735   1.990   5.243   1.403 -2.4849  1.8032  0.8577
12440TIP3    H258736   2.046   5.345   1.500 -1.8560  2.0210  0.2667
12441TIP3   OH258737   6.181   1.525   4.378 -0.3122  0.0251  0.1800
12441TIP3    H158738   6.268   1.486   4.379 -0.1821  0.3202  0.5394
12441TIP3    H258739   6.122   1.450   4.377 -0.0593 -0.1757 -2.9263
12442TIP3   OH258740   5.510   0.231   2.025  0.0466  0.2417  0.3693
12442TIP3    H158741   5.447   0.297   1.995  0.2544  1.0314  1.6369
12442TIP3    H258742   5.585   0.281   2.056 -0.2876 -0.5177  2.4741
12443TIP3   OH258743   1.936   6.191  15.362  0.3339  0.0196 -0.4725
12443TIP3    H158744   1.916   6.120  15.301 -0.9122 -0.5900  0.6208
12443TIP3    H258745   1.851   6.224  15.389  0.8811  0.6217  0.5504
12444TIP3   OH258746   4.538   0.199  16.099  0.2886  0.6079 -0.0760
12444TIP3    H158747   4.548   0.278  16.152 -0.7846  0.4978  0.2999
12444TIP3    H258748   4.448   0.202  16.068  0.7456  0.3882 -1.4550
12445TIP3   OH258749   3.103   2.798   4.287  0.1068  0.1428  0.4438
12445TIP3    H158750   3.186   2.842   4.305  0.3856  0.2910 -1.0790
12445TIP3    H258751   3.057   2.797   4.371  1.1080  1.2124  1.0197
12446TIP3   OH258752   4.528   1.362   6.515  0.0382  0.5857 -0.6121
12446TIP3    H158753   4.438   1.329   6.515  0.2619 -0.0242  0.5004
12446TIP3    H258754   4.520   1.453   6.544 -0.0421  0.0260  1.1667
12447TIP3   OH258755   4.899   4.351  13.104 -0.5961 -0.6466 -0.2317
12447TIP3    H158756   4.904   4.309  13.018  0.1537 -1.3038  0.1249
12447TIP3    H258757   4.990   4.356  13.133 -0.8310 -0.2541  0.4440
12448TIP3   OH258758   5.088   4.843   2.058 -0.0884 -0.2267 -0.1078
12448TIP3    H158759   5.073   4.890   2.141 -2.1558 -0.1917 -0.4660
12448TIP3    H258760   5.146   4.900   2.009  1.5051 -0.4374  1.4731
12449TIP3   OH258761   1.985   4.708   1.441 -0.0266 -0.2953 -0.4467
12449TIP3    H158762   1.891   4.697   1.454 -0.2771  2.7840  0.5917
12449TIP3    H258763   1.993   4.756   1.359  0.6436 -0.6183 -0.5738
12450TIP3   OH258764   2.185   4.279  15.516  0.0200  0.8356  0.1430
12450TIP3    H158765   2.192   4.198  15.566  2.7572  1.1741  0.3824
12450TIP3    H258766   2.094   4.307  15.527  0.2005  0.2249  3.8362
12451TIP3   OH258767   2.679   1.084   0.520 -0.3955 -0.0266  1.0724
12451TIP3    H158768   2.632   1.025   0.461 -1.6630  0.0123  2.0231
12451TIP3    H258769   2.766   1.044   0.529 -0.6680 -0.8131  0.3486
12452TIP3   OH258770   0.063   3.188   5.528  0.1057  0.7288 -0.0043
12452TIP3    H158771   0.011   3.131   5.472  1.4087 -2.3548  1.8115
12452TIP3    H258772   0.007   3.264   5.542 -2.0586 -0.4559 -1.7718
12453TIP3   OH258773   2.932   5.426   5.080  0.6206  0.3560 -0.2332
12453TIP3    H158774   2.976   5.344   5.055  1.4218  0.8715 -0.5331
12453TIP3    H258775   2.889   5.406   5.163  0.9160 -0.3347 -0.2434
12454TIP3   OH258776   2.986   3.983  16.296 -0.3649 -0.2641 -0.3264
12454TIP3    H158777   2.927   3.938  16.358 -0.6912 -2.1868 -1.9886
12454TIP3    H258778   2.938   4.061  16.270 -0.7752 -0.1065  0.8602
12455TIP3   OH258779   6.100   6.098  15.776  0.2730  0.2442  0.7780
12455TIP3    H158780   6.034   6.165  15.795  1.2203  1.8972 -1.4652
12455TIP3    H258781   6.132   6.121  15.689  0.2544 -3.4625 -0.2932
12456TIP3   OH258782   4.416   3.717   3.491 -0.3094 -0.1225  0.1751
12456TIP3    H158783   4.425   3.639   3.546  0.1392 -0.9145 -1.0113
12456TIP3    H258784   4.465   3.696   3.411  1.9263  2.3112  0.8191
12457TIP3   OH258785   0.510   0.281  11.059  0.4978 -0.2006 -0.7078
12457TIP3    H158786   0.585   0.309  11.112  0.8697 -0.6159 -1.0026
12457TIP3    H258787   0.550   0.241  10.982 -0.0003  2.5455 -2.4868
12458TIP3   OH258788   1.326   4.129  11.706 -1.0216 -0.0216 -0.3400
12458TIP3    H158789   1.370   4.067  11.764 -0.7504 -0.8056 -1.3775
12458TIP3    H258790   1.238   4.139  11.744 -0.8596 -0.5469  0.1799
12459TIP3   OH258791   5.198   2.800   5.537 -0.4016 -0.2205 -0.2508
12459TIP3    H158792   5.256   2.821   5.610 -2.0066  1.0421  0.6892
12459TIP3    H258793   5.168   2.885   5.506 -3.0714 -0.9149  0.3628
12460TIP3   OH258794   2.563   1.995   0.627 -0.5474 -0.2908  0.3018
12460TIP3    H158795   2.509   2.065   0.591  0.0741 -0.2331 -0.5220
12460TIP3    H258796   2.499   1.935   0.668 -1.2121 -0.0400 -0.3484
12461TIP3   OH258797   3.280   2.736   2.418  0.4651 -0.3739 -0.3483
12461TIP3    H158798   3.265   2.644   2.399  1.3425 -0.4122 -0.8815
12461TIP3    H258799   3.251   2.782   2.339  2.9322 -0.4401 -1.3542
12462TIP3   OH258800   1.105   3.066  12.616 -0.7231 -0.4529 -0.4831
12462TIP3    H158801   1.068   3.101  12.698 -0.0053  0.3790 -0.5037
12462TIP3    H258802   1.032   3.071  12.554 -0.3435  2.1733 -0.8041
12463TIP3   OH258803   3.578   4.458  13.483 -0.2052  0.3303 -0.0132
12463TIP3    H158804   3.558   4.380  13.432 -0.4749 -2.0433  3.5880
12463TIP3    H258805   3.493   4.502  13.492 -0.0140  1.2340 -2.2339
12464TIP3   OH258806   4.425   6.618   5.205  0.1437  0.0203  0.3385
12464TIP3    H158807   4.481   6.618   5.127  1.4221 -0.5414  1.2320
12464TIP3    H258808   4.439   6.532   5.245 -1.1917 -0.0398  0.7067
12465TIP3   OH258809   6.565   3.554  12.605  0.1880 -0.0322  0.5337
12465TIP3    H158810   6.547   3.648  12.595 -0.3891 -0.1840  0.1624
12465TIP3    H258811   6.507   3.511  12.542 -0.3903 -0.7194  1.5392
12466TIP3   OH258812   5.529   3.660  14.067  0.2483 -0.1378  0.1468
12466TIP3    H158813   5.593   3.693  14.004  0.2376 -4.0610 -2.1123
12466TIP3    H258814   5.576   3.655  14.149  1.5537  1.0695 -0.5169
12467TIP3   OH258815   5.102   4.143   4.649  0.5043  0.5091 -0.1647
12467TIP3    H158816   5.020   4.147   4.698  1.0178  0.8394  0.6888
12467TIP3    H258817   5.091   4.208   4.580 -0.6003 -0.6493 -1.0836
12468TIP3   OH258818   5.477   3.469  14.564  0.0613  0.0812  0.6804
12468TIP3    H158819   5.435   3.397  14.517  2.3950 -2.1976  1.9879
12468TIP3    H258820   5.425   3.479  14.644  0.8515 -1.4419  1.3907
12469TIP3   OH258821   3.639   4.555   0.028 -0.0395 -0.0842 -0.2900
12469TIP3    H158822   3.571   4.508  -0.021 -1.0870  1.3456 -0.2449
12469TIP3    H258823   3.650   4.637  -0.020 -0.0225  0.6944  1.0417
12470TIP3   OH258824   2.968   6.186  13.396 -0.2332 -0.3498 -0.3442
12470TIP3    H158825   3.055   6.175  13.357 -0.7034 -1.5984 -1.0972
12470TIP3    H258826   2.909   6.138  13.337 -1.3570  0.0350  0.4415
12471TIP3   OH258827   3.137   5.110  11.380  0.3634 -0.0241 -0.4000
12471TIP3    H158828   3.213   5.069  11.339 -0.7477 -0.5655 -1.9654
12471TIP3    H258829   3.102   5.168  11.312  1.1249  2.5571  1.3141
12472TIP3   OH258830   2.135   2.740   2.791 -0.7290 -0.1918 -0.1777
12472TIP3    H158831   2.123   2.667   2.852  0.2395  1.5313  2.1550
12472TIP3    H258832   2.055   2.792   2.800 -0.7632 -0.1646 -0.6782
12473TIP3   OH258833   1.526   0.968  15.121  0.1343  0.4630  0.3133
12473TIP3    H158834   1.514   1.027  15.047 -1.3983  0.8893  0.8912
12473TIP3    H258835   1.462   0.898  15.107 -1.0213  1.1914  1.8725
12474TIP3   OH258836   5.666   6.161   4.330  0.4881  0.3418  0.0573
12474TIP3    H158837   5.577   6.173   4.365 -0.2953  2.7074 -2.5542
12474TIP3    H258838   5.723   6.185   4.403 -1.0524  1.7762  0.8437
12475TIP3   OH258839   6.414   0.852  12.777  0.3990 -0.4283 -0.3542
12475TIP3    H158840   6.496   0.825  12.817 -0.3399 -2.1086  0.0883
12475TIP3    H258841   6.437   0.877  12.688  1.8181  1.8783  0.6212
12476TIP3   OH258842   6.323   4.979   5.832  0.2657  0.1268 -0.4446
12476TIP3    H158843   6.362   4.978   5.744 -0.2512  1.0339 -0.6870
12476TIP3    H258844   6.398   4.977   5.891  0.6511  0.7813 -0.9073
12477TIP3   OH258845   2.626   6.193   5.204  0.1569 -0.0672  0.5209
12477TIP3    H158846   2.618   6.269   5.145  2.2988 -0.6397 -0.5263
12477TIP3    H258847   2.626   6.231   5.291  0.4067  1.0841  0.0303
12478TIP3   OH258848   2.328   3.223  16.245  0.3648  1.0863  0.3663
12478TIP3    H158849   2.342   3.167  16.169  1.1912  1.3711  0.3043
12478TIP3    H258850   2.325   3.312  16.210  0.6610  1.2104  0.6600
12479TIP3   OH258851   5.203   0.329   2.840 -0.4261 -0.0815 -0.1184
12479TIP3    H158852   5.117   0.367   2.822  0.3626  1.5879 -0.4981
12479TIP3    H258853   5.258   0.358   2.767  0.1238 -2.2928 -0.6154
12480TIP3   OH258854   1.395   1.783   0.073 -0.3872 -0.2858 -0.3987
12480TIP3    H158855   1.470   1.772   0.014  0.5375 -3.7553  1.2757
12480TIP3    H258856   1.323   1.740   0.027 -1.0333  1.7254 -1.3293
12481TIP3   OH258857   3.354   2.152   1.951  0.0275  0.1931 -0.5850
12481TIP3    H158858   3.437   2.122   1.987 -0.0399 -0.6883 -1.1368
12481TIP3    H258859   3.288   2.100   1.997 -0.4260  2.6246  1.6654
12482TIP3   OH258860   2.713   0.355  15.648  0.0786  0.1612  0.3280
12482TIP3    H158861   2.799   0.314  15.656 -0.7191 -1.8833 -1.1166
12482TIP3    H258862   2.651   0.284  15.665 -1.3294  1.4876  0.8315
12483TIP3   OH258863   2.954   1.895  11.142  0.1728  0.2198  0.6200
12483TIP3    H158864   2.963   1.851  11.057  2.3914  0.6218  0.6355
12483TIP3    H258865   2.863   1.926  11.143 -0.5061 -1.6011 -0.7159
12484TIP3   OH258866   3.695   5.471  16.037 -0.1394 -0.3996 -0.8670
12484TIP3    H158867   3.703   5.546  15.978 -0.9902 -1.7817 -2.8111
12484TIP3    H258868   3.733   5.398  15.987  2.5545 -0.8965  1.7734
12485TIP3   OH258869   4.979   4.698  11.745 -0.3942 -0.2048  0.1387
12485TIP3    H158870   4.953   4.780  11.786 -0.1069 -0.0401 -0.0103
12485TIP3    H258871   5.042   4.659  11.806  1.1457  0.7363 -0.8371
12486TIP3   OH258872   5.096   4.164  16.346  0.7374  0.1527  0.3891
12486TIP3    H158873   5.146   4.093  16.306  0.6892  0.8898 -1.0190
12486TIP3    H258874   5.162   4.218  16.389  1.2714  1.4597 -1.9883
12487TIP3   OH258875   2.391   1.031  16.467  0.0582 -0.5101 -0.3683
12487TIP3    H158876   2.366   0.954  16.416 -2.3541 -0.1757  0.2247
12487TIP3    H258877   2.339   1.102  16.430 -1.1184 -0.0980  1.9845
12488TIP3   OH258878   5.617   2.855   2.673  0.0637  0.4577  0.1074
12488TIP3    H158879   5.551   2.806   2.722 -0.4080  1.2389  0.2581
12488TIP3    H258880   5.585   2.944   2.672  0.1518  0.4818 -1.4877
12489TIP3   OH258881   3.130   4.268  14.703  0.3654  0.4901  0.1329
12489TIP3    H158882   3.196   4.253  14.770 -1.2513 -1.7838  1.2852
12489TIP3    H258883   3.063   4.321  14.747 -1.3553 -2.1500  0.7934
12490TIP3   OH258884   5.328   3.379  12.020 -0.0349  0.1877  0.5171
12490TIP3    H158885   5.341   3.285  12.036 -1.9752 -0.1267  0.3775
12490TIP3    H258886   5.416   3.416  12.023  0.5661 -1.2854  2.8778
12491TIP3   OH258887   6.181   6.219  11.754 -0.6796  0.2911 -0.1061
12491TIP3    H158888   6.126   6.298  11.750 -1.1551 -0.0095  0.3952
12491TIP3    H258889   6.256   6.240  11.699 -0.8403  1.0658 -0.0426
12492TIP3   OH258890   0.096   1.283   3.716 -0.1442 -0.0162 -0.8318
12492TIP3    H158891   0.187   1.282   3.744 -0.3041  0.2057 -0.3166
12492TIP3    H258892   0.086   1.201   3.667  0.3074 -0.0768 -0.8260
12493TIP3   OH258893   5.228   6.403   2.971 -0.0322  0.5619  0.3867
12493TIP3    H158894   5.184   6.443   3.045 -0.1286 -0.1288  0.7085
12493TIP3    H258895   5.321   6.406   2.993 -0.0526  0.4541  0.4904
12494TIP3   OH258896   2.495   5.675  16.248 -0.2555  0.7752 -0.1985
12494TIP3    H158897   2.513   5.636  16.333 -1.0632  0.7592 -0.0326
12494TIP3    H258898   2.437   5.613  16.204  2.6945 -0.7833 -2.0406
12495TIP3   OH258899   1.194   2.367   2.712 -0.5730 -0.5051  0.0791
12495TIP3    H158900   1.107   2.329   2.717 -0.4435 -0.6468  1.3001
12495TIP3    H258901   1.187   2.432   2.642 -1.0196 -2.1308 -1.4130
12496TIP3   OH258902   3.759   4.214   5.307  0.0114 -0.1109 -0.2474
12496TIP3    H158903   3.836   4.246   5.354  0.6209 -1.7901 -0.0819
12496TIP3    H258904   3.791   4.191   5.220  0.0754 -2.3317  0.3211
12497TIP3   OH258905   5.387   4.731   3.756 -0.6279  0.3804 -0.3189
12497TIP3    H158906   5.438   4.671   3.811 -2.0050 -0.1699  0.3900
12497TIP3    H258907   5.396   4.696   3.667  1.9467  1.5067 -0.5716
12498TIP3   OH258908   6.228   5.461  12.756 -0.1610  0.4613 -0.4630
12498TIP3    H158909   6.256   5.485  12.668 -0.8519 -1.3809 -1.2174
12498TIP3    H258910   6.282   5.515  12.814  1.8758  0.0942 -1.9549
12499TIP3   OH258911   5.279   6.728  14.774  0.1101  0.3291 -0.6474
12499TIP3    H158912   5.267   6.801  14.834 -0.1085  0.1888 -0.5209
12499TIP3    H258913   5.342   6.671  14.818  0.7163  0.7189 -0.9997
12500TIP3   OH258914   0.750   5.684  12.969 -0.4360 -0.2803 -0.3699
12500TIP3    H158915   0.830   5.674  13.020  1.0132  0.3005 -2.4527
12500TIP3    H258916   0.696   5.608  12.992  0.4556 -0.3637  1.4853
12501TIP3   OH258917   3.878   3.451   3.634 -0.6632  0.3252 -0.6835
12501TIP3    H158918   3.853   3.413   3.718 -2.1663  0.1087 -1.2190
12501TIP3    H258919   3.824   3.530   3.627  2.0135  2.3112  0.1701
12502TIP3   OH258920   5.683   6.294  14.640  0.8621 -0.1535 -0.1615
12502TIP3    H158921   5.754   6.357  14.654  0.8120 -0.1692  0.1751
12502TIP3    H258922   5.708   6.247  14.561 -0.0316  1.5801 -1.5147
12503TIP3   OH258923   6.362   6.468   4.881  0.1299  0.1377 -0.1340
12503TIP3    H158924   6.378   6.410   4.956 -0.0454  0.8891  0.4862
12503TIP3    H258925   6.377   6.556   4.915 -0.3072  0.5102 -0.8933
12504TIP3   OH258926   1.601   2.527  16.114 -0.2448  0.1131 -0.6899
12504TIP3    H158927   1.690   2.526  16.080  0.0542  0.5719  0.0790
12504TIP3    H258928   1.606   2.486  16.200 -0.3078  2.4537  0.4584
12505TIP3   OH258929   6.712   4.748  12.044 -0.3931 -0.0115 -0.0969
12505TIP3    H158930   6.658   4.781  11.973  0.3986  2.5141  0.4307
12505TIP3    H258931   6.783   4.701  12.001 -1.2713 -0.6611 -0.8653
12506TIP3   OH258932   4.557   4.277   5.626  0.5412 -0.6388 -0.2579
12506TIP3    H158933   4.569   4.256   5.718  0.1510  0.6899  0.1129
12506TIP3    H258934   4.510   4.361   5.626 -0.9378 -1.4289 -1.6605
12507TIP3   OH258935   3.935   3.533   3.963  0.2203 -0.6109 -0.3173
12507TIP3    H158936   3.905   3.623   3.949 -0.8728 -0.9861 -0.4536
12507TIP3    H258937   3.981   3.536   4.047  0.8484  0.2239 -0.6799
12508TIP3   OH258938   0.541   4.516   1.892  0.3599 -0.3298  0.1440
12508TIP3    H158939   0.467   4.467   1.858  0.0920  0.6777 -0.7537
12508TIP3    H258940   0.605   4.517   1.820  1.2231 -1.1538  0.8936
12509TIP3   OH258941   0.138   2.508   2.202  1.0842 -0.2411  0.3182
12509TIP3    H158942   0.190   2.474   2.275  1.8762  1.5938  0.6257
12509TIP3    H258943   0.200   2.516   2.130  0.2440 -2.3317 -0.6956
12510TIP3   OH258944   5.087   6.489  10.956  0.0299  0.1751  0.1868
12510TIP3    H158945   5.137   6.556  10.909  1.2609 -0.9637 -0.1934
12510TIP3    H258946   5.025   6.537  11.009  1.1314  1.6324  0.1846
12511TIP3   OH258947   5.790   2.790   2.443 -0.0099 -0.5471  0.2273
12511TIP3    H158948   5.744   2.754   2.367  1.0648  0.1952 -0.7859
12511TIP3    H258949   5.729   2.854   2.480 -0.3233 -0.5281 -0.3234
12512TIP3   OH258950   6.127   3.803   4.162  0.6217 -0.0290  0.1141
12512TIP3    H158951   6.045   3.810   4.210  0.6306 -2.3469  0.5430
12512TIP3    H258952   6.170   3.888   4.174 -0.8870  0.5683  1.3838
12513TIP3   OH258953   0.090   6.087   4.327 -0.0698  0.4376  0.1939
12513TIP3    H158954   0.157   6.065   4.392  0.9500 -0.5405 -1.1524
12513TIP3    H258955   0.010   6.096   4.378  0.8189  0.3131  1.6657
12514TIP3   OH258956   3.919   3.307  14.272  0.2758  0.9380  0.3148
12514TIP3    H158957   3.992   3.326  14.213 -0.5622 -1.6158 -1.6807
12514TIP3    H258958   3.960   3.296  14.358  2.6203 -2.5992 -1.1288
12515TIP3   OH258959   5.841   5.982   0.763  0.3220 -0.7809 -0.4787
12515TIP3    H158960   5.873   5.957   0.677  2.1422 -2.6948  0.7106
12515TIP3    H258961   5.894   6.058   0.787 -2.0609  1.5197 -2.1336
12516TIP3   OH258962   1.344   3.432  16.717 -0.2905 -0.1766  0.0399
12516TIP3    H158963   1.323   3.472  16.632  0.8664 -1.0586 -0.6804
12516TIP3    H258964   1.288   3.478  16.780 -2.7070 -0.9316 -1.4885
12517TIP3   OH258965   5.803   4.176   2.793 -0.0738  0.2358  0.1678
12517TIP3    H158966   5.825   4.179   2.700 -0.2618 -0.5152  0.0931
12517TIP3    H258967   5.850   4.099   2.826  0.2160  0.6649  0.7504
12518TIP3   OH258968   2.078   5.200  14.008  0.3678  0.1407  0.0523
12518TIP3    H158969   2.034   5.115  14.014 -1.7033  1.1855  0.4342
12518TIP3    H258970   2.032   5.246  13.937 -0.1417  1.8164  1.4285
12519TIP3   OH258971   1.875   1.768  13.318  0.3766 -0.0767 -0.3019
12519TIP3    H158972   1.946   1.830  13.301  0.8447 -0.4359  0.3315
12519TIP3    H258973   1.802   1.823  13.346 -0.0426  0.4255 -2.2617
12520TIP3   OH258974   0.383   2.601   3.434  0.2244 -0.1162 -0.5590
12520TIP3    H158975   0.427   2.534   3.487 -0.5062 -0.3818 -0.2906
12520TIP3    H258976   0.422   2.684   3.463  0.0385 -0.2889  0.1790
12521TIP3   OH258977   2.445   0.547   0.473 -0.4867  0.7025 -0.6449
12521TIP3    H158978   2.446   0.512   0.562  3.0357  1.8562 -0.1656
12521TIP3    H258979   2.356   0.581   0.461 -0.9249  0.7780  2.5371
12522TIP3   OH258980   3.590   2.790  14.032 -0.0961 -0.0803 -0.4050
12522TIP3    H158981   3.665   2.833  13.991  0.1968 -1.5596 -1.4630
12522TIP3    H258982   3.540   2.754  13.958 -1.2145 -0.1149  0.3558
12523TIP3   OH258983   1.985   2.077  10.764 -0.0138  0.3596 -0.5274
12523TIP3    H158984   2.063   2.022  10.762  0.9616  1.5035  2.5839
12523TIP3    H258985   2.020   2.167  10.764 -1.2883  0.8775  1.1303
12524TIP3   OH258986   6.748   1.392  13.289  0.0414 -0.6445  0.1108
12524TIP3    H158987   6.783   1.328  13.227 -1.4736 -0.8695 -0.5297
12524TIP3    H258988   6.825   1.440  13.320  1.3659 -3.5010  1.4683
12525TIP3   OH258989   1.651   6.682   4.355 -0.0003 -0.4049  0.3860
12525TIP3    H158990   1.646   6.759   4.299  2.6738 -0.5352 -0.1241
12525TIP3    H258991   1.604   6.706   4.434 -1.0524  0.9613 -0.6398
12526TIP3   OH258992   6.668   5.394  16.594 -0.5977  0.1161 -0.3193
12526TIP3    H158993   6.701   5.344  16.519  0.8254 -1.5944  1.3621
12526TIP3    H258994   6.747   5.417  16.643 -1.4817  1.5298  0.4518
12527TIP3   OH258995   0.134   6.037  17.109 -0.4108  0.0563  0.0617
12527TIP3    H158996   0.153   6.037  17.015 -0.2784 -0.8625  0.0880
12527TIP3    H258997   0.083   6.117  17.122  0.9807  1.0802 -0.5121
12528TIP3   OH258998   5.741   3.714  12.168  0.4674 -0.3612 -0.2959
12528TIP3    H158999   5.750   3.672  12.083  3.3501 -2.6934  1.0610
12528TIP3    H259000   5.800   3.789  12.164 -0.1446  0.1001 -0.6864
12529TIP3   OH259001   3.519   4.381  15.971 -0.2818  0.0823 -0.2626
12529TIP3    H159002   3.508   4.444  16.043  0.7177  0.4870 -0.4501
12529TIP3    H259003   3.548   4.301  16.014 -0.4907  0.0754 -0.1354
12530TIP3   OH259004   5.810   1.055   5.448  0.1431 -0.0122  0.0653
12530TIP3    H159005   5.902   1.063   5.474  0.6420 -2.0477 -0.9832
12530TIP3    H259006   5.764   1.033   5.528  0.5299  1.1994  0.6344
12531TIP3   OH259007   3.403   4.368  10.660 -0.6649 -0.0266 -0.0450
12531TIP3    H159008   3.325   4.351  10.607 -2.5520 -2.1502  3.2549
12531TIP3    H259009   3.469   4.307  10.628 -0.6297  1.0435 -2.1302
12532TIP3   OH259010   6.274   2.331  14.898 -0.0110 -0.1111  0.0720
12532TIP3    H159011   6.188   2.293  14.883  0.1045  0.1216 -1.2480
12532TIP3    H259012   6.334   2.278  14.846  0.3073  1.1681 -0.9024
12533TIP3   OH259013   0.024   2.119  15.408  0.1068 -0.3332  0.3732
12533TIP3    H159014  -0.023   2.089  15.486 -0.0531 -0.7717  0.1128
12533TIP3    H259015   0.054   2.207  15.430  2.1415 -1.3529  1.8465
12534TIP3   OH259016   4.377   5.112   4.285 -0.0666 -0.0673 -0.1924
12534TIP3    H159017   4.296   5.164   4.283 -0.9458 -1.4352 -1.3552
12534TIP3    H259018   4.441   5.170   4.326 -1.8257  0.7696  1.4675
12535TIP3   OH259019   3.750   6.535  16.677 -0.2825  0.1501 -0.0554
12535TIP3    H159020   3.805   6.544  16.755  0.3515  2.6309 -0.7151
12535TIP3    H259021   3.810   6.555  16.604 -1.2523 -0.4939 -1.0374
12536TIP3   OH259022   2.275   5.897  14.354  0.0736 -0.5243 -0.3341
12536TIP3    H159023   2.303   5.971  14.407 -1.4917 -1.1996  1.4944
12536TIP3    H259024   2.231   5.936  14.278 -0.9554  0.4125  0.7398
12537TIP3   OH259025   6.296   1.467  13.709 -0.0133  0.1526 -0.0737
12537TIP3    H159026   6.383   1.433  13.730  0.2264  1.1288  0.5665
12537TIP3    H259027   6.312   1.557  13.681 -0.7781  0.2203 -0.2909
12538TIP3   OH259028   3.955   4.796  15.677 -0.2191 -0.0140  0.5265
12538TIP3    H159029   4.013   4.741  15.624 -2.7612 -0.9329 -1.3781
12538TIP3    H259030   3.910   4.852  15.613 -1.6751  0.4449  1.9358
12539TIP3   OH259031   5.693   0.715   2.447 -0.6311 -0.4629 -0.1354
12539TIP3    H159032   5.785   0.738   2.445 -0.8204  0.3786  0.5940
12539TIP3    H259033   5.647   0.795   2.422 -1.2336 -0.4718  0.9235
12540TIP3   OH259034   0.990   4.885  12.983 -0.3022  0.4689  0.4461
12540TIP3    H159035   0.973   4.846  13.069  1.3438 -0.5914  0.3049
12540TIP3    H259036   0.906   4.880  12.937 -0.7711 -0.4827  1.3947
12541TIP3   OH259037   6.052   4.133  11.065  0.4827 -0.2506 -0.0514
12541TIP3    H159038   6.103   4.072  11.118  0.3362  0.8871  1.4231
12541TIP3    H259039   5.978   4.081  11.034 -0.3921 -0.4888  2.3414
12542TIP3   OH259040   0.525   3.561  14.172  0.1043 -0.7029 -0.8354
12542TIP3    H159041   0.517   3.496  14.102 -1.8231 -0.2568 -1.0608
12542TIP3    H259042   0.490   3.517  14.249 -0.0317 -0.3683 -0.7047
12543TIP3   OH259043   4.167   3.972   0.061 -0.0420 -0.2431  0.2691
12543TIP3    H159044   4.093   3.950   0.004  1.6098  0.2236 -2.1209
12543TIP3    H259045   4.240   3.921   0.026  1.5828  1.8820  0.4739
12544TIP3   OH259046   2.387   0.010  12.768  0.1993  0.1478 -0.1259
12544TIP3    H159047   2.338  -0.070  12.790  1.0320 -0.7433 -1.4267
12544TIP3    H259048   2.334   0.051  12.698  0.5158 -0.0239 -0.4676
12545TIP3   OH259049   5.746   1.480  14.655  0.0240  0.0665 -0.4777
12545TIP3    H159050   5.791   1.422  14.716 -0.7974  1.2978  1.3261
12545TIP3    H259051   5.799   1.559  14.651 -0.2703  0.2520 -0.8463
12546TIP3   OH259052   6.606   6.515   6.129  0.3189  0.5668 -0.2078
12546TIP3    H159053   6.631   6.454   6.198  1.8452  1.8860  0.4529
12546TIP3    H259054   6.657   6.594   6.148 -1.2798  1.8831 -1.2912
12547TIP3   OH259055   5.409   3.877  11.434  0.2817  0.3260  0.0225
12547TIP3    H159056   5.339   3.812  11.424 -0.1716  0.8770 -0.3886
12547TIP3    H259057   5.488   3.825  11.447 -0.3549 -0.3022  1.5406
12548TIP3   OH259058   1.506   5.432  16.724 -0.4661  0.1274 -0.0648
12548TIP3    H159059   1.499   5.346  16.681 -0.1826 -0.5411  1.2009
12548TIP3    H259060   1.580   5.423  16.785 -1.1771  0.8938  0.9286
12549TIP3   OH259061   3.160   3.061  16.148 -0.1140 -0.3835 -0.0140
12549TIP3    H159062   3.251   3.035  16.133  0.7277  0.8105  2.8304
12549TIP3    H259063   3.110   2.980  16.137  1.4386 -1.3393 -0.1934
12550TIP3   OH259064   5.201   5.546   5.132  0.9347 -0.2006  0.2378
12550TIP3    H159065   5.214   5.626   5.080 -0.2307 -0.1613 -0.0099
12550TIP3    H259066   5.199   5.576   5.223 -0.3179  0.1629  0.0945
12551TIP3   OH259067   5.078   5.902   4.445  0.0711 -0.3989  0.2143
12551TIP3    H159068   5.089   5.884   4.538  2.7038 -1.0557 -0.1811
12551TIP3    H259069   5.005   5.964   4.441  0.5345  0.3779  2.7823
12552TIP3   OH259070   2.903   5.580   0.441  0.1110 -0.2969  0.4483
12552TIP3    H159071   2.962   5.638   0.489 -0.6139  0.5388  0.3401
12552TIP3    H259072   2.899   5.618   0.353 -0.1654 -0.6636  0.3000
12553TIP3   OH259073   1.462   5.271  11.746  0.6140 -0.2344 -0.3939
12553TIP3    H159074   1.512   5.298  11.823 -1.9775 -0.6285  1.4923
12553TIP3    H259075   1.423   5.352  11.712 -0.2176 -0.3884  0.1784
12554TIP3   OH259076   3.459   2.158   0.382  0.2565 -0.2495  0.4038
12554TIP3    H159077   3.455   2.166   0.287 -3.1631  1.3899  0.6067
12554TIP3    H259078   3.529   2.217   0.408  0.5279  0.0759 -1.0371
12555TIP3   OH259079   4.509   0.380  16.306 -0.4551  0.0467  0.0525
12555TIP3    H159080   4.552   0.463  16.329  0.7515 -1.1346  2.1812
12555TIP3    H259081   4.431   0.378  16.361  1.7181 -2.1392  3.2238
12556TIP3   OH259082   2.526   3.562  13.604  0.5466 -0.0469 -0.3657
12556TIP3    H159083   2.462   3.501  13.641  0.8466 -1.1522 -1.6294
12556TIP3    H259084   2.590   3.575  13.674  0.3308 -0.9631  0.0102
12557TIP3   OH259085   0.396   2.270  16.876 -0.3341  0.2640 -0.1788
12557TIP3    H159086   0.480   2.278  16.922 -0.1666 -0.6389 -0.3265
12557TIP3    H259087   0.400   2.336  16.807  0.5755 -0.3128 -0.6799
12558TIP3   OH259088   1.497   1.344   1.814  0.4787  0.2340  0.5711
12558TIP3    H159089   1.569   1.406   1.822  0.9144 -0.2410  0.4267
12558TIP3    H259090   1.434   1.387   1.756  0.0776  1.1603  1.6758
12559TIP3   OH259091   1.682   1.541   1.978 -0.7849  0.4981  0.4099
12559TIP3    H159092   1.742   1.468   1.960 -0.3985  0.9501 -0.1575
12559TIP3    H259093   1.740   1.616   1.991 -1.1201  0.4484  2.2666
12560TIP3   OH259094   2.813   2.323  12.307 -0.1419 -0.5139 -0.0071
12560TIP3    H159095   2.732   2.360  12.271 -0.1571 -0.5092  0.0312
12560TIP3    H259096   2.788   2.236  12.338  0.6158 -1.8465 -3.0027
12561TIP3   OH259097   5.137   0.806   4.703 -0.7340 -0.2679  0.7596
12561TIP3    H159098   5.066   0.749   4.731 -1.1497 -0.4344 -0.6162
12561TIP3    H259099   5.112   0.893   4.735 -1.5389 -0.3303  0.2888
12562TIP3   OH259100   4.126   4.851  13.665 -0.5839 -0.0880 -0.3771
12562TIP3    H159101   4.173   4.912  13.607  0.6245 -0.7082 -0.0669
12562TIP3    H259102   4.064   4.806  13.607 -0.9207  0.8579 -0.7629
12563TIP3   OH259103   5.087   6.157   3.573 -0.6175  0.7297  0.0415
12563TIP3    H159104   5.031   6.091   3.532  0.8638 -0.2571 -0.4700
12563TIP3    H259105   5.082   6.137   3.667 -1.7295  1.1439  0.0692
12564TIP3   OH259106   4.750   0.972   3.838  0.5793 -0.4226  0.1976
12564TIP3    H159107   4.814   0.968   3.910 -0.4395 -0.0306  1.1283
12564TIP3    H259108   4.788   1.033   3.776  1.7948 -1.2765  0.0757
12565TIP3   OH259109   5.774   4.126  12.275 -0.4251 -0.3449 -0.2215
12565TIP3    H159110   5.686   4.144  12.243 -0.3772  0.6587  0.1803
12565TIP3    H259111   5.774   4.159  12.365 -0.0952 -1.7306  0.3012
12566TIP3   OH259112   6.549   1.000  14.810  0.3940  0.0218  0.4485
12566TIP3    H159113   6.533   0.914  14.771  0.5541  0.1407  0.1134
12566TIP3    H259114   6.523   1.062  14.742  1.6607  0.2238  0.1343
12567TIP3   OH259115   6.784   4.317  11.899 -0.1053  0.1733  0.4055
12567TIP3    H159116   6.823   4.362  11.974  0.2968 -1.6282  1.3006
12567TIP3    H259117   6.859   4.293  11.844 -0.2772  0.1256  0.1903
12568TIP3   OH259118   1.152   2.759  15.166 -0.4164 -0.9708 -0.4368
12568TIP3    H159119   1.248   2.764  15.165 -0.4245 -0.8527 -0.8034
12568TIP3    H259120   1.133   2.677  15.210 -0.2196  0.5577  2.6164
12569TIP3   OH259121   5.585   0.343  11.298 -0.4216 -0.4037 -0.1610
12569TIP3    H159122   5.511   0.364  11.241 -0.6841 -0.0219  0.3130
12569TIP3    H259123   5.661   0.344  11.241 -0.7241 -0.3703 -0.5688
12570TIP3   OH259124   1.445   3.048  16.270 -0.3830 -0.1985  0.0974
12570TIP3    H159125   1.521   3.071  16.216 -0.8018 -0.1795 -0.4917
12570TIP3    H259126   1.375   3.106  16.239 -0.5869 -0.0836  0.7649
12571TIP3   OH259127   3.494   4.109   1.628 -0.4512  0.8819 -0.2666
12571TIP3    H159128   3.420   4.162   1.659 -0.8929  0.6347 -0.9052
12571TIP3    H259129   3.571   4.150   1.668 -0.6976  2.5683 -1.4845
12572TIP3   OH259130   2.887   4.390   0.241 -0.0758 -0.1061 -0.2960
12572TIP3    H159131   2.837   4.429   0.170  1.0047  0.7202 -0.6184
12572TIP3    H259132   2.975   4.427   0.232  0.1088 -0.0824  1.3861
12573TIP3   OH259133   3.614   6.359  14.274 -0.1097 -0.1577 -0.0615
12573TIP3    H159134   3.684   6.382  14.335 -0.2174  0.2566 -0.0915
12573TIP3    H259135   3.642   6.395  14.190  0.6455 -1.8404 -0.5543
12574TIP3   OH259136   0.773   3.080   0.935 -0.2845  0.3213 -0.0709
12574TIP3    H159137   0.850   3.026   0.916  0.3154  0.9483  0.5456
12574TIP3    H259138   0.703   3.017   0.954  0.2064 -0.2442 -0.1355
12575TIP3   OH259139   1.565   4.500   2.036  0.2116 -0.0972  0.0710
12575TIP3    H159140   1.606   4.419   2.007 -1.0968 -0.7017 -0.1087
12575TIP3    H259141   1.536   4.542   1.955  2.3238  1.3621  0.0185
12576TIP3   OH259142   5.815   6.237  13.946  0.3925 -0.0769 -0.0436
12576TIP3    H159143   5.860   6.311  13.986  1.8143 -1.4716  0.9801
12576TIP3    H259144   5.884   6.186  13.904 -0.5848 -0.7843 -0.8153
12577TIP3   OH259145   2.630   0.786  16.093 -0.0401 -0.1376 -0.0518
12577TIP3    H159146   2.589   0.873  16.091  1.2914  0.5159  0.3944
12577TIP3    H259147   2.645   0.769  16.186  0.8454 -0.2866 -0.2178
12578TIP3   OH259148   1.300   1.085  10.999  0.3043 -0.8299 -0.1093
12578TIP3    H159149   1.270   0.995  10.986  0.6381 -0.9435 -0.0982
12578TIP3    H259150   1.356   1.104  10.924 -0.7635 -0.1924 -0.7653
12579TIP3   OH259151   4.281   4.772  16.168 -0.0498  0.1032 -0.0218
12579TIP3    H159152   4.253   4.837  16.232 -2.1638  0.7798 -1.5837
12579TIP3    H259153   4.339   4.821  16.109 -0.0517  0.0795 -0.0451
12580TIP3   OH259154   6.270   2.544  14.547 -0.3908 -0.1510  0.6121
12580TIP3    H159155   6.271   2.629  14.504  6.2395 -1.0194 -1.4960
12580TIP3    H259156   6.279   2.563  14.640 -2.5643  1.4219  0.5431
12581TIP3   OH259157   6.074   0.547   4.635 -0.2759 -0.4945  0.7818
12581TIP3    H159158   6.158   0.591   4.620  0.3663 -1.7407  0.6364
12581TIP3    H259159   6.009   0.617   4.633  0.9593  0.7538  2.7816
12582TIP3   OH259160   2.055   0.587  13.914  0.1870 -0.1903  0.0311
12582TIP3    H159161   2.064   0.592  14.009  0.1725 -0.2760  0.0375
12582TIP3    H259162   2.135   0.544  13.885 -0.6693 -1.9668  0.1965
12583TIP3   OH259163   5.387   3.078  11.873 -0.5086 -0.4483  0.0361
12583TIP3    H159164   5.439   3.001  11.851  3.2715  1.8262  0.5492
12583TIP3    H259165   5.356   3.061  11.962  1.3396 -0.9293  0.6265
12584TIP3   OH259166   3.983   5.490   1.893  0.1876  0.3484  0.4758
12584TIP3    H159167   4.025   5.472   1.809 -0.1320  0.5848  0.2623
12584TIP3    H259168   4.052   5.479   1.958  0.7460  1.3998  0.0625
12585TIP3   OH259169   2.691   1.935  15.024  0.0642  0.1726  0.0571
12585TIP3    H159170   2.782   1.911  15.045  0.0646 -0.5613 -0.7495
12585TIP3    H259171   2.691   1.947  14.929 -0.5513  0.7802  0.1343
12586TIP3   OH259172   5.636   1.010  15.109 -0.2701  0.6124  0.5839
12586TIP3    H159173   5.670   0.940  15.165 -1.8737  0.6829  1.6699
12586TIP3    H259174   5.549   1.029  15.144  0.5578  3.9209  1.0064
12587TIP3   OH259175   3.026   3.875   4.476  0.5120 -0.6313  1.1690
12587TIP3    H159176   2.991   3.786   4.478  0.6332 -0.7108 -0.0299
12587TIP3    H259177   3.082   3.880   4.554  2.2387 -2.3286  0.0903
12588TIP3   OH259178   5.283   1.719   2.416 -0.0583 -0.3788 -0.2334
12588TIP3    H159179   5.264   1.716   2.322 -1.2340 -0.5946  0.0055
12588TIP3    H259180   5.197   1.721   2.457  0.4462 -1.6436  0.8959
12589TIP3   OH259181   3.383   0.801   1.463 -0.1275 -0.0063 -0.3650
12589TIP3    H159182   3.460   0.759   1.424  0.2158  1.3917 -1.2405
12589TIP3    H259183   3.318   0.732   1.470 -0.0719 -0.3948 -3.0736
12590TIP3   OH259184   3.984   0.988  15.452  0.0215 -0.3078  0.2091
12590TIP3    H159185   4.000   1.075  15.488  0.3508 -0.9386  1.6467
12590TIP3    H259186   3.904   0.997  15.401  0.3591  0.9624 -0.1033
12591TIP3   OH259187   2.424   2.279   3.977 -0.2595 -0.2365 -0.4883
12591TIP3    H159188   2.484   2.261   4.049  0.3229  0.1469 -0.8714
12591TIP3    H259189   2.341   2.239   4.004  0.2934 -1.1875 -0.1631
12592TIP3   OH259190   5.980   6.003  14.071 -0.5975  0.1935  0.1862
12592TIP3    H159191   5.936   6.064  14.130  0.9553  0.7431  0.7833
12592TIP3    H259192   6.072   6.025  14.077 -0.1885 -1.1474 -0.8433
12593TIP3   OH259193   2.794   1.271  10.847  0.5454  0.4677  0.1178
12593TIP3    H159194   2.852   1.220  10.905  1.6918 -0.3367 -1.6946
12593TIP3    H259195   2.811   1.362  10.871  1.6095  0.1804  0.5062
12594TIP3   OH259196   6.068   1.889  15.226 -0.1046  0.2967  0.3477
12594TIP3    H159197   5.990   1.838  15.206 -1.0564  0.8743  2.4536
12594TIP3    H259198   6.070   1.894  15.322  0.3616  3.5666  0.2365
12595TIP3   OH259199   6.686   2.997   3.276  0.0840  0.4321 -0.3792
12595TIP3    H159200   6.680   2.920   3.332 -0.9850  0.6596 -0.1703
12595TIP3    H259201   6.595   3.020   3.257  0.4156  0.7713 -1.6417
12596TIP3   OH259202   5.376   1.042   5.261  0.1424 -0.3852  0.1992
12596TIP3    H159203   5.291   0.999   5.251 -0.5122  0.8460  0.3634
12596TIP3    H259204   5.381   1.101   5.185  0.9249 -0.5642  0.1088
12597TIP3   OH259205   5.911   0.107  16.043  0.5550  0.1837  0.6185
12597TIP3    H159206   5.827   0.064  16.026  0.4020  1.0663 -0.9711
12597TIP3    H259207   5.903   0.143  16.131  0.2053 -1.9215  1.4573
12598TIP3   OH259208   0.705   3.645   4.799  0.0622  0.3455 -0.5991
12598TIP3    H159209   0.643   3.718   4.793  2.0600  2.2450  1.1712
12598TIP3    H259210   0.727   3.641   4.892  1.5534 -1.2000 -1.0124
12599TIP3   OH259211   1.619   3.243  12.829 -0.1866 -0.3056  0.1030
12599TIP3    H159212   1.560   3.183  12.783  0.3210 -0.1783 -0.7361
12599TIP3    H259213   1.567   3.321  12.845  0.1249  0.3308 -1.8392
12600TIP3   OH259214   0.758   1.304  10.890  0.4157 -0.4403 -0.2698
12600TIP3    H159215   0.835   1.250  10.905  0.8743  0.3773  0.3656
12600TIP3    H259216   0.777   1.386  10.936 -1.2047 -0.5594  0.6572
12601TIP3   OH259217   5.381   5.737  13.050  0.2725  0.2706 -0.4332
12601TIP3    H159218   5.359   5.757  12.959  1.3351  1.3021 -0.4739
12601TIP3    H259219   5.308   5.774  13.100  0.4361  1.0494 -0.7611
12602TIP3   OH259220   6.224   5.444   0.445 -0.1275 -0.5327 -0.0595
12602TIP3    H159221   6.132   5.420   0.432 -0.4358 -0.4510  1.8203
12602TIP3    H259222   6.229   5.468   0.537  1.5514  0.5345 -0.4141
12603TIP3   OH259223   0.981   1.462  15.565  0.6266 -0.0104  0.0878
12603TIP3    H159224   1.058   1.517  15.579  1.0101 -0.5956  0.2675
12603TIP3    H259225   1.015   1.373  15.561  0.0083 -0.2323 -0.2614
12604TIP3   OH259226   6.569   0.758   5.432 -0.1741 -0.5268 -0.2759
12604TIP3    H159227   6.485   0.781   5.394 -0.6037 -0.2049  0.8572
12604TIP3    H259228   6.615   0.711   5.362 -2.2563 -2.9448 -0.0975
12605TIP3   OH259229   5.990   2.888   1.133  0.0312 -0.2390 -0.3936
12605TIP3    H159230   5.973   2.806   1.088 -1.1247 -0.7038  0.8333
12605TIP3    H259231   6.075   2.917   1.102  0.7121 -2.2075 -0.3809
12606TIP3   OH259232   4.448   3.681   3.066  0.0156  0.2227 -0.2112
12606TIP3    H159233   4.493   3.609   3.021 -1.3182 -0.2486 -0.8192
12606TIP3    H259234   4.516   3.722   3.119  1.3565  0.0460 -1.7416
12607TIP3   OH259235   1.113   1.339  15.083 -0.2764  0.1815 -0.1707
12607TIP3    H159236   1.062   1.270  15.127  0.5919 -0.9853 -0.9816
12607TIP3    H259237   1.162   1.293  15.015  1.7400  1.3149  0.4819
12608TIP3   OH259238   3.713   1.103   4.884  0.0399  0.0840 -0.7585
12608TIP3    H159239   3.787   1.143   4.930 -0.8562  0.8617  0.0445
12608TIP3    H259240   3.753   1.038   4.826  1.2917 -0.0922  0.2611
12609TIP3   OH259241   2.937   1.181   0.068  0.1235  0.3704  0.0554
12609TIP3    H159242   2.975   1.254   0.020  0.2897 -0.8149 -1.6678
12609TIP3    H259243   2.938   1.209   0.160  3.7958  0.9727 -0.0984
12610TIP3   OH259244   2.792   4.980  11.271  0.3144 -0.4337 -0.2258
12610TIP3    H159245   2.838   5.002  11.191  0.5884 -1.2434 -0.2970
12610TIP3    H259246   2.848   5.014  11.341  1.0258 -1.3977 -0.3117
12611TIP3   OH259247   2.917   3.658   0.482 -0.6979 -0.0375 -0.5941
12611TIP3    H159248   3.008   3.649   0.453 -1.0717 -1.4096 -1.3696
12611TIP3    H259249   2.924   3.692   0.571  0.6017 -1.1182 -0.2693
12612TIP3   OH259250   0.722   3.463  12.044  0.0484 -0.1108 -0.5567
12612TIP3    H159251   0.680   3.450  11.959 -0.5093 -1.4376 -0.0908
12612TIP3    H259252   0.678   3.400  12.102 -1.7258  2.8804  1.4524
12613TIP3   OH259253   4.447   4.868  11.158  0.3823  0.5416 -0.1401
12613TIP3    H159254   4.456   4.830  11.070 -0.2144 -0.0679  0.0565
12613TIP3    H259255   4.395   4.947  11.144  1.3825  1.1457 -0.5128
12614TIP3   OH259256   6.400   5.225   3.114 -0.4772 -0.2713 -0.0581
12614TIP3    H159257   6.316   5.237   3.068 -0.1718  0.3630 -0.4604
12614TIP3    H259258   6.384   5.260   3.201 -0.7941 -0.6544  0.0420
12615TIP3   OH259259   4.198   5.348   1.738 -0.5601  0.4144 -0.1052
12615TIP3    H159260   4.274   5.368   1.793  0.8201 -0.4918 -1.6168
12615TIP3    H259261   4.211   5.257   1.711 -1.3252  0.7551 -1.7018
12616TIP3   OH259262   0.993   2.265  12.287  0.3962 -0.7100 -0.0917
12616TIP3    H159263   1.083   2.245  12.312  0.7455 -0.0064 -0.7721
12616TIP3    H259264   0.952   2.295  12.369  0.8560 -0.7493  0.1549
12617TIP3   OH259265   3.700   0.581   1.350 -0.0639 -0.2865  0.4697
12617TIP3    H159266   3.723   0.511   1.289  0.0973 -0.1195  0.3383
12617TIP3    H259267   3.650   0.644   1.298 -0.7014 -0.5779  0.7200
12618TIP3   OH259268   3.364   5.203   5.281  0.0829  0.3735  0.6613
12618TIP3    H159269   3.362   5.265   5.209  1.3591 -0.3724 -0.0221
12618TIP3    H259270   3.451   5.214   5.320 -0.3542  0.3087  1.6805
12619TIP3   OH259271   1.098   5.888  12.892 -0.4082 -0.1418 -0.9939
12619TIP3    H159272   1.188   5.920  12.894 -0.3125 -0.3893 -1.2767
12619TIP3    H259273   1.072   5.882  12.984 -0.2762  0.3223 -0.9263
12620TIP3   OH259274   2.242   1.355  16.963  0.0506 -0.5120 -0.4273
12620TIP3    H159275   2.238   1.425  16.897 -0.6804 -1.5991 -1.5658
12620TIP3    H259276   2.274   1.398  17.042  0.0518  1.0131 -1.2407
12621TIP3   OH259277   0.797   5.535   2.515 -0.0381  0.3361 -0.5111
12621TIP3    H159278   0.776   5.446   2.489 -0.5332  0.8110 -1.8000
12621TIP3    H259279   0.788   5.586   2.435 -2.6093  2.0243  0.7755
12622TIP3   OH259280   0.234   1.538   0.517 -0.2761  0.0987  0.0372
12622TIP3    H159281   0.324   1.555   0.489 -0.2457  0.3098  0.2613
12622TIP3    H259282   0.184   1.535   0.435  0.0200 -0.5485 -0.1266
12623TIP3   OH259283   5.279   4.030   2.109  0.0575 -0.1434 -0.1803
12623TIP3    H159284   5.277   4.012   2.203  0.0286  1.0867  0.0662
12623TIP3    H259285   5.294   3.945   2.068  3.2161 -0.2416  1.0968
12624TIP3   OH259286   1.545   1.607  16.708  0.0772  0.0864  0.1881
12624TIP3    H159287   1.566   1.523  16.750  0.7269  0.9242  1.5700
12624TIP3    H259288   1.612   1.617  16.641 -0.5989 -0.9656 -0.6754
12625TIP3   OH259289   6.028   4.401  12.402  0.2393 -0.0717  0.1289
12625TIP3    H159290   6.032   4.492  12.373 -0.9262 -0.0172  0.1143
12625TIP3    H259291   5.935   4.385  12.420  0.5853 -0.9061  1.2629
12626TIP3   OH259292   4.236   2.204   3.201 -0.1366  0.0433 -0.0613
12626TIP3    H159293   4.174   2.132   3.214 -0.0460  0.2121  1.3818
12626TIP3    H259294   4.248   2.241   3.289  0.5050  1.2492 -0.6505
12627TIP3   OH259295   0.695   4.388  15.340  0.2763 -0.6175  0.3673
12627TIP3    H159296   0.711   4.478  15.311 -0.0211 -1.0812 -1.2629
12627TIP3    H259297   0.640   4.349  15.271  1.0752 -2.2895  0.6405
12628TIP3   OH259298   4.871   3.126   2.207  0.2244 -0.7446  0.0051
12628TIP3    H159299   4.811   3.066   2.163  1.0811 -3.0723  1.9508
12628TIP3    H259300   4.830   3.143   2.292  0.1618  1.2169 -0.3819
12629TIP3   OH259301   3.408   3.053   5.602  0.0676  0.3832  0.1842
12629TIP3    H159302   3.495   3.047   5.562 -0.4427 -4.1520 -0.4387
12629TIP3    H259303   3.425   3.058   5.696  1.0357  1.7590 -0.0545
12630TIP3   OH259304   6.769   4.757  10.913 -0.1538  0.2245  0.5090
12630TIP3    H159305   6.786   4.727  10.823 -0.7136 -0.9104  0.7734
12630TIP3    H259306   6.819   4.838  10.921 -1.2856  1.1435 -1.3293
12631TIP3   OH259307   6.087   5.137  15.579 -0.3476  0.3859  0.5222
12631TIP3    H159308   6.032   5.213  15.595  0.8823  1.2758  0.5873
12631TIP3    H259309   6.146   5.164  15.508 -0.1464 -0.6343  0.2809
12632TIP3   OH259310   3.034   2.544  13.229 -0.0202 -0.1707 -0.3207
12632TIP3    H159311   3.120   2.539  13.187 -0.1087  0.4972 -0.5930
12632TIP3    H259312   2.972   2.543  13.157 -0.1997  0.3350 -0.1729
12633TIP3   OH259313   0.062   2.328  16.944 -0.3313 -0.3401 -0.3876
12633TIP3    H159314  -0.023   2.286  16.961 -0.6680  0.4219 -0.1589
12633TIP3    H259315   0.044   2.388  16.871  0.7841 -2.5840 -2.5499
12634TIP3   OH259316   6.316   0.581   2.238  0.3488 -0.3021 -0.2675
12634TIP3    H159317   6.279   0.664   2.208  3.8273  0.6555 -2.1994
12634TIP3    H259318   6.361   0.546   2.161  1.9766 -2.2149  1.5023
12635TIP3   OH259319   6.535   0.582   4.068  0.0273 -0.2113 -0.7040
12635TIP3    H159320   6.542   0.487   4.079 -1.6575 -0.0965  1.7920
12635TIP3    H259321   6.447   0.595   4.032 -0.1085  0.4689 -0.1249
12636TIP3   OH259322   3.734   4.058   6.442  0.0276 -0.3101 -0.9143
12636TIP3    H159323   3.745   3.983   6.500  0.8305  0.6988  0.2561
12636TIP3    H259324   3.639   4.067   6.431 -0.0910 -1.0740 -0.5321
12637TIP3   OH259325   3.919   4.226  15.683 -0.0287  0.4139  0.6741
12637TIP3    H159326   3.862   4.269  15.619 -0.7540 -0.1177  0.9591
12637TIP3    H259327   3.970   4.164  15.631 -1.7902 -1.2179  0.8116
12638TIP3   OH259328   2.611   2.060  14.344  0.1914 -0.5276 -0.2757
12638TIP3    H159329   2.543   2.115  14.303 -0.9137  0.1694  2.4001
12638TIP3    H259330   2.692   2.108  14.330 -0.2644  0.0301 -1.0608
12639TIP3   OH259331   5.667   6.631  16.079 -0.0588  0.0264  0.4980
12639TIP3    H159332   5.672   6.692  16.005 -0.2683 -0.3772  0.1447
12639TIP3    H259333   5.732   6.563  16.057 -1.3808 -1.0454 -0.1958
12640TIP3   OH259334   6.639   2.962   4.159 -0.0998 -0.0788  0.0495
12640TIP3    H159335   6.635   3.054   4.132 -1.4733  0.5929  2.3982
12640TIP3    H259336   6.703   2.960   4.229  0.2173 -1.0036 -0.2575
12641TIP3   OH259337   3.701   4.952  11.529  0.8605  0.2682  0.1042
12641TIP3    H159338   3.784   4.979  11.569  0.0499  2.3646  0.4810
12641TIP3    H259339   3.641   4.940  11.603  0.4704  0.0800 -0.2391
12642TIP3   OH259340   1.461   5.128  17.214 -0.4082 -0.0310 -0.3829
12642TIP3    H159341   1.526   5.066  17.247  0.2514  1.1487  0.6254
12642TIP3    H259342   1.511   5.209  17.201 -1.7313  1.0004  0.7653
12643TIP3   OH259343   1.435   0.535  16.325 -0.4598 -0.6385  0.6089
12643TIP3    H159344   1.493   0.608  16.305 -1.7670  0.1526 -0.3812
12643TIP3    H259345   1.350   0.561  16.289 -0.7286 -3.0295 -0.6246
12644TIP3   OH259346   0.471   2.740   6.236 -0.2360 -0.1941 -0.1409
12644TIP3    H159347   0.483   2.747   6.331  0.6231 -1.0544 -0.1762
12644TIP3    H259348   0.376   2.744   6.223 -0.3655 -0.3243  0.7740
12645TIP3   OH259349   0.018   2.838   1.161 -0.5904 -0.0976  0.8203
12645TIP3    H159350   0.002   2.901   1.231 -0.4602  0.3528  0.4459
12645TIP3    H259351  -0.068   2.823   1.121 -0.3209  1.2653 -0.2939
12646TIP3   OH259352   0.725   4.929   4.054  0.3290  0.2847  0.0026
12646TIP3    H159353   0.770   4.961   3.976  2.1859 -1.1730  0.4176
12646TIP3    H259354   0.746   4.835   4.056 -1.0041  0.0027  1.3884
12647TIP3   OH259355   5.111   1.555  16.983  0.3240 -0.1477 -0.3806
12647TIP3    H159356   5.141   1.525  17.069 -0.8096 -0.0136  0.0650
12647TIP3    H259357   5.088   1.475  16.936 -2.4395 -0.0488  0.7103
12648TIP3   OH259358   6.143   0.361   4.872 -0.3612  0.4661 -0.0997
12648TIP3    H159359   6.119   0.397   4.786  0.0445 -1.3250 -1.0019
12648TIP3    H259360   6.077   0.395   4.932  1.7434  5.1596 -0.2773
12649TIP3   OH259361   0.216   5.695   2.872  0.3256 -0.0107  0.1444
12649TIP3    H159362   0.169   5.611   2.865 -0.6030  0.5210 -0.1194
12649TIP3    H259363   0.308   5.670   2.883  0.1686 -1.0639 -0.7645
12650TIP3   OH259364   0.593   3.884  13.928  0.0124  1.0834  0.2664
12650TIP3    H159365   0.508   3.868  13.888  0.4437  0.4895 -0.4317
12650TIP3    H259366   0.583   3.857  14.019  0.1427 -1.2232 -0.3889
12651TIP3   OH259367   2.485   3.397   4.915 -0.5330 -0.5581 -0.3986
12651TIP3    H159368   2.397   3.403   4.953 -0.4809 -1.5542 -0.1205
12651TIP3    H259369   2.480   3.451   4.836 -0.6026  1.6600  1.0649
12652TIP3   OH259370   0.250   3.896  14.219 -0.0248 -0.2303  0.0592
12652TIP3    H159371   0.202   3.977  14.203 -1.2398 -0.9169  0.1413
12652TIP3    H259372   0.214   3.863  14.302  0.0014 -1.1813 -0.3071
12653TIP3   OH259373   4.728   5.001  11.222  0.4158  0.2594 -0.6088
12653TIP3    H159374   4.760   4.969  11.306 -1.4698 -0.5361 -0.1602
12653TIP3    H259375   4.639   4.966  11.216  0.7687 -0.3196 -3.2606
12654TIP3   OH259376   0.383   1.347   2.667 -0.8321  0.0153 -0.1262
12654TIP3    H159377   0.430   1.427   2.642  0.8382 -1.3857 -1.5753
12654TIP3    H259378   0.450   1.288   2.700 -1.8971 -1.1951 -0.0739
12655TIP3   OH259379   1.279   5.694   2.080 -0.0023 -0.0516  0.6399
12655TIP3    H159380   1.195   5.738   2.070  0.9564  2.0326  1.5623
12655TIP3    H259381   1.341   5.750   2.033  1.1760 -0.5903  1.5419
12656TIP3   OH259382   0.251   2.406  17.158 -0.2876 -0.5951  0.0862
12656TIP3    H159383   0.191   2.442  17.224  0.5456  1.5362 -0.2628
12656TIP3    H259384   0.197   2.396  17.080 -0.3952  0.6143 -0.0133
12657TIP3   OH259385   3.826   0.482   3.907  0.4131 -0.0480  0.0574
12657TIP3    H159386   3.747   0.490   3.853  0.5552 -1.6312 -0.4159
12657TIP3    H259387   3.804   0.528   3.988 -0.6896  0.2660 -0.4022
12658TIP3   OH259388   4.195   5.688   1.201  0.0914  0.5011 -0.3539
12658TIP3    H159389   4.127   5.751   1.178  0.4330  1.4925  1.2581
12658TIP3    H259390   4.274   5.722   1.160 -0.1402 -0.0036 -1.2217
12659TIP3   OH259391   0.039   5.352  14.139 -0.2257 -0.2841 -0.1791
12659TIP3    H159392  -0.033   5.308  14.183 -1.7544  2.3001  0.0091
12659TIP3    H259393   0.108   5.359  14.206 -0.4767 -1.1473  0.1735
12660TIP3   OH259394   4.067   2.707  13.149 -0.2204 -0.1326 -0.3793
12660TIP3    H159395   4.139   2.703  13.086 -1.0375  0.8684 -1.4030
12660TIP3    H259396   3.989   2.685  13.098 -1.0489  1.8186  0.0114
12661TIP3   OH259397   3.667   1.600  14.698 -0.2486  0.0414  0.0591
12661TIP3    H159398   3.741   1.550  14.665  0.5889  0.6806  0.9474
12661TIP3    H259399   3.615   1.537  14.748  0.5035 -0.0558  0.7134
12662TIP3   OH259400   4.504   1.145  14.215 -0.4468  0.3878  0.2737
12662TIP3    H159401   4.481   1.111  14.302 -1.4789  1.0051  0.2552
12662TIP3    H259402   4.502   1.240  14.226 -0.2634  0.4608 -0.3502
12663TIP3   OH259403   4.558   2.372   1.793 -0.6094 -0.1426  0.8029
12663TIP3    H159404   4.626   2.308   1.810 -0.8609 -0.0506  2.1656
12663TIP3    H259405   4.582   2.449   1.845 -1.5611  0.0121  1.0336
12664TIP3   OH259406   4.209   1.889  14.159 -0.1584  0.1700  0.3174
12664TIP3    H159407   4.229   1.855  14.246 -1.8945  0.5429  0.8680
12664TIP3    H259408   4.177   1.814  14.110 -0.6389  0.2874  0.4566
12665TIP3   OH259409   0.291   3.184   1.814 -0.6600  0.3699 -0.1820
12665TIP3    H159410   0.311   3.156   1.903  0.4589  1.9467  0.0867
12665TIP3    H259411   0.195   3.180   1.808 -0.8873  2.1320  1.7501
12666TIP3   OH259412   4.352   1.627  15.996  0.3968  0.1612  0.0608
12666TIP3    H159413   4.354   1.551  15.937  0.5522  0.8708 -0.8574
12666TIP3    H259414   4.312   1.594  16.076 -0.0520 -0.7564 -0.5331
12667TIP3   OH259415   1.972   6.162  15.824  0.2018 -0.0026  0.0786
12667TIP3    H159416   1.965   6.255  15.806  0.3019 -0.1749 -0.9166
12667TIP3    H259417   2.003   6.124  15.741 -0.7198 -1.0306  0.1938
12668TIP3   OH259418   0.755   2.656   4.657 -0.2323 -0.4277 -0.3241
12668TIP3    H159419   0.724   2.712   4.586 -0.3687  0.4299  0.4131
12668TIP3    H259420   0.770   2.715   4.731  1.5255 -1.0490 -0.1412
12669TIP3   OH259421   5.508   2.644   5.041  0.1471 -0.4792 -0.6299
12669TIP3    H159422   5.573   2.601   5.097 -0.4083  0.0501  0.4413
12669TIP3    H259423   5.539   2.734   5.032 -0.0201 -0.4365 -0.7772
12670TIP3   OH259424   6.611   4.726   5.728  0.3820 -0.6370 -0.3780
12670TIP3    H159425   6.604   4.710   5.822 -1.5467 -0.0435 -0.3899
12670TIP3    H259426   6.621   4.821   5.721 -2.5183 -0.3103 -0.8532
12671TIP3   OH259427   3.097   1.437  11.530  0.4995 -0.4535 -0.2753
12671TIP3    H159428   3.135   1.501  11.590  0.6266  0.8869 -1.7681
12671TIP3    H259429   3.172   1.401  11.483  0.5379 -2.4542  1.2412
12672TIP3   OH259430   2.787   1.646  15.405  0.2273  0.4294  0.3029
12672TIP3    H159431   2.713   1.611  15.355  1.3946  1.1967 -2.0589
12672TIP3    H259432   2.804   1.580  15.472 -2.6403  0.3038  0.9570
12673TIP3   OH259433   3.399   2.710  17.009 -0.9153 -0.5081  0.5065
12673TIP3    H159434   3.405   2.750  16.922  0.4367  2.0671  1.7494
12673TIP3    H259435   3.422   2.618  16.994  1.9177  0.4489 -1.4800
12674TIP3   OH259436   4.852   1.703  13.123 -0.3408  0.3349  0.5809
12674TIP3    H159437   4.776   1.664  13.165  0.0161 -1.1466 -0.1247
12674TIP3    H259438   4.922   1.638  13.133  0.2050  0.6770 -0.7929
12675TIP3   OH259439   2.253   2.737  12.342  0.0054 -0.0488 -0.1853
12675TIP3    H159440   2.290   2.721  12.429 -1.4655  0.7197  0.5982
12675TIP3    H259441   2.181   2.674  12.335  0.4207 -0.4350 -1.0510
12676TIP3   OH259442   3.119   3.146   2.012 -0.0172  0.3417 -0.2516
12676TIP3    H159443   3.051   3.128   2.077 -0.4674  0.5625 -0.6592
12676TIP3    H259444   3.179   3.206   2.055  0.8442 -1.1763  0.7058
12677TIP3   OH259445   2.756   5.416  12.520 -0.2415  0.2833 -0.0537
12677TIP3    H159446   2.785   5.418  12.429 -0.0745 -0.5586 -0.0266
12677TIP3    H259447   2.683   5.353  12.520  0.8461 -1.0100  0.6934
12678TIP3   OH259448   6.366   3.346  14.249  0.2261  0.1644 -0.5574
12678TIP3    H159449   6.356   3.292  14.171 -2.2094 -2.3501  1.3722
12678TIP3    H259450   6.395   3.285  14.317 -1.8654  1.3393  1.5150
12679TIP3   OH259451   0.251   6.531  15.050  0.1216 -0.1196 -0.0296
12679TIP3    H159452   0.201   6.454  15.078 -0.2744 -0.1764 -0.8777
12679TIP3    H259453   0.237   6.535  14.955  0.7348  0.5753 -0.0923
12680TIP3   OH259454   5.536   3.259  12.194 -0.1159  0.3024  0.0653
12680TIP3    H159455   5.575   3.228  12.113  0.3532 -2.2656  1.2156
12680TIP3    H259456   5.606   3.252  12.259 -0.9859  0.5992  1.0600
12681TIP3   OH259457   0.231   4.521   4.275  0.0376 -0.2350 -0.0221
12681TIP3    H159458   0.184   4.603   4.262 -1.4178 -1.1583 -0.7170
12681TIP3    H259459   0.230   4.478   4.189  3.3956  0.3402 -0.4042
12682TIP3   OH259460   2.449   6.630   5.499 -0.0906  0.2042  0.2357
12682TIP3    H159461   2.476   6.680   5.422  1.2509 -0.6044  0.1696
12682TIP3    H259462   2.404   6.694   5.554  1.2385  1.4063 -0.0342
12683TIP3   OH259463   0.885   3.482   5.269 -0.1986 -0.3014 -0.5276
12683TIP3    H159464   0.908   3.570   5.299  0.2642 -0.7865  0.5815
12683TIP3    H259465   0.957   3.456   5.213  0.9385 -0.9691  1.2056
12684TIP3   OH259466   1.469   0.443   2.495  0.1427  0.4471  0.5564
12684TIP3    H159467   1.468   0.457   2.400 -1.5861 -3.1628 -0.0226
12684TIP3    H259468   1.384   0.473   2.524  0.4891  1.0918  0.9152
12685TIP3   OH259469   6.505   4.024  13.115  0.0708 -0.4608  0.6365
12685TIP3    H159470   6.460   3.948  13.151 -2.3120  0.4881 -0.2307
12685TIP3    H259471   6.501   4.090  13.184  1.1023 -0.7203  0.9537
12686TIP3   OH259472   2.556   3.302   3.329 -0.3632  0.2955 -0.4402
12686TIP3    H159473   2.541   3.253   3.410 -1.9509 -1.0799 -1.5340
12686TIP3    H259474   2.551   3.394   3.355 -1.3029 -0.1357  0.9526
12687TIP3   OH259475   3.854   3.084   1.734 -0.2318  0.2448 -0.1771
12687TIP3    H159476   3.864   3.025   1.660  0.0471 -0.2692  0.2665
12687TIP3    H259477   3.790   3.040   1.791  1.1379 -0.3804  0.9024
12688TIP3   OH259478   4.054   1.293  15.470 -0.7411 -0.2030 -0.2155
12688TIP3    H159479   4.111   1.307  15.546 -1.2842 -1.9066  0.5450
12688TIP3    H259480   3.985   1.358  15.480 -0.1578  0.3730  0.1087
12689TIP3   OH259481   4.684   1.453   6.307  0.9296  0.7131 -0.2261
12689TIP3    H159482   4.635   1.406   6.373  0.4642  0.6551 -0.6093
12689TIP3    H259483   4.756   1.494   6.355  1.5107 -0.6187  0.0643
12690TIP3   OH259484   1.597   6.435  14.840  0.2939  0.7231  0.2140
12690TIP3    H159485   1.545   6.417  14.919 -0.7065  0.7926 -0.4322
12690TIP3    H259486   1.652   6.358  14.830 -0.6914  0.0301  0.0990
12691TIP3   OH259487   4.517   0.665  10.474 -0.9454 -0.0783  0.1296
12691TIP3    H159488   4.432   0.689  10.436 -1.4197  1.5459  2.1677
12691TIP3    H259489   4.553   0.748  10.505 -0.3025 -1.2917  2.6750
12692TIP3   OH259490   4.966   0.109  13.772  0.3183 -0.3798  0.0199
12692TIP3    H159491   5.041   0.109  13.712  0.8864 -1.1858  0.7304
12692TIP3    H259492   4.911   0.036  13.741  0.3103 -0.4105  0.1071
12693TIP3   OH259493   4.522   5.683  13.602  0.4136  0.3023 -0.1325
12693TIP3    H159494   4.596   5.699  13.543 -1.1577  1.7374 -1.7876
12693TIP3    H259495   4.495   5.593  13.583  2.0457 -0.4250  0.8749
12694TIP3   OH259496   2.643   1.499   6.045 -0.3491 -0.1072 -0.1202
12694TIP3    H159497   2.734   1.525   6.028 -0.0576 -1.7180 -1.2013
12694TIP3    H259498   2.605   1.573   6.091  1.5872  0.5076  0.5645
12695TIP3   OH259499   4.537   6.345   1.423  0.1716 -0.0459  0.0204
12695TIP3    H159500   4.544   6.414   1.357  2.2543  0.4696  0.7381
12695TIP3    H259501   4.581   6.270   1.382  1.1497  0.1689  0.6603
12696TIP3   OH259502   1.468   4.851   5.426  0.8029 -0.1478  0.3545
12696TIP3    H159503   1.469   4.776   5.366  1.3846 -0.4240  0.6987
12696TIP3    H259504   1.461   4.811   5.513 -1.5948  0.3099  0.3974
12697TIP3   OH259505   3.913   2.943  11.259  0.3885 -0.6070 -0.3123
12697TIP3    H159506   3.973   3.017  11.256  0.4750 -0.6138  0.8796
12697TIP3    H259507   3.832   2.978  11.295  0.0844 -0.8633 -0.7396
12698TIP3   OH259508   5.563   6.156   0.062  0.6018 -0.2944  0.1406
12698TIP3    H159509   5.488   6.098   0.047  0.3337 -0.1037  0.7611
12698TIP3    H259510   5.630   6.122   0.002 -0.0881 -0.2492 -0.6752
12699TIP3   OH259511   4.105   1.537  11.469 -0.0546  0.4577  0.2228
12699TIP3    H159512   4.158   1.483  11.528  0.7163  0.8569 -0.1008
12699TIP3    H259513   4.015   1.507  11.483 -0.0826  1.6372  2.7755
12700TIP3   OH259514   6.060   2.204   3.358 -0.0968  0.1797  0.0862
12700TIP3    H159515   6.102   2.281   3.395 -1.4052 -0.2152  2.5308
12700TIP3    H259516   6.104   2.130   3.399 -0.3885 -0.3192 -0.4919
12701TIP3   OH259517   6.032   4.832   6.296 -0.2402 -0.4265  0.4852
12701TIP3    H159518   5.977   4.910   6.299 -0.7206 -0.7224 -0.3868
12701TIP3    H259519   6.121   4.866   6.292 -0.3676  0.0583  1.5146
12702TIP3   OH259520   5.414   6.456   0.384  0.1474 -0.1509  0.4135
12702TIP3    H159521   5.455   6.369   0.379 -1.2386 -0.8371  0.8110
12702TIP3    H259522   5.336   6.448   0.328 -1.3421  0.0712  2.4185
12703TIP3   OH259523   3.139   1.554   2.653  0.1484  0.1260 -0.0875
12703TIP3    H159524   3.227   1.523   2.671 -0.1369 -0.3866  0.4746
12703TIP3    H259525   3.128   1.544   2.559  0.9406  0.8766 -0.2695
12704TIP3   OH259526   3.253   1.033   3.565  0.0014  0.1378 -0.3021
12704TIP3    H159527   3.260   1.105   3.503 -1.0060 -0.0077 -0.5940
12704TIP3    H259528   3.336   0.988   3.558  0.2449  0.6612 -0.8832
12705TIP3   OH259529   3.565   1.042   5.625 -0.0869 -0.6603 -0.1081
12705TIP3    H159530   3.596   1.040   5.534  0.1634  2.2489 -0.1462
12705TIP3    H259531   3.618   0.977   5.670  0.1629 -1.7656 -1.9343
12706TIP3   OH259532   2.218   5.934   4.257 -0.3253  0.2951  0.4054
12706TIP3    H159533   2.300   5.915   4.211 -0.9325  0.2120 -0.6457
12706TIP3    H259534   2.216   6.030   4.263  0.8229  0.2359  2.2354
12707TIP3   OH259535   4.306   3.046  14.032  0.6562  0.8227 -0.1670
12707TIP3    H159536   4.290   3.123  14.087 -1.9553 -1.2954  2.1850
12707TIP3    H259537   4.369   2.994  14.081  0.4457  0.2267 -0.5215
12708TIP3   OH259538   0.632   6.182   2.692 -0.4690 -0.0284 -0.1511
12708TIP3    H159539   0.637   6.261   2.637  2.2975 -0.2282 -0.2741
12708TIP3    H259540   0.581   6.120   2.640 -1.4483  1.1993 -0.6701
12709TIP3   OH259541   1.281   0.835  13.962  0.1828  0.3601 -0.0402
12709TIP3    H159542   1.210   0.864  14.019  0.2411  0.6098 -0.0914
12709TIP3    H259543   1.236   0.794  13.888  0.0660  1.0084 -0.3386
12710TIP3   OH259544   4.779   5.965   2.523 -0.0892 -0.2546 -0.0047
12710TIP3    H159545   4.691   5.935   2.500  0.3072 -1.5426  0.0927
12710TIP3    H259546   4.829   5.884   2.533  0.1621  0.3060  3.7768
12711TIP3   OH259547   4.608   4.168  13.831  0.0764  0.5399  0.5067
12711TIP3    H159548   4.662   4.204  13.902 -0.2281  2.3461 -0.1710
12711TIP3    H259549   4.632   4.219  13.754  0.2310 -1.2528 -0.6655
12712TIP3   OH259550   0.739   2.007  13.512 -0.0615 -0.0644  0.2771
12712TIP3    H159551   0.771   2.023  13.601  1.9582  2.2619 -0.7877
12712TIP3    H259552   0.804   1.948  13.473 -0.2950 -0.1296 -0.0162
12713TIP3   OH259553   0.314   3.583  11.979  0.1093  0.5890  0.0339
12713TIP3    H159554   0.386   3.640  11.949 -0.8322  1.0151 -1.4993
12713TIP3    H259555   0.249   3.589  11.909 -0.9583 -0.6473  0.9076
12714TIP3   OH259556   3.827   1.119   2.941  0.0919  0.4295 -0.6196
12714TIP3    H159557   3.838   1.044   2.999 -0.3765  0.2269 -0.7925
12714TIP3    H259558   3.782   1.185   2.995 -0.0799  0.3484 -0.6638
12715TIP3   OH259559   3.605   5.293   3.177 -0.4885  0.0830  0.3513
12715TIP3    H159560   3.580   5.248   3.258  1.7265 -1.1703  0.3820
12715TIP3    H259561   3.685   5.249   3.149 -0.2352  1.6952 -1.5716
12716TIP3   OH259562   4.918   2.720   5.435 -0.5404 -0.2126 -0.1056
12716TIP3    H159563   4.901   2.756   5.522 -0.2791  0.4631 -0.3218
12716TIP3    H259564   5.010   2.742   5.418 -1.2910  1.9833 -1.5973
12717TIP3   OH259565   1.431   1.991  15.364  0.4345  0.9984 -0.1992
12717TIP3    H159566   1.444   1.896  15.359 -0.4881  0.8250  0.4939
12717TIP3    H259567   1.483   2.019  15.439  0.0703  0.9159  0.0865
12718TIP3   OH259568   6.385   3.438   5.623 -0.0889 -0.0434 -0.0889
12718TIP3    H159569   6.301   3.396   5.605 -1.0936  1.9398 -0.1252
12718TIP3    H259570   6.407   3.411   5.712 -0.4013 -1.1579 -0.3455
12719TIP3   OH259571   6.724   4.086  11.687 -0.0958  0.7706  0.6161
12719TIP3    H159572   6.790   4.140  11.731  0.9847  0.2449 -0.3161
12719TIP3    H259573   6.679   4.146  11.628  0.5848  0.8179  0.1406
12720TIP3   OH259574   0.827   3.677  15.099 -0.1844  0.0351  0.0754
12720TIP3    H159575   0.855   3.683  15.190  0.6754 -0.2620 -0.1672
12720TIP3    H259576   0.857   3.591  15.070  2.4191  1.3978 -1.4350
12721TIP3   OH259577   2.257   4.502   5.117  0.6642  0.0372 -0.3500
12721TIP3    H159578   2.353   4.498   5.114  0.6649  0.3412 -0.9142
12721TIP3    H259579   2.236   4.517   5.209  1.1053 -1.2602 -0.0298
12722TIP3   OH259580   5.947   2.789  12.266  0.1781  0.0646  0.6146
12722TIP3    H159581   5.988   2.821  12.347  1.3902 -2.2053  0.9140
12722TIP3    H259582   6.011   2.809  12.198 -0.2019  0.6305  0.4185
12723TIP3   OH259583   1.459   3.196  14.942  0.0873 -0.5723  0.1826
12723TIP3    H159584   1.386   3.176  14.882 -0.6286 -1.3874  1.3068
12723TIP3    H259585   1.535   3.203  14.884 -1.0293  1.2708 -1.1335
12724TIP3   OH259586   4.744   4.691   3.486  1.1098 -0.1116 -0.1271
12724TIP3    H159587   4.701   4.664   3.567  1.1664 -0.4695 -0.2151
12724TIP3    H259588   4.771   4.781   3.502 -0.8776  0.5852 -0.5506
12725TIP3   OH259589   1.920   2.651   3.219 -0.1446 -0.6307 -0.0532
12725TIP3    H159590   1.867   2.720   3.179  2.6557  0.9172 -1.2383
12725TIP3    H259591   1.922   2.673   3.312  0.0491  0.4139 -0.3008
12726TIP3   OH259592   4.575   3.969  16.048 -0.1814 -0.0331 -0.2140
12726TIP3    H159593   4.548   3.957  15.957 -1.3900  0.1766  0.0990
12726TIP3    H259594   4.670   3.954  16.048 -0.1934 -0.1364 -1.4805
12727TIP3   OH259595   0.562   5.443   0.309 -0.3526  0.2276 -0.4925
12727TIP3    H159596   0.632   5.386   0.277  0.0749  0.7631 -0.5029
12727TIP3    H259597   0.519   5.475   0.230 -0.3881  0.1829 -0.4917
12728TIP3   OH259598   6.364   3.977  14.078 -0.3352  0.0460 -0.2444
12728TIP3    H159599   6.312   3.974  14.158 -0.6067  1.7291 -0.3340
12728TIP3    H259600   6.358   3.889  14.041 -2.9922  0.1651 -0.1732
12729TIP3   OH259601   1.424   2.965  11.603  0.2335  0.0294 -0.0435
12729TIP3    H159602   1.493   2.989  11.541  0.4843  1.0916  0.6253
12729TIP3    H259603   1.459   2.889  11.648  0.3911 -0.2669 -0.6539
12730TIP3   OH259604   6.440   1.274   3.678  0.0005 -0.2191  0.1032
12730TIP3    H159605   6.392   1.357   3.674  1.6412  0.8162  1.1087
12730TIP3    H259606   6.493   1.281   3.758 -0.1654 -2.4283  0.4333
12731TIP3   OH259607   1.021   5.117  15.141  0.4920 -0.1978  0.4931
12731TIP3    H159608   0.935   5.081  15.122  0.7442 -0.7808  0.4319
12731TIP3    H259609   1.072   5.100  15.062  0.0879  2.0017 -0.2818
12732TIP3   OH259610   2.255   4.917   3.038 -0.0270  0.1246  0.1161
12732TIP3    H159611   2.306   4.926   2.957  0.7666  0.8920  0.7010
12732TIP3    H259612   2.208   4.834   3.026  1.4298 -0.6547 -0.3907
12733TIP3   OH259613   5.175   2.439   5.114 -0.1993 -0.1662  0.2824
12733TIP3    H159614   5.160   2.459   5.206 -0.5105 -0.0568  0.2107
12733TIP3    H259615   5.087   2.435   5.076 -0.1273 -1.2762  0.2186
12734TIP3   OH259616   1.513   3.259  14.326 -0.5450 -0.3862  0.9352
12734TIP3    H159617   1.608   3.256  14.310 -0.7818  1.7461 -1.0843
12734TIP3    H259618   1.488   3.167  14.334  1.7046 -0.9874  1.6022
12735TIP3   OH259619   3.963   3.197   3.950 -0.0804  0.3279 -0.1455
12735TIP3    H159620   3.898   3.264   3.930 -2.2353 -1.3406  1.1436
12735TIP3    H259621   3.977   3.151   3.867  0.8761  1.8760 -0.8633
12736TIP3   OH259622   3.083   0.845  16.810  0.1208  0.2412 -0.2326
12736TIP3    H159623   3.044   0.812  16.892  1.1744  0.9649  0.5711
12736TIP3    H259624   3.130   0.924  16.836  0.8686  0.2117 -1.4642
12737TIP3   OH259625   6.459   0.484  17.137 -0.0755 -0.2883  0.2892
12737TIP3    H159626   6.515   0.475  17.214  0.3665 -0.5009 -0.0526
12737TIP3    H259627   6.429   0.395  17.119  0.0179 -0.2770  0.0740
12738TIP3   OH259628   5.640   2.676   2.246  0.4188  0.2980 -0.1811
12738TIP3    H159629   5.688   2.652   2.167 -1.3933  0.6508 -1.4094
12738TIP3    H259630   5.575   2.739   2.217  0.6331  1.5037  1.8488
12739TIP3   OH259631   4.437   5.631   5.648 -0.2275  0.1850 -0.4983
12739TIP3    H159632   4.457   5.657   5.738  0.7258  0.9353 -0.9146
12739TIP3    H259633   4.501   5.679   5.595  0.3863 -1.6397 -1.4291
12740TIP3   OH259634   4.485   5.687  15.901 -0.4056 -0.5696  0.7589
12740TIP3    H159635   4.518   5.634  15.829 -2.7405  1.6119 -2.0448
12740TIP3    H259636   4.553   5.752  15.918 -0.6524  0.1304 -0.8672
12741TIP3   OH259637   6.189   4.629  12.813  0.1583 -0.3125 -0.1759
12741TIP3    H159638   6.131   4.566  12.855  0.5326  0.6497  1.8109
12741TIP3    H259639   6.159   4.714  12.845  1.0174  0.3691 -1.1655
12742TIP3   OH259640   5.029   1.765  15.626 -0.3013  0.1416 -0.7364
12742TIP3    H159641   4.972   1.747  15.701 -1.4950 -0.4126 -1.7575
12742TIP3    H259642   5.014   1.858  15.607  0.2680  0.3701 -0.0748
12743TIP3   OH259643   3.867   1.997  11.743  0.5608 -0.0136 -0.0902
12743TIP3    H159644   3.880   1.933  11.673 -1.2462 -1.1272  0.5682
12743TIP3    H259645   3.851   1.945  11.822 -0.9777  1.2192  0.4400
12744TIP3   OH259646   5.125   0.824  14.224  0.2995 -0.2944  0.1050
12744TIP3    H159647   5.069   0.901  14.239  1.1454  0.5524 -1.0484
12744TIP3    H259648   5.190   0.853  14.160  0.4153 -2.0881 -0.6162
12745TIP3   OH259649   0.596   4.833   1.832 -0.3808  0.3786  0.4699
12745TIP3    H159650   0.546   4.874   1.761 -2.2165 -0.6840  1.1276
12745TIP3    H259651   0.629   4.752   1.794  0.9466  1.0962  0.0244
12746TIP3   OH259652   4.802   2.929   4.356 -1.0610  0.5516  0.0868
12746TIP3    H159653   4.752   2.894   4.283 -1.0343  0.0058  0.3263
12746TIP3    H259654   4.800   2.860   4.422  3.0124 -1.0226 -1.2308
12747TIP3   OH259655   0.083   5.507   3.215  0.1965 -0.4427 -0.1214
12747TIP3    H159656  -0.012   5.508   3.205  0.2620  3.1922 -0.9453
12747TIP3    H259657   0.101   5.577   3.278  2.4565  0.2169 -1.4515
12748TIP3   OH259658   5.200   6.172  14.240 -0.0504  0.7312 -0.2838
12748TIP3    H159659   5.168   6.214  14.160 -0.8443 -1.4399 -1.1413
12748TIP3    H259660   5.249   6.095  14.210 -2.1248 -1.3010  1.3164
12749TIP3   OH259661   2.387   3.437   5.594 -0.1807 -0.0732  0.2450
12749TIP3    H159662   2.430   3.372   5.538 -1.3117  1.1072 -2.0723
12749TIP3    H259663   2.452   3.458   5.661  1.7280 -0.5545 -1.4107
12750TIP3   OH259664   4.428   2.165  14.959 -0.3560 -0.0677  0.0330
12750TIP3    H159665   4.482   2.122  15.026  0.6707  1.3341  0.1067
12750TIP3    H259666   4.402   2.248  14.999 -3.0941 -0.9686  0.2427
12751TIP3   OH259667   2.102   4.003   2.372 -0.0624 -0.7575 -0.1678
12751TIP3    H159668   2.149   3.938   2.319  0.1813 -0.3735 -0.4306
12751TIP3    H259669   2.017   4.012   2.330 -0.3667 -1.4402  0.2963
12752TIP3   OH259670   0.977   2.937  14.531  0.3159 -0.2206  0.0982
12752TIP3    H159671   1.041   3.001  14.502  0.8638 -1.2755 -1.0977
12752TIP3    H259672   1.028   2.873  14.580 -0.2301  0.2733  1.3132
12753TIP3   OH259673   6.658   5.841  13.462 -0.4532 -0.0370  0.2966
12753TIP3    H159674   6.590   5.908  13.463 -1.5624 -1.1188 -0.7852
12753TIP3    H259675   6.656   5.803  13.550 -0.7629  0.4057  0.4818
12754TIP3   OH259676   0.583   6.759  12.862  0.2127 -0.0849 -0.7945
12754TIP3    H159677   0.563   6.849  12.889  2.8229 -0.3056  2.1027
12754TIP3    H259678   0.522   6.705  12.912 -0.6453 -0.0313 -1.7552
12755TIP3   OH259679   2.609   0.294   2.953  0.0033  0.0536  0.6404
12755TIP3    H159680   2.532   0.241   2.974  0.0432 -0.4379 -0.4071
12755TIP3    H259681   2.588   0.334   2.869  1.1389 -0.5833  0.0347
12756TIP3   OH259682   0.403   3.459  12.765  1.0004 -0.2774  0.3237
12756TIP3    H159683   0.309   3.462  12.781  1.3642  3.9005  2.2565
12756TIP3    H259684   0.435   3.391  12.824 -0.5918 -0.4999  0.9626
12757TIP3   OH259685   0.908   0.418   0.326 -0.5816 -0.5893  0.5137
12757TIP3    H159686   0.966   0.342   0.318  0.6511  0.3330  0.5361
12757TIP3    H259687   0.963   0.487   0.364 -1.0858  0.9424 -1.4117
12758TIP3   OH259688   1.825   5.831  16.753 -0.0829 -0.3590 -0.5443
12758TIP3    H159689   1.879   5.779  16.812  1.4977 -1.9451 -3.2539
12758TIP3    H259690   1.872   5.914  16.744 -0.4463 -0.0296  0.6001
12759TIP3   OH259691   6.592   6.476   3.282  0.4023 -0.3623 -0.4572
12759TIP3    H159692   6.631   6.555   3.319  1.3604 -0.1781 -1.8380
12759TIP3    H259693   6.501   6.477   3.314  0.8676  0.3981  0.9065
12760TIP3   OH259694   1.154   0.880  16.766  0.2435 -0.5563 -0.0825
12760TIP3    H159695   1.210   0.857  16.691  0.7284  1.4047 -0.3355
12760TIP3    H259696   1.196   0.957  16.804 -1.6454  0.2251  0.4436
12761TIP3   OH259697   6.648   0.188  12.345 -0.4518 -0.0998  0.4567
12761TIP3    H159698   6.647   0.212  12.437 -1.8190  1.2415  0.0997
12761TIP3    H259699   6.696   0.258  12.302 -0.7700 -0.1615 -0.0062
12762TIP3   OH259700   3.579   2.072   2.107 -0.1814 -0.0216 -0.0350
12762TIP3    H159701   3.670   2.058   2.134 -1.1698 -2.0890  2.4768
12762TIP3    H259702   3.536   1.988   2.126 -3.4971  2.1769  2.6766
12763TIP3   OH259703   2.261   6.190  12.102  0.3615 -0.4252  0.1621
12763TIP3    H159704   2.335   6.151  12.056 -0.8929 -2.7285 -0.0063
12763TIP3    H259705   2.238   6.126  12.169 -1.4018  0.2801  0.2704
12764TIP3   OH259706   0.164   0.285  13.052  0.7973 -0.1014  0.2397
12764TIP3    H159707   0.074   0.290  13.021  0.6200 -0.8167  0.6246
12764TIP3    H259708   0.195   0.375  13.051  0.8681 -0.1299 -2.1972
12765TIP3   OH259709   1.149   6.358  13.628  0.0200 -0.1287 -0.1106
12765TIP3    H159710   1.161   6.395  13.540  0.8885  0.9285  0.4409
12765TIP3    H259711   1.207   6.282  13.630  3.1303  2.1484  0.8759
12766TIP3   OH259712   0.504   5.700   4.920  0.3515  0.4830  0.1455
12766TIP3    H159713   0.492   5.688   4.826  0.4844  0.7678  0.0941
12766TIP3    H259714   0.443   5.637   4.960  1.4292 -0.7735 -0.1395
12767TIP3   OH259715   2.765   0.570  13.823  0.2671  0.2083 -0.0030
12767TIP3    H159716   2.688   0.535  13.780  1.7313 -0.4498 -2.1529
12767TIP3    H259717   2.771   0.660  13.792  0.7938  0.0205 -0.4519
12768TIP3   OH259718   1.945   5.042  14.223  0.0975 -0.2167 -0.3720
12768TIP3    H159719   1.944   5.002  14.310 -0.4513 -0.6478 -0.5695
12768TIP3    H259720   1.857   5.026  14.189  0.8839 -1.7470 -1.7637
12769TIP3   OH259721   3.096   6.449   0.081 -0.0669  0.2906 -0.3283
12769TIP3    H159722   3.028   6.396   0.122 -0.0335  0.2230 -0.3606
12769TIP3    H259723   3.078   6.538   0.111  0.5812  0.0900  0.6809
12770TIP3   OH259724   4.286   0.113   2.407 -0.3705 -0.1714  0.5029
12770TIP3    H159725   4.264   0.041   2.347 -1.4292 -0.7320  1.5513
12770TIP3    H259726   4.340   0.172   2.354 -0.0260 -1.4188 -0.5565
12771TIP3   OH259727   5.372   5.681  12.714 -0.3722  0.1910 -0.9426
12771TIP3    H159728   5.430   5.735  12.660  0.7993  0.9503  0.9804
12771TIP3    H259729   5.424   5.604  12.735 -0.6472  0.1030 -0.5744
12772TIP3   OH259730   3.556   3.299   6.392 -0.5259  0.6952 -0.2462
12772TIP3    H159731   3.640   3.327   6.354 -0.1959 -1.0478 -0.8391
12772TIP3    H259732   3.580   3.254   6.473 -0.8571 -0.2313 -0.6613
12773TIP3   OH259733   5.771   5.534  14.109  0.2236 -1.2847  0.7355
12773TIP3    H159734   5.782   5.459  14.167  1.4585 -1.3460  0.4428
12773TIP3    H259735   5.706   5.507  14.044  1.3147 -2.4104  0.1075
12774TIP3   OH259736   6.427   2.959   4.413  0.0706  0.3947 -0.1438
12774TIP3    H159737   6.516   2.968   4.447 -0.1428 -0.6605  0.7197
12774TIP3    H259738   6.375   3.019   4.468  0.0328  0.0215  0.2354
12775TIP3   OH259739   5.201   2.131  12.467  0.7137  0.5174  0.1987
12775TIP3    H159740   5.223   2.065  12.533  0.4245 -0.2252 -0.4355
12775TIP3    H259741   5.225   2.091  12.383  0.1031  1.0268 -0.2310
12776TIP3   OH259742   6.754   4.256  16.021 -0.0348 -0.1917 -0.1797
12776TIP3    H159743   6.771   4.182  15.963 -0.3106  0.6747 -1.3736
12776TIP3    H259744   6.756   4.332  15.964  2.2767  0.9613  1.3532
12777TIP3   OH259745   5.131   5.644   2.330 -0.0031  0.1843  0.1061
12777TIP3    H159746   5.179   5.654   2.412  0.6368  0.2803 -0.2708
12777TIP3    H259747   5.168   5.565   2.290 -1.2070 -0.5981  0.5040
12778TIP3   OH259748   5.673   1.277  12.547 -0.2994 -0.3313  0.7126
12778TIP3    H159749   5.584   1.311  12.563  0.4611  0.9083  2.5507
12778TIP3    H259750   5.691   1.221  12.622  1.7989  2.2807  2.2677
12779TIP3   OH259751   2.696   3.831   2.762 -0.0771  0.0366  0.1500
12779TIP3    H159752   2.665   3.811   2.673  0.4369 -1.1316  0.2147
12779TIP3    H259753   2.618   3.856   2.810 -0.6696 -1.2121 -0.1356
12780TIP3   OH259754   4.526   1.367  13.598 -0.2597 -0.6881 -0.5565
12780TIP3    H159755   4.589   1.324  13.539 -0.6964 -0.0301 -1.5173
12780TIP3    H259756   4.579   1.407  13.666  0.3918  0.3024 -1.6525
12781TIP3   OH259757   0.946   4.514  15.167 -0.0092 -0.7318 -0.2323
12781TIP3    H159758   0.871   4.564  15.137  1.2164  0.5374 -1.2818
12781TIP3    H259759   1.021   4.572  15.152  1.3247 -2.4792 -0.4775
12782TIP3   OH259760   4.702   2.627  15.304  0.2131  0.1014 -0.1741
12782TIP3    H159761   4.714   2.661  15.215  4.6609 -2.0189 -0.4969
12782TIP3    H259762   4.662   2.541  15.292  0.6811 -0.1241 -0.1273
12783TIP3   OH259763   5.975   4.473  14.791  0.3388  0.1310 -0.2914
12783TIP3    H159764   6.001   4.404  14.851 -1.0260 -0.2928 -0.1802
12783TIP3    H259765   5.880   4.476  14.796  0.0593 -0.9807 -3.6190
12784TIP3   OH259766   2.273   0.274  14.594  0.0329  0.0607 -0.2171
12784TIP3    H159767   2.211   0.299  14.526 -0.3691  0.8102  0.4262
12784TIP3    H259768   2.230   0.201  14.640 -0.9712  1.4448  1.0808
12785TIP3   OH259769   2.673   3.701  14.382  0.4235  0.4891 -0.0621
12785TIP3    H159770   2.670   3.793  14.408 -0.3851  0.8476 -1.3940
12785TIP3    H259771   2.640   3.699  14.293 -1.0215 -1.2897  0.4707
12786TIP3   OH259772   4.994   5.988   6.344  0.2397 -0.0179  0.1348
12786TIP3    H159773   4.908   5.947   6.348 -0.2564  1.0828  1.0617
12786TIP3    H259774   5.051   5.928   6.393 -0.4172  0.2226  1.2202
12787TIP3   OH259775   0.297   4.592   5.229  0.2217  0.3803  0.1755
12787TIP3    H159776   0.276   4.683   5.209 -0.2079  0.2193 -0.1093
12787TIP3    H259777   0.232   4.566   5.294 -0.5139 -0.1458 -0.7732
12788TIP3   OH259778   1.910   5.660  13.916 -0.2012 -0.1916 -0.7537
12788TIP3    H159779   1.964   5.660  13.995 -0.5602 -1.7222 -0.4859
12788TIP3    H259780   1.821   5.676  13.947 -0.1280  0.7891 -1.0308
12789TIP3   OH259781   3.084   1.838   1.423 -0.5584  0.0272  0.4044
12789TIP3    H159782   3.076   1.800   1.335 -2.8883  0.2725  0.4818
12789TIP3    H259783   3.105   1.764   1.480 -1.9358 -0.6285  0.0725
12790TIP3   OH259784   6.743   5.737   5.508 -0.1677 -0.4344 -0.3711
12790TIP3    H159785   6.838   5.753   5.513  0.0629 -1.0583 -2.3001
12790TIP3    H259786   6.707   5.788   5.581  1.6199  0.0332  0.2298
12791TIP3   OH259787   5.491   0.112  14.057  0.5245 -0.3089 -0.4599
12791TIP3    H159788   5.426   0.077  14.119 -3.4893  3.9579 -1.9482
12791TIP3    H259789   5.550   0.164  14.112 -0.5362  0.1224  0.2980
12792TIP3   OH259790   3.669   3.783   3.268 -0.0887  0.0516  0.4080
12792TIP3    H159791   3.573   3.782   3.270 -0.0941 -0.0577  0.1234
12792TIP3    H259792   3.692   3.858   3.214 -0.0166 -0.0821  0.2540
12793TIP3   OH259793   3.103   5.203  16.140  0.0986  0.0119  0.1252
12793TIP3    H159794   3.078   5.244  16.057  0.1480 -0.1795  0.0139
12793TIP3    H259795   3.163   5.265  16.181  0.2250  0.0206 -0.0736
12794TIP3   OH259796   1.248   0.035   4.290 -0.1201  0.1853  0.0068
12794TIP3    H159797   1.230  -0.014   4.210 -2.9897  2.2114 -0.6700
12794TIP3    H259798   1.300   0.111   4.261 -0.0258  0.2206  0.2652
12795TIP3   OH259799   3.948   5.788  12.551 -0.2377  0.1802  0.5507
12795TIP3    H159800   3.906   5.781  12.636 -0.6997  0.5800  0.3641
12795TIP3    H259801   3.970   5.698  12.526 -0.8068 -0.0092  0.7407
12796TIP3   OH259802   4.712   2.770   5.260  0.4110 -0.3924  0.1319
12796TIP3    H159803   4.745   2.749   5.172  0.2807 -2.3213  0.5261
12796TIP3    H259804   4.790   2.767   5.315 -0.0776 -3.0038  0.7264
12797TIP3   OH259805   2.723   1.842  16.783  0.2060  0.5349  0.0691
12797TIP3    H159806   2.737   1.902  16.857  1.7109  1.0686 -0.6206
12797TIP3    H259807   2.793   1.777  16.793  0.8706  1.0293 -1.2841
12798TIP3   OH259808   0.164   1.753  10.960  0.0289  0.0833  0.1590
12798TIP3    H159809   0.159   1.849  10.961  1.8072  0.1962  2.0530
12798TIP3    H259810   0.200   1.732  10.874  0.3315  1.1831  0.0068
12799TIP3   OH259811   3.445   5.479   3.612 -0.1252 -0.0952 -0.4203
12799TIP3    H159812   3.514   5.526   3.565  0.5614  0.0854  0.7379
12799TIP3    H259813   3.428   5.532   3.690 -0.6555 -0.7991 -0.0455
12800TIP3   OH259814   3.817   1.005   4.643  0.1477  0.2375  0.2840
12800TIP3    H159815   3.853   0.945   4.577  0.8922  0.4846  0.4703
12800TIP3    H259816   3.862   1.087   4.629  2.0645 -0.3599  2.6472
12801TIP3   OH259817   5.758   1.062  16.197 -0.2602  0.3392  0.0196
12801TIP3    H159818   5.710   1.140  16.226 -0.2291  0.2603  0.2830
12801TIP3    H259819   5.719   1.040  16.112  0.0097  0.8887 -0.2495
12802TIP3   OH259820   2.025   3.414  13.141 -0.1620  0.8838  0.2883
12802TIP3    H159821   2.092   3.345  13.138 -0.5267  0.6188 -3.3896
12802TIP3    H259822   2.049   3.467  13.218  2.2447 -1.1973  1.0340
12803TIP3   OH259823   3.515   1.712   2.942  0.1856  0.0644  0.2342
12803TIP3    H159824   3.497   1.627   2.984  0.3072 -0.7518 -1.3437
12803TIP3    H259825   3.435   1.763   2.956 -0.5702 -0.9454 -0.3776
12804TIP3   OH259826   0.785   4.751   4.422  0.3256  0.4806  0.0552
12804TIP3    H159827   0.787   4.662   4.458  2.3525  0.6074  0.3026
12804TIP3    H259828   0.800   4.808   4.497  1.6664  0.8944 -0.5178
12805TIP3   OH259829   2.529   0.563   4.686 -0.1711 -0.0410  0.1230
12805TIP3    H159830   2.592   0.632   4.667 -0.0972 -0.4771 -1.2532
12805TIP3    H259831   2.453   0.583   4.631 -0.4882 -0.5778  0.3533
12806TIP3   OH259832   0.875   3.388  15.269  0.2726  0.1390 -0.2816
12806TIP3    H159833   0.912   3.442  15.199  1.3527  0.6277  0.6430
12806TIP3    H259834   0.950   3.341  15.306 -0.6799 -2.2132 -1.2175
12807TIP3   OH259835   0.209   1.921   3.399 -0.1281 -0.1996 -0.9963
12807TIP3    H159836   0.152   1.844   3.398  0.4830 -0.6484 -1.5011
12807TIP3    H259837   0.185   1.967   3.480 -0.0232 -1.2789 -0.3324
12808TIP3   OH259838   4.459   2.460   4.759 -0.2582 -0.0215  0.2696
12808TIP3    H159839   4.397   2.416   4.700 -0.9448  0.6600  0.4783
12808TIP3    H259840   4.525   2.497   4.700 -1.2906  1.2082 -0.1373
12809TIP3   OH259841   0.861   2.148  12.055  0.1303 -0.1505 -0.2701
12809TIP3    H159842   0.877   2.220  12.116  0.3286 -1.3967  1.1858
12809TIP3    H259843   0.937   2.091  12.064 -0.2390 -0.7863 -1.0628
12810TIP3   OH259844   0.751   1.046   3.779  0.3180 -0.1375  0.2129
12810TIP3    H159845   0.658   1.039   3.799 -0.0120  0.5477 -1.0180
12810TIP3    H259846   0.780   1.125   3.825  0.4588 -0.7440  1.1754
12811TIP3   OH259847   0.750   1.066   0.128  0.0177 -0.0112 -0.0002
12811TIP3    H159848   0.721   0.998   0.189  0.2371 -1.5414 -1.5380
12811TIP3    H259849   0.679   1.130   0.126 -0.6025 -0.6721  0.7820
12812TIP3   OH259850   4.037   2.604  15.520  0.9865 -0.1254  0.1797
12812TIP3    H159851   4.119   2.621  15.566  1.4727 -1.4492 -0.1645
12812TIP3    H259852   4.051   2.637  15.432  1.0132 -0.0284  0.2202
12813TIP3   OH259853   5.483   1.795  15.766  0.2463  0.4374  0.4495
12813TIP3    H159854   5.555   1.857  15.754 -0.6781  1.9270  2.3898
12813TIP3    H259855   5.497   1.758  15.853 -2.2678  2.0250  1.5703
12814TIP3   OH259856   4.919   6.467   0.642  0.4820  0.0041  0.3482
12814TIP3    H159857   4.998   6.419   0.666  1.5508  1.3813 -0.3211
12814TIP3    H259858   4.897   6.435   0.554  0.5094 -0.0910  0.3757
12815TIP3   OH259859   5.085   2.020  11.832  0.5239  0.2029 -0.6004
12815TIP3    H159860   5.145   1.960  11.875  0.1248  1.0851  1.2494
12815TIP3    H259861   5.119   2.030  11.743 -0.5405 -4.3105 -1.6279
12816TIP3   OH259862   5.294   4.165   0.930 -0.4511  0.0301 -0.8670
12816TIP3    H159863   5.333   4.177   1.017  0.5516 -3.8491 -0.6984
12816TIP3    H259864   5.209   4.124   0.947 -1.1784  1.1947 -1.6378
12817TIP3   OH259865   6.526   6.399  14.951  0.2962 -0.1073  0.4418
12817TIP3    H159866   6.540   6.397  15.046 -0.8744 -0.1363  0.6263
12817TIP3    H259867   6.492   6.486  14.934 -1.9701 -0.9288  0.4512
12818TIP3   OH259868   5.512   5.949  15.084  0.1809 -0.2196  0.1212
12818TIP3    H159869   5.451   5.980  15.151 -0.6590 -1.7356  0.1033
12818TIP3    H259870   5.597   5.949  15.126 -0.3586 -1.2585  1.2458
12819TIP3   OH259871   4.546   2.347  11.954  0.1742  0.3711  0.2290
12819TIP3    H159872   4.480   2.303  12.007 -1.1540  1.3195 -0.6375
12819TIP3    H259873   4.571   2.282  11.888  0.6324 -0.2248  0.9692
12820TIP3   OH259874   0.181   1.976   2.228 -0.0926  0.0795 -0.1325
12820TIP3    H159875   0.218   1.888   2.238  3.1823  1.3191 -0.6919
12820TIP3    H259876   0.216   2.024   2.303 -1.4698  1.0285 -0.0967
12821TIP3   OH259877   5.729   4.750  13.993  0.2546  0.3578 -0.0746
12821TIP3    H159878   5.713   4.694  13.917  0.5534  0.7441 -0.4166
12821TIP3    H259879   5.712   4.693  14.068  2.4751 -0.7686 -0.4057
12822TIP3   OH259880   4.329   0.428   3.168  0.0136 -0.0418  0.1656
12822TIP3    H159881   4.241   0.418   3.133 -0.4832  0.0781  1.3559
12822TIP3    H259882   4.339   0.354   3.229  0.5859  0.1823  0.3516
12823TIP3   OH259883   0.015   2.599  16.835  0.6460  0.7408 -0.3504
12823TIP3    H159884   0.082   2.616  16.769  0.9975  0.8183  0.0265
12823TIP3    H259885   0.001   2.684  16.877  0.5002  0.6697 -0.2576
12824TIP3   OH259886   5.297   0.884  14.728 -0.3904  0.4518 -0.4893
12824TIP3    H159887   5.214   0.919  14.760 -0.3029  1.3262 -1.1831
12824TIP3    H259888   5.352   0.961  14.713  0.6516 -0.1292  0.2121
12825TIP3   OH259889   3.320   1.166  12.594  0.2021 -0.5248 -1.0837
12825TIP3    H159890   3.266   1.243  12.614 -1.5551 -1.8495 -0.6105
12825TIP3    H259891   3.372   1.193  12.518 -0.6464  1.0209 -1.1481
12826TIP3   OH259892   3.030   5.682  11.771  0.2329  0.2263  0.0840
12826TIP3    H159893   3.026   5.777  11.764 -1.2597  0.0445 -1.8411
12826TIP3    H259894   3.041   5.666  11.865  1.3918  2.3093  0.3379
12827TIP3   OH259895   3.309   5.231   1.049  0.0385  0.0013  0.6307
12827TIP3    H159896   3.234   5.271   1.092  0.4236  1.6485 -0.1918
12827TIP3    H259897   3.286   5.139   1.040 -1.6686  0.4072  0.8242
12828TIP3   OH259898   5.441   1.100   0.381 -0.0870  0.0189  0.0512
12828TIP3    H159899   5.487   1.016   0.392 -0.2268  0.0030  0.4997
12828TIP3    H259900   5.428   1.132   0.470  0.6825  0.9071 -0.1522
12829TIP3   OH259901   1.944   0.901  11.649  0.2733 -0.4982 -0.4170
12829TIP3    H159902   1.869   0.891  11.707 -0.9509  0.6078 -1.7710
12829TIP3    H259903   1.935   0.990  11.614  0.8266 -1.2420 -2.5040
12830TIP3   OH259904   6.529   2.402   3.903  0.9075  0.0564 -0.4800
12830TIP3    H159905   6.487   2.347   3.836  1.1045  0.2626 -0.7747
12830TIP3    H259906   6.461   2.415   3.969  0.6187  0.0956 -0.7851
12831TIP3   OH259907   5.927   6.343  14.966 -0.5912  0.1034  0.6100
12831TIP3    H159908   5.845   6.392  14.976 -1.8361 -1.7991 -0.1648
12831TIP3    H259909   5.902   6.251  14.972  1.7448 -0.4804  2.1053
12832TIP3   OH259910   5.678   4.572  12.275  0.2571 -0.1953  0.6836
12832TIP3    H159911   5.758   4.620  12.251  0.5533 -1.0932 -0.1657
12832TIP3    H259912   5.636   4.552  12.191 -1.1391  0.7185  1.1536
12833TIP3   OH259913   4.787   5.478   1.735  0.0461  0.2258  0.8989
12833TIP3    H159914   4.697   5.470   1.703  0.8664 -0.5221 -1.2962
12833TIP3    H259915   4.807   5.392   1.772  0.8328 -0.5687 -1.2955
12834TIP3   OH259916   5.444   2.521  12.406 -0.0028 -0.4581  0.0828
12834TIP3    H159917   5.424   2.457  12.475 -0.1132 -1.5785 -0.9636
12834TIP3    H259918   5.537   2.508  12.387  0.3871  0.8729  1.0413
12835TIP3   OH259919   2.803   0.652   0.925  1.0774 -0.1982  0.2932
12835TIP3    H159920   2.723   0.600   0.935  0.4776  0.5174 -0.7244
12835TIP3    H259921   2.861   0.619   0.994  0.7793 -2.3345 -0.4158
12836TIP3   OH259922   1.722   0.151   4.701 -0.0977 -0.1543  0.1429
12836TIP3    H159923   1.809   0.191   4.700  0.3054 -1.0390 -1.4320
12836TIP3    H259924   1.736   0.064   4.737 -0.2319 -0.4950 -0.6149
12837TIP3   OH259925   2.006   3.130   2.425  0.3254 -0.2458 -0.8822
12837TIP3    H159926   2.068   3.058   2.411  0.8785  0.1045 -0.3017
12837TIP3    H259927   1.969   3.147   2.339  0.4754 -0.9680 -1.0977
12838TIP3   OH259928   4.579   1.188   3.531  0.0659 -0.1104 -0.5173
12838TIP3    H159929   4.574   1.168   3.438  2.3072  0.1653 -0.7244
12838TIP3    H259930   4.507   1.138   3.570 -0.2371 -1.0689 -2.2462
12839TIP3   OH259931   4.487   3.107  10.682  0.0827 -0.1064 -0.4614
12839TIP3    H159932   4.574   3.068  10.692 -0.5567 -1.9053 -1.8389
12839TIP3    H259933   4.427   3.038  10.709 -0.9461  1.0635  0.2650
12840TIP3   OH259934   1.547   5.367  15.517  0.3886 -0.3244  0.1924
12840TIP3    H159935   1.523   5.451  15.555 -1.7116 -1.8731  2.4825
12840TIP3    H259936   1.489   5.357  15.441  0.7473  0.3626 -0.1675
12841TIP3   OH259937   6.444   5.301   0.396  0.5133 -0.7143  0.6232
12841TIP3    H159938   6.368   5.351   0.426 -0.6971 -0.9624 -1.9079
12841TIP3    H259939   6.410   5.212   0.383  0.8607 -0.5235 -1.8282
12842TIP3   OH259940   1.076   5.486  14.961 -0.6094  0.3751 -0.1212
12842TIP3    H159941   1.126   5.567  14.962 -1.4537  0.9016 -0.3856
12842TIP3    H259942   1.054   5.471  14.869 -1.0442  0.2173  0.0045
12843TIP3   OH259943   0.777   6.606   2.877  0.1936  0.5025 -0.1641
12843TIP3    H159944   0.830   6.637   2.803 -0.8232  0.1541 -1.0461
12843TIP3    H259945   0.688   6.634   2.856 -0.3682 -1.0123  0.1338
12844TIP3   OH259946   1.097   0.400   2.212 -0.1941  0.3831  0.4388
12844TIP3    H159947   1.041   0.355   2.276  1.0259 -1.0642  0.5125
12844TIP3    H259948   1.120   0.483   2.254 -2.9944  1.4194  0.0474
12845TIP3   OH259949   1.679   6.107  15.769 -0.2117  0.3720 -0.5805
12845TIP3    H159950   1.748   6.173  15.772 -1.2187  1.4148  0.7510
12845TIP3    H259951   1.606   6.151  15.724 -1.6410  0.9447  2.1952
12846TIP3   OH259952   2.719   3.834   5.113  0.6678  0.1881 -0.0600
12846TIP3    H159953   2.785   3.793   5.056  1.0384 -2.1514  1.9577
12846TIP3    H259954   2.767   3.860   5.191 -0.8304 -1.9631  1.6411
12847TIP3   OH259955   0.032   4.269  13.105  0.5190  0.1099  0.9868
12847TIP3    H159956   0.030   4.182  13.065 -3.0360  0.8123 -0.5172
12847TIP3    H259957   0.045   4.329  13.032  0.5155  0.9981  1.7075
12848TIP3   OH259958   4.373   1.749   2.869  0.8762  0.1709  0.0360
12848TIP3    H159959   4.342   1.660   2.853  0.6041  0.4861 -1.2013
12848TIP3    H259960   4.298   1.805   2.849  0.8674  0.6565  1.3606
12849TIP3   OH259961   4.988   6.213   6.171 -0.3419  0.3415 -0.3972
12849TIP3    H159962   4.908   6.255   6.201 -1.2348 -0.9289 -0.9834
12849TIP3    H259963   5.000   6.139   6.231  1.3348  1.5208  0.7650
12850TIP3   OH259964   1.641   2.677   0.252 -0.1319 -0.4699 -0.4465
12850TIP3    H159965   1.720   2.623   0.245  0.3743 -0.3233  2.9658
12850TIP3    H259966   1.569   2.616   0.237  0.5208 -1.6381  0.9766
12851TIP3   OH259967   5.054   0.491  12.645  0.4278  0.3750 -0.8208
12851TIP3    H159968   5.132   0.447  12.679 -0.0587 -0.8503 -1.2458
12851TIP3    H259969   5.053   0.468  12.552 -0.5358  0.2415 -0.7776
12852TIP3   OH259970   1.837   3.122   0.759 -0.2247  0.2891 -0.0008
12852TIP3    H159971   1.797   3.200   0.720 -1.3811 -0.2226  0.1456
12852TIP3    H259972   1.765   3.058   0.763  0.4579 -0.4258  0.8504
12853TIP3   OH259973   4.056   2.514  12.206 -0.0325 -0.1252  0.0670
12853TIP3    H159974   3.989   2.470  12.153  0.8426 -1.0928 -0.2552
12853TIP3    H259975   4.116   2.443  12.232  1.2703  0.8373 -0.2570
12854TIP3   OH259976   3.560   0.475  16.802 -0.6292 -0.5853 -0.0053
12854TIP3    H159977   3.499   0.443  16.868 -0.9627 -0.1224 -0.0812
12854TIP3    H259978   3.560   0.570  16.814 -0.0997 -0.5663 -0.1585
12855TIP3   OH259979   3.078   5.196  12.089  0.0057  0.4428 -0.2554
12855TIP3    H159980   3.166   5.183  12.124  1.4102 -0.1470 -3.7868
12855TIP3    H259981   3.089   5.262  12.021 -2.3802  0.7120 -0.4211
12856TIP3   OH259982   5.334   0.513   4.375 -0.1686  0.2949 -0.3525
12856TIP3    H159983   5.333   0.535   4.468  0.0160  1.9931 -0.7340
12856TIP3    H259984   5.364   0.592   4.332  0.0183 -0.5647 -1.8485
12857TIP3   OH259985   3.711   4.775   1.018  0.0088 -0.2699  0.6240
12857TIP3    H159986   3.627   4.803   1.057  0.5098  1.2089  0.6808
12857TIP3    H259987   3.688   4.699   0.965 -1.3627  0.0472  0.7267
12858TIP3   OH259988   1.529   5.379  13.238  0.0927  0.5677 -0.9197
12858TIP3    H159989   1.582   5.301  13.247  0.1378  0.7300  0.3362
12858TIP3    H259990   1.502   5.380  13.146 -1.7545 -2.1288 -0.4486
12859TIP3   OH259991   0.156   1.822   0.482  0.4154  0.5326 -0.1365
12859TIP3    H159992   0.141   1.733   0.514  2.5482  0.6862  1.3879
12859TIP3    H259993   0.077   1.843   0.433  0.2930 -2.5646 -1.3849
12860TIP3   OH259994   0.419   5.721   5.973  0.0353  0.8109 -0.3712
12860TIP3    H159995   0.395   5.685   5.888 -0.5378  1.1892 -0.3680
12860TIP3    H259996   0.337   5.748   6.013  0.0141 -1.4586  1.2711
12861TIP3   OH259997   1.975   5.043  13.318 -0.5407  0.1613 -0.5843
12861TIP3    H159998   1.980   5.010  13.407 -3.4552 -1.1766 -0.8523
12861TIP3    H259999   1.946   5.134  13.328 -0.5499  0.1120 -0.1504
12862TIP3   OH260000   6.247   1.804  14.449  0.9684 -0.4358 -0.0109
12862TIP3    H160001   6.264   1.897  14.461 -0.6024 -0.2442  0.8935
12862TIP3    H260002   6.192   1.799  14.370  0.7980 -0.5669  0.1144
12863TIP3   OH260003   1.174   0.897   1.702  0.4993  0.5469 -0.1292
12863TIP3    H160004   1.238   0.837   1.665  1.1790  0.9923  0.3170
12863TIP3    H260005   1.094   0.879   1.653  0.0042 -2.4604  1.6233
12864TIP3   OH260006   0.803   1.229  16.877  0.5727 -0.2000  0.4249
12864TIP3    H160007   0.779   1.171  16.805  1.1702  0.1278 -0.0469
12864TIP3    H260008   0.720   1.253  16.917  0.2542 -0.6026  0.0120
12865TIP3   OH260009   2.366   0.994   3.413  0.2943 -0.1788  0.2013
12865TIP3    H160010   2.423   1.030   3.345 -0.3211 -0.5934 -0.5457
12865TIP3    H260011   2.279   0.995   3.374  0.0241 -0.9799  0.7618
12866TIP3   OH260012   1.098   1.095  17.199  0.1342 -0.1457 -0.1108
12866TIP3    H160013   1.072   1.079  17.108  0.5898  1.8230 -0.6078
12866TIP3    H260014   1.039   1.163  17.229  2.9968  2.5949 -0.4544
12867TIP3   OH260015   1.954   3.229  14.910  0.0750  0.1535  0.0463
12867TIP3    H160016   2.038   3.263  14.940 -0.7255  0.6617  1.8133
12867TIP3    H260017   1.970   3.200  14.821  2.1194  0.2749  0.3469
12868TIP3   OH260018   4.443   4.258   0.878  0.2774 -0.3180 -0.4435
12868TIP3    H160019   4.453   4.352   0.896 -0.9973 -0.0036 -1.2642
12868TIP3    H260020   4.380   4.255   0.805  0.0854 -1.8225 -0.2188
12869TIP3   OH260021   6.768   5.320   6.061  0.1242 -0.5434 -0.0710
12869TIP3    H160022   6.821   5.400   6.060 -2.0450  0.9174 -2.0465
12869TIP3    H260023   6.777   5.287   6.150  0.9931  1.9443  0.8085
12870TIP3   OH260024   4.520   5.243  16.966 -0.6596  0.0432  0.3968
12870TIP3    H160025   4.453   5.202  17.021 -0.9978  0.1118  0.0289
12870TIP3    H260026   4.558   5.170  16.917 -1.4163  0.1902 -0.4251
12871TIP3   OH260027   3.315   3.620   2.218 -0.0498 -0.3816 -0.4223
12871TIP3    H160028   3.224   3.651   2.212 -0.8188 -2.7744 -1.7401
12871TIP3    H260029   3.360   3.662   2.145 -1.1405 -2.4460 -2.3360
12872TIP3   OH260030   2.018   0.091   2.067 -0.1657  0.0756  0.1364
12872TIP3    H160031   2.068   0.052   2.138 -2.5315 -0.6447  1.4603
12872TIP3    H260032   1.987   0.017   2.016 -2.9717  0.2643  1.4888
12873TIP3   OH260033   2.827   1.506  11.670 -0.3739  0.4445  0.1054
12873TIP3    H160034   2.877   1.439  11.623 -0.5817  0.9790 -0.8911
12873TIP3    H260035   2.870   1.513  11.756  1.1448  0.7617 -0.6586
12874TIP3   OH260036   2.051   1.387  11.256  0.1741 -0.0317  0.2623
12874TIP3    H160037   2.096   1.464  11.220  0.1579 -1.1567 -2.2208
12874TIP3    H260038   1.960   1.396  11.226 -0.1133 -0.3961  1.0120
12875TIP3   OH260039   5.819   5.074  14.722  0.2378 -0.3949 -0.0731
12875TIP3    H160040   5.745   5.023  14.691 -0.9985 -0.3858  2.6950
12875TIP3    H260041   5.885   5.009  14.746 -0.2182 -0.5952  0.6785
12876TIP3   OH260042   5.009   2.877  16.862  0.4423 -0.2779 -0.5068
12876TIP3    H160043   5.016   2.972  16.873 -1.2642 -0.0861 -0.8402
12876TIP3    H260044   5.097   2.848  16.839  0.3658  1.6396 -3.3536
12877TIP3   OH260045   5.225   2.500  16.526 -0.0578 -0.2904  0.5079
12877TIP3    H160046   5.253   2.412  16.550 -1.4332 -1.3073 -1.4348
12877TIP3    H260047   5.221   2.498  16.430  1.0453  2.2533  0.3801
12878TIP3   OH260048   0.085   1.004   3.614  0.3113 -0.0589  0.2857
12878TIP3    H160049   0.103   0.924   3.662 -2.0302 -0.2675  0.8951
12878TIP3    H260050  -0.009   1.020   3.628  0.7817  2.9517  0.4555
12879TIP3   OH260051   3.273   0.470   1.865  0.5965  0.1796  0.5727
12879TIP3    H160052   3.302   0.515   1.943 -1.4242  1.4051  0.6534
12879TIP3    H260053   3.249   0.540   1.804 -1.4505 -0.7411  0.2686
12880TIP3   OH260054   0.326   4.436   3.664 -0.0959 -0.0481  0.3770
12880TIP3    H160055   0.281   4.415   3.745  1.4223  0.1820  1.2942
12880TIP3    H260056   0.390   4.366   3.652 -0.1353  0.0484 -0.4934
12881TIP3   OH260057   2.302   0.794   0.695 -0.0540  0.3584  0.2723
12881TIP3    H160058   2.352   0.859   0.745  0.3028 -1.3619  2.2520
12881TIP3    H260059   2.225   0.842   0.664  0.2537  1.7510  1.5766
12882TIP3   OH260060   6.522   4.008   5.149  0.2621 -0.2472  0.0067
12882TIP3    H160061   6.578   3.946   5.195 -2.5119 -2.0123  1.1422
12882TIP3    H260062   6.547   4.094   5.183  2.6779 -0.9240  0.0021
12883TIP3   OH260063   3.166   2.614   0.081  0.0697 -0.0820  0.7368
12883TIP3    H160064   3.182   2.708   0.075  2.1132 -0.4781 -0.1346
12883TIP3    H260065   3.199   2.589   0.167  1.4009 -0.3540  0.1564
12884TIP3   OH260066   2.843   2.768   0.167  0.0031 -0.0657  0.0892
12884TIP3    H160067   2.844   2.760   0.262  0.7900  1.6767  0.2416
12884TIP3    H260068   2.846   2.677   0.135  2.0732 -0.6060  1.7124
12885TIP3   OH260069   3.612   4.004  13.733 -0.1394  0.3004 -0.0491
12885TIP3    H160070   3.679   4.014  13.800  1.6237 -0.4574 -1.6739
12885TIP3    H260071   3.621   3.913  13.703 -0.9361  0.6098 -1.2747
12886TIP3   OH260072   1.322   5.339   4.292  0.3059 -0.1279 -0.0019
12886TIP3    H160073   1.300   5.429   4.317  2.5305  0.5861 -0.4765
12886TIP3    H260074   1.383   5.309   4.360  2.3520  0.0031 -1.7248
12887TIP3   OH260075   0.652   6.282   1.311  0.2697 -0.3514 -0.1504
12887TIP3    H160076   0.698   6.323   1.238 -0.2383 -0.0431 -0.3006
12887TIP3    H260077   0.633   6.193   1.281  2.2587 -1.0486  0.5516
12888TIP3   OH260078   1.365   0.034  16.056  0.2322 -1.1393 -1.0960
12888TIP3    H160079   1.334  -0.002  16.139 -0.8061  0.0526 -0.9426
12888TIP3    H260080   1.325   0.122  16.052  1.7142 -0.4865 -2.0057
12889TIP3   OH260081   2.502   4.083   4.396 -0.1187 -0.2080  0.2328
12889TIP3    H160082   2.564   4.021   4.435  1.3262  2.3283  2.0546
12889TIP3    H260083   2.443   4.106   4.467 -0.7509  0.3855 -0.4774
12890TIP3   OH260084   0.184   3.019  16.406  0.0555  0.3006  0.2552
12890TIP3    H160085   0.199   3.110  16.430  0.4291  0.9246 -2.2149
12890TIP3    H260086   0.101   2.996  16.448  0.1275  1.6867  1.1561
12891TIP3   OH260087   4.310   1.055  14.017  0.5824  0.4073  0.2314
12891TIP3    H160088   4.329   1.113  13.944  0.2602  1.0957  0.6894
12891TIP3    H260089   4.379   1.074  14.081  0.6643  0.0557  0.2508
12892TIP3   OH260090   4.673   5.241  12.902  0.3782 -0.1562 -0.2128
12892TIP3    H160091   4.691   5.152  12.932  0.0705 -0.0727  0.2145
12892TIP3    H260092   4.760   5.283  12.900  0.1207  0.7079  3.3524
12893TIP3   OH260093   3.186   6.765  16.994  0.1517 -0.4098 -0.3410
12893TIP3    H160094   3.150   6.677  17.001  0.8935 -0.6612  0.5216
12893TIP3    H260095   3.208   6.789  17.085  0.7331  0.3278 -0.6652
12894TIP3   OH260096   0.755   2.736  15.688 -0.1406 -0.0021 -0.0484
12894TIP3    H160097   0.717   2.687  15.615  0.3622 -0.3393 -0.0829
12894TIP3    H260098   0.689   2.803  15.708 -0.3068  0.0579 -0.7735
12895TIP3   OH260099   2.516   4.434  12.832  0.2626 -0.1145  0.1919
12895TIP3    H160100   2.518   4.342  12.805  0.9027 -0.1538  0.3635
12895TIP3    H260101   2.490   4.482  12.753  0.6368 -0.3770 -0.0914
12896TIP3   OH260102   3.301   6.077  15.823 -0.5674  0.1422 -0.1304
12896TIP3    H160103   3.395   6.092  15.836 -0.6145  1.1941 -0.9036
12896TIP3    H260104   3.266   6.066  15.912  0.5698 -2.1623  0.0659
12897TIP3   OH260105   2.024   1.455   0.943  0.3973 -0.6985 -0.6413
12897TIP3    H160106   2.100   1.398   0.941 -0.0121 -1.2286 -1.2912
12897TIP3    H260107   1.949   1.395   0.949 -0.0508 -0.2537 -1.6422
12898TIP3   OH260108   4.176   3.339  13.379  0.5252 -0.1238  0.0237
12898TIP3    H160109   4.222   3.306  13.302 -0.9395 -0.6285 -0.6622
12898TIP3    H260110   4.180   3.266  13.442  0.2643 -0.3375 -0.2060
12899TIP3   OH260111   1.222   1.051  15.410  0.6117 -0.0808  0.8435
12899TIP3    H160112   1.294   1.104  15.378  0.7317 -1.8102 -1.9201
12899TIP3    H260113   1.156   1.055  15.341 -1.4538  0.4764  2.7880
12900TIP3   OH260114   0.356   5.752   2.011  0.0958 -0.4123  0.3432
12900TIP3    H160115   0.281   5.696   2.031 -0.1475  0.9393  3.6028
12900TIP3    H260116   0.320   5.840   2.006  1.0993 -0.0401 -0.6317
12901TIP3   OH260117   6.652   6.528   1.870 -0.3131 -0.4825 -0.1066
12901TIP3    H160118   6.715   6.500   1.937  0.7171 -0.2327 -0.9592
12901TIP3    H260119   6.575   6.555   1.920  0.1455 -1.0561  0.9405
12902TIP3   OH260120   1.902   5.498   3.542 -0.4251 -0.2450 -0.4812
12902TIP3    H160121   1.828   5.517   3.600 -1.0543 -0.2360 -1.2906
12902TIP3    H260122   1.979   5.507   3.599 -1.0707 -0.7773  0.4945
12903TIP3   OH260123   1.748   3.721  14.979  0.6648  0.0299 -0.1874
12903TIP3    H160124   1.825   3.667  14.998  1.4566  1.3375  0.4745
12903TIP3    H260125   1.709   3.738  15.065  0.0012 -0.0934 -0.4605
12904TIP3   OH260126   1.074   3.110   3.929  0.1776 -0.2164  0.1502
12904TIP3    H160127   1.117   3.144   4.008  0.5008  1.2982 -0.6492
12904TIP3    H260128   0.990   3.157   3.927 -0.4143 -1.2596  0.3195
12905TIP3   OH260129   2.291   0.167   2.919 -0.3216 -0.5944  0.0879
12905TIP3    H160130   2.318   0.105   2.988  0.8795  1.4970  1.5578
12905TIP3    H260131   2.197   0.176   2.930 -0.3417 -1.3194  0.5628
12906TIP3   OH260132   2.946   4.930  12.863 -0.5490 -0.2500 -0.0228
12906TIP3    H160133   2.929   5.012  12.816  1.0231 -0.4828 -1.0443
12906TIP3    H260134   2.870   4.919  12.920 -1.0197  1.6539 -0.2449
12907TIP3   OH260135   1.550   1.743  12.178  0.3661  0.6291  0.4435
12907TIP3    H160136   1.564   1.648  12.180 -2.8367  0.1223  0.3647
12907TIP3    H260137   1.547   1.768  12.270  2.1952  0.8508  0.4677
12908TIP3   OH260138   4.208   0.719  12.325  0.1757 -0.0116 -0.2445
12908TIP3    H160139   4.257   0.761  12.255 -0.2280 -0.1030 -0.5789
12908TIP3    H260140   4.177   0.637  12.287 -1.7387  0.8556 -0.5878
12909TIP3   OH260141   6.476   3.968  13.702  0.7864  0.1400 -0.0358
12909TIP3    H160142   6.540   3.915  13.654  0.6709  0.9120 -1.0673
12909TIP3    H260143   6.428   4.015  13.633 -3.4116 -3.2023  0.3824
12910TIP3   OH260144   1.754   0.270  12.869 -0.3145  0.5116 -0.1747
12910TIP3    H160145   1.671   0.272  12.916 -2.0232 -0.7322 -3.0402
12910TIP3    H260146   1.763   0.179  12.840  1.6489  0.8184 -0.5801
12911TIP3   OH260147   2.323   0.017   0.306  0.1479 -0.5458 -0.1296
12911TIP3    H160148   2.264   0.076   0.353  1.6711 -0.4918  1.7916
12911TIP3    H260149   2.266  -0.053   0.274 -1.3512  0.8597 -0.6395
12912TIP3   OH260150   2.273   0.943   5.629  0.0590 -0.1174 -0.4289
12912TIP3    H160151   2.260   0.908   5.717 -0.1803  1.1915  0.0685
12912TIP3    H260152   2.341   1.009   5.640  2.7121 -2.4851 -1.8780
12913TIP3   OH260153   6.427   3.703   2.556  0.2811  0.5083 -0.0168
12913TIP3    H160154   6.438   3.626   2.500  0.3111 -0.2946  1.0735
12913TIP3    H260155   6.333   3.714   2.565  0.2709 -0.3270  1.0521
12914TIP3   OH260156   4.350   4.574  13.152 -0.4075  0.2763 -0.2822
12914TIP3    H160157   4.301   4.642  13.105 -0.7331 -1.2780 -2.3149
12914TIP3    H260158   4.404   4.534  13.084  4.1438  2.2488  2.0026
12915TIP3   OH260159   3.011   2.761  14.657  0.2281 -0.2835  0.0500
12915TIP3    H160160   3.010   2.793  14.747 -1.3147 -0.1186 -0.0015
12915TIP3    H260161   3.042   2.671  14.664 -0.6830 -0.5497  0.8623
12916TIP3   OH260162   2.017   4.139   4.456  0.1347 -0.0921 -0.0769
12916TIP3    H160163   2.007   4.218   4.509  1.3724  0.2954 -0.4205
12916TIP3    H260164   2.068   4.167   4.380 -0.9792 -0.8094 -1.1150
12917TIP3   OH260165   1.841   2.738  14.098 -0.6813 -0.2202  0.5776
12917TIP3    H160166   1.903   2.675  14.060  2.0142  0.4750  3.5706
12917TIP3    H260167   1.883   2.823  14.086 -2.0069  0.4797  0.8748
12918TIP3   OH260168   3.295   4.483  14.140  0.0085  0.2396  0.4772
12918TIP3    H160169   3.341   4.555  14.184  0.7400  0.0133  0.0819
12918TIP3    H260170   3.363   4.418  14.122 -0.2244  0.4716 -1.2938
12919TIP3   OH260171   0.605   5.714   1.556  0.2554  0.0351  0.1750
12919TIP3    H160172   0.615   5.798   1.511 -0.1411 -0.3370 -0.6277
12919TIP3    H260173   0.694   5.679   1.561  0.7797  1.5778  2.6882
12920TIP3   OH260174   6.423   4.322   2.761 -0.7279  0.0864  0.4764
12920TIP3    H160175   6.351   4.269   2.726 -0.8118  0.3817  0.1949
12920TIP3    H260176   6.496   4.305   2.701 -0.1860 -1.1981  1.4988
12921TIP3   OH260177   0.764   0.116   5.886  0.3650  0.4626  0.1201
12921TIP3    H160178   0.855   0.110   5.855 -0.2671 -0.5698 -1.6288
12921TIP3    H260179   0.723   0.180   5.827  0.0553  1.2631  1.1873
12922TIP3   OH260180   6.174   3.496   1.557 -0.6549  0.3510 -0.1603
12922TIP3    H160181   6.237   3.466   1.622  1.0250 -2.2738 -2.8455
12922TIP3    H260182   6.226   3.546   1.494 -2.3611  3.4451  0.7957
12923TIP3   OH260183   4.552   6.652  14.703  0.1100  0.6888  0.3102
12923TIP3    H160184   4.496   6.711  14.654  0.8564  0.5307 -0.7502
12923TIP3    H260185   4.618   6.709  14.743  1.6149  0.4968 -1.7708
12924TIP3   OH260186   1.409   4.322  11.261 -0.1402 -0.1067 -0.1209
12924TIP3    H160187   1.483   4.377  11.285 -1.4281  1.5913  0.0594
12924TIP3    H260188   1.403   4.257  11.332 -0.2983  1.2256  1.0985
12925TIP3   OH260189   6.178   4.076   2.143  0.5860  0.1625 -0.2506
12925TIP3    H160190   6.122   3.998   2.137 -0.9401  1.1674  0.6726
12925TIP3    H260191   6.215   4.072   2.231 -0.5746  1.1760  0.3021
12926TIP3   OH260192   3.088   4.917  16.841  0.2483  0.4686  0.7809
12926TIP3    H160193   3.133   4.938  16.760 -0.6594  0.3591  0.2454
12926TIP3    H260194   3.144   4.955  16.910  0.2411  1.8882  0.0245
12927TIP3   OH260195   3.956   1.421  13.668  0.6079 -0.0717  0.2175
12927TIP3    H160196   3.909   1.386  13.744  0.6228 -0.6309 -0.0254
12927TIP3    H260197   3.908   1.500  13.643 -1.5112 -1.8119 -1.3785
12928TIP3   OH260198   5.215   0.910  13.315 -0.0163 -0.3014 -0.2298
12928TIP3    H160199   5.200   0.873  13.402  0.8432 -0.6329 -0.2201
12928TIP3    H260200   5.138   0.885  13.264 -0.2758 -0.5560  0.2872
12929TIP3   OH260201   4.483   2.554  12.567  0.6241  0.6127 -0.1782
12929TIP3    H160202   4.509   2.469  12.603 -0.2446  0.3680 -0.1006
12929TIP3    H260203   4.531   2.618  12.620  1.0661  0.1786 -0.0452
12930TIP3   OH260204   5.378   0.183  13.318 -0.3210  0.7112 -0.3962
12930TIP3    H160205   5.331   0.106  13.285  1.6247  0.3197 -2.3895
12930TIP3    H260206   5.324   0.258  13.291 -0.1035  0.2401 -2.2433
12931TIP3   OH260207   5.872   3.307   6.303 -0.6017  0.2435 -0.1290
12931TIP3    H160208   5.894   3.394   6.270  0.1862  0.2003  0.2615
12931TIP3    H260209   5.806   3.323   6.370  0.9257  0.7468  1.3181
12932TIP3   OH260210   5.955   5.798   3.406  0.0078 -0.2504  0.3208
12932TIP3    H160211   6.000   5.725   3.449  0.1918 -0.2020  0.2135
12932TIP3    H260212   5.995   5.876   3.444  1.3045 -0.2012 -1.0796
12933TIP3   OH260213   6.620   5.233  14.619 -1.1736  0.2714 -0.2273
12933TIP3    H160214   6.577   5.284  14.550 -0.1134 -0.1974 -1.2432
12933TIP3    H260215   6.700   5.281  14.637 -0.4309 -0.7377 -0.8117
12934TIP3   OH260216   6.427   0.199   0.514 -0.3917 -0.2714 -0.0603
12934TIP3    H160217   6.470   0.135   0.570  0.9570  1.3566  0.7862
12934TIP3    H260218   6.339   0.164   0.501  0.4344 -2.4613  0.1077
12935TIP3   OH260219   3.660   3.669  11.105 -0.4303  0.6213 -0.2483
12935TIP3    H160220   3.630   3.586  11.069  1.6770  0.7497 -2.4382
12935TIP3    H260221   3.755   3.659  11.113 -0.3837  2.1015  1.3928
12936TIP3   OH260222   6.689   1.817  12.515  0.2594  0.6459 -0.4226
12936TIP3    H160223   6.675   1.903  12.477 -0.0433  0.1931 -1.3554
12936TIP3    H260224   6.654   1.756  12.450  0.7256 -0.1916  0.0989
12937TIP3   OH260225   3.878   5.728  14.042  0.1545  0.4796  0.5580
12937TIP3    H160226   3.953   5.732  13.983 -0.4452 -1.3860 -0.3764
12937TIP3    H260227   3.905   5.665  14.110 -0.5006 -0.0738  0.3047
12938TIP3   OH260228   3.141   2.731   3.497  0.0017 -0.4710 -0.1384
12938TIP3    H160229   3.135   2.720   3.592 -0.4805 -1.3780 -0.2663
12938TIP3    H260230   3.091   2.811   3.479 -2.2457 -1.7913  0.0702
12939TIP3   OH260231   0.836   5.155   4.914  0.3714 -0.1637 -0.4308
12939TIP3    H160232   0.830   5.229   4.974  0.1965  1.2334 -2.1536
12939TIP3    H260233   0.897   5.095   4.957 -1.7606 -0.4294  2.4210
12940TIP3   OH260234   4.841   1.224   4.081 -0.0169  0.6519  0.0773
12940TIP3    H160235   4.871   1.260   3.998  0.3033  1.3138  0.4728
12940TIP3    H260236   4.887   1.140   4.089 -0.2726  0.4470 -0.5411
12941TIP3   OH260237   4.877   2.573  14.178 -0.3437 -0.0061  0.1128
12941TIP3    H160238   4.882   2.499  14.239 -1.9867 -0.4005 -0.1937
12941TIP3    H260239   4.796   2.617  14.202 -0.5217  0.3776 -1.1884
12942TIP3   OH260240   6.191   1.285   4.199  0.0019 -0.2683 -0.1171
12942TIP3    H160241   6.261   1.319   4.144 -0.1129 -1.8914 -1.3183
12942TIP3    H260242   6.111   1.315   4.156 -0.0733 -0.4600 -0.1109
12943TIP3   OH260243   6.022   6.423  10.842 -0.3313 -0.5189  0.4552
12943TIP3    H160244   5.952   6.393  10.785 -1.1344  0.0081  1.1539
12943TIP3    H260245   5.997   6.512  10.866  1.2229  0.1470 -0.3132
12944TIP3   OH260246   3.654   6.134   1.985  0.2177 -0.3839 -0.0695
12944TIP3    H160247   3.699   6.174   2.060  0.0233 -0.0185 -0.1476
12944TIP3    H260248   3.566   6.115   2.017  0.2483 -0.5680 -0.0938
12945TIP3   OH260249   3.435   6.462  11.303 -0.2780  0.1500  0.2124
12945TIP3    H160250   3.402   6.547  11.275 -0.8192 -0.3467 -0.7042
12945TIP3    H260251   3.359   6.404  11.300 -0.2615 -0.0255  2.3541
12946TIP3   OH260252   3.770   4.869  12.169  0.1964  0.1265  0.0258
12946TIP3    H160253   3.744   4.778  12.180  1.2698 -0.1692  0.2014
12946TIP3    H260254   3.829   4.886  12.243  0.8397  0.6374 -0.5953
12947TIP3   OH260255   3.738   6.015  15.586  0.0330 -0.2385 -0.4549
12947TIP3    H160256   3.748   6.090  15.527  0.3208  1.3618  1.5317
12947TIP3    H260257   3.826   5.981  15.597  0.1951  0.3523  0.1331
12948TIP3   OH260258   4.168   1.284   3.581  0.1441 -0.1704 -0.0274
12948TIP3    H160259   4.199   1.203   3.622 -1.0704 -0.1962  0.8523
12948TIP3    H260260   4.249   1.330   3.557  0.8565 -1.1714  0.3824
12949TIP3   OH260261   4.930   6.480  12.623 -0.5166  0.1277 -0.0649
12949TIP3    H160262   5.013   6.441  12.598 -1.2478 -0.7999 -1.1240
12949TIP3    H260263   4.867   6.446  12.558 -1.5859  1.3176  0.3232
12950TIP3   OH260264   5.715   6.646  16.839  0.1082  0.6986 -0.5743
12950TIP3    H160265   5.666   6.728  16.839 -0.7637  0.1829 -0.9294
12950TIP3    H260266   5.691   6.603  16.921  0.6382  0.8346 -0.3423
12951TIP3   OH260267   2.484   0.712  11.790  0.0432 -0.5299  0.5087
12951TIP3    H160268   2.457   0.663  11.713 -2.8631 -1.4461  2.0166
12951TIP3    H260269   2.402   0.746  11.827  1.5625  1.6545  2.0306
12952TIP3   OH260270   2.409   2.885  15.478 -0.0005 -0.1516 -0.3014
12952TIP3    H160271   2.498   2.877  15.442  0.5538 -1.5131  1.3414
12952TIP3    H260272   2.352   2.858  15.406  0.8931  0.7167 -1.3656
12953TIP3   OH260273   6.489   3.141   5.518  0.8340 -0.5941  0.0326
12953TIP3    H160274   6.444   3.204   5.462  1.7595  1.3563  1.4099
12953TIP3    H260275   6.448   3.151   5.604  1.1210 -1.7522  0.3269
12954TIP3   OH260276   3.624   5.544  16.499 -0.0672  0.0876 -0.2478
12954TIP3    H160277   3.640   5.565  16.407 -1.1957 -0.8299 -0.6636
12954TIP3    H260278   3.671   5.612  16.548 -0.2612  1.1429 -1.5099
12955TIP3   OH260279   0.688   5.485   2.182 -0.6126 -0.1951 -0.0191
12955TIP3    H160280   0.739   5.535   2.118  0.9101 -4.2365 -2.2011
12955TIP3    H260281   0.636   5.550   2.228  1.1812  3.3261 -2.7154
12956TIP3   OH260282   4.790   5.380   6.072 -0.6434 -0.1903  0.3659
12956TIP3    H160283   4.703   5.406   6.102 -0.1206 -0.2793  1.9697
12956TIP3    H260284   4.794   5.412   5.982 -2.8160 -1.3208 -0.1707
12957TIP3   OH260285   4.976   1.253   0.005  0.3367 -0.7003  0.0022
12957TIP3    H160286   4.936   1.340   0.003  1.8881 -0.0019 -1.4542
12957TIP3    H260287   4.920   1.203   0.064 -0.5446  1.2973  0.9181
12958TIP3   OH260288   0.722   0.215  17.090  0.1407 -0.6912 -0.0432
12958TIP3    H160289   0.649   0.209  17.029 -1.2094 -0.6845  1.5534
12958TIP3    H260290   0.800   0.209  17.034 -1.0592 -1.3122 -1.6920
12959TIP3   OH260291   3.962   4.699  13.486 -0.0041  0.3805  0.0338
12959TIP3    H160292   3.894   4.728  13.425 -0.5899  1.1942  1.0597
12959TIP3    H260293   4.039   4.686  13.431 -0.5882  0.8762 -0.9205
12960TIP3   OH260294   6.566   0.552   5.061 -0.5502 -0.5353 -0.1830
12960TIP3    H160295   6.538   0.635   5.023  2.3594  0.5925 -0.0007
12960TIP3    H260296   6.600   0.576   5.148  1.7956 -1.6312 -0.7630
12961TIP3   OH260297   3.163   4.208  16.242 -0.0583  0.2181  0.4278
12961TIP3    H160298   3.191   4.145  16.308  0.9909  1.0113  0.7393
12961TIP3    H260299   3.076   4.237  16.271 -0.6545 -1.2596  0.1504
12962TIP3   OH260300   1.989   2.522  16.259 -0.2803 -0.5639 -0.6068
12962TIP3    H160301   2.068   2.575  16.259 -0.2397 -0.5630  2.0353
12962TIP3    H260302   1.925   2.573  16.309 -1.5487 -1.1563 -1.5788
12963TIP3   OH260303   0.450   2.895  14.533 -0.0274 -0.2646  0.1016
12963TIP3    H160304   0.394   2.818  14.520  0.0813 -0.2344 -0.5554
12963TIP3    H260305   0.402   2.948  14.597 -1.7417  0.7006 -1.9097
12964TIP3   OH260306   4.054   0.193  15.521  0.1054 -0.1177 -0.4386
12964TIP3    H160307   4.010   0.259  15.574  1.1099  1.0921 -1.0940
12964TIP3    H260308   4.012   0.111  15.545 -1.4924  0.8250  0.0358
12965TIP3   OH260309   3.970   1.870  13.943 -0.4636  0.7662 -0.7186
12965TIP3    H160310   3.877   1.872  13.922 -0.7877 -1.5093  0.3018
12965TIP3    H260311   4.014   1.882  13.859 -1.6438  3.3549 -1.0088
12966TIP3   OH260312   1.854   4.708  15.032  0.3339  0.3488 -0.2385
12966TIP3    H160313   1.780   4.647  15.032 -1.7110  2.6829 -2.8396
12966TIP3    H260314   1.817   4.790  15.066  2.3350  0.9190  0.6292
12967TIP3   OH260315   3.155   5.588   5.541 -0.1587 -0.2716  0.3135
12967TIP3    H160316   3.115   5.665   5.501  1.3972  0.7933  0.7703
12967TIP3    H260317   3.238   5.576   5.494  0.8505 -0.0634  2.0019
12968TIP3   OH260318   4.329   4.434  12.396 -0.1358 -0.2836 -0.0855
12968TIP3    H160319   4.391   4.367  12.368  0.7121 -0.7183  2.7038
12968TIP3    H260320   4.246   4.387  12.405  0.2104 -0.7323  0.7991
12969TIP3   OH260321   2.462   4.263  11.769 -0.2785  0.6136 -0.0561
12969TIP3    H160322   2.430   4.281  11.680 -2.3617 -1.2703  0.2536
12969TIP3    H260323   2.402   4.311  11.826 -1.1696 -1.0231  0.4333
12970TIP3   OH260324   0.395   0.017  11.196 -0.1391  0.9353  0.7123
12970TIP3    H160325   0.365   0.091  11.142  0.5793  2.0218  1.7781
12970TIP3    H260326   0.483  -0.002  11.164 -1.8530 -2.3199 -2.4840
12971TIP3   OH260327   1.368   3.162   2.935 -0.6028  0.2407  0.4701
12971TIP3    H160328   1.398   3.251   2.916  1.5016 -0.2247  1.4338
12971TIP3    H260329   1.369   3.156   3.031 -1.5772 -0.5510  0.4395
12972TIP3   OH260330   2.682   2.380   0.131 -0.1418 -0.0406 -0.1991
12972TIP3    H160331   2.762   2.358   0.083  0.3542  1.0494  0.0970
12972TIP3    H260332   2.711   2.394   0.221 -0.8012 -0.4335  0.0804
12973TIP3   OH260333   3.300   6.622   1.127  0.2360  0.2428 -0.3188
12973TIP3    H160334   3.208   6.629   1.154  0.2084  3.0095 -0.9723
12973TIP3    H260335   3.349   6.655   1.202  0.4422  2.7107 -1.4927
12974TIP3   OH260336   2.778   6.685  16.834  0.5967 -0.2316  0.7192
12974TIP3    H160337   2.811   6.613  16.888 -2.4279 -1.8666  0.4739
12974TIP3    H260338   2.711   6.726  16.888 -0.0099  0.3144 -0.4338
12975TIP3   OH260339   3.714   1.219   3.863 -0.6256  0.2438  0.7228
12975TIP3    H160340   3.736   1.163   3.938 -0.3804  0.5989  0.9206
12975TIP3    H260341   3.768   1.297   3.876 -2.7075  1.5606  1.7442
12976TIP3   OH260342   5.447   0.274   3.788  0.0424  0.4515 -0.0218
12976TIP3    H160343   5.526   0.245   3.834 -1.6080 -0.9920  2.0009
12976TIP3    H260344   5.475   0.283   3.697  2.4822 -0.2571  0.6077
12977TIP3   OH260345   0.076   6.113  14.146 -0.5333  0.1909 -0.4797
12977TIP3    H160346   0.135   6.154  14.209 -0.9790  1.0526 -0.6026
12977TIP3    H260347   0.122   6.121  14.062 -1.3793  2.0883 -0.8003
12978TIP3   OH260348   0.111   4.137  10.790  0.7018  0.1524  0.2421
12978TIP3    H160349   0.028   4.117  10.747  0.5288 -0.1641  0.7286
12978TIP3    H260350   0.155   4.053  10.798  0.0797 -0.0120  2.0576
12979TIP3   OH260351   1.855   3.298  13.708  0.0996 -0.4725  0.2935
12979TIP3    H160352   1.803   3.265  13.782  1.2607  0.5985  1.6227
12979TIP3    H260353   1.889   3.382  13.739 -0.0035  0.3308 -1.7510
12980TIP3   OH260354   3.828   4.092  12.111  0.5681  0.4475 -0.2800
12980TIP3    H160355   3.741   4.065  12.140 -0.0317  0.4713 -2.0276
12980TIP3    H260356   3.844   4.043  12.031  2.0552  0.6469 -0.1276
12981TIP3   OH260357   3.522   0.441  10.557 -0.5604 -0.0259  0.3026
12981TIP3    H160358   3.466   0.503  10.510  1.1880  1.3641 -0.0060
12981TIP3    H260359   3.501   0.455  10.649 -3.2883 -2.0697  0.0830
12982TIP3   OH260360   6.224   2.983  17.176  0.4062  0.3400 -0.2600
12982TIP3    H160361   6.177   3.067  17.176  0.6396  0.4838  0.6765
12982TIP3    H260362   6.155   2.917  17.169 -0.2929  0.4142  4.3943
12983TIP3   OH260363   6.628   5.918  15.490 -0.2614 -0.8558 -0.5934
12983TIP3    H160364   6.689   5.846  15.475  0.0717 -0.6252 -0.3582
12983TIP3    H260365   6.676   5.979  15.545 -0.0439  0.1839 -1.8924
12984TIP3   OH260366   2.971   4.140  15.037  0.5909 -0.3772 -0.0924
12984TIP3    H160367   2.991   4.063  14.983  1.9789  0.3989 -0.6978
12984TIP3    H260368   3.056   4.181  15.053  0.0550  0.1045  1.6549
12985TIP3   OH260369   1.911   4.199   4.146  0.2898  0.1747  0.2462
12985TIP3    H160370   1.886   4.206   4.053 -2.9037 -0.0014  1.0420
12985TIP3    H260371   1.968   4.275   4.160 -0.0393  0.8087 -1.5918
12986TIP3   OH260372   2.263   1.111  12.332 -0.3847 -0.2612 -0.4617
12986TIP3    H160373   2.328   1.081  12.396 -0.9646 -0.2601  0.1298
12986TIP3    H260374   2.187   1.055  12.346 -0.1122 -1.0313 -1.9431
12987TIP3   OH260375   1.543   5.124   3.212  0.2509 -0.7670  0.3543
12987TIP3    H160376   1.507   5.187   3.275  1.2682  1.3457 -1.1325
12987TIP3    H260377   1.583   5.056   3.267 -0.0220  0.3590  1.9963
12988TIP3   OH260378   0.598   4.518  13.710  0.4265 -0.6640  0.2583
12988TIP3    H160379   0.555   4.600  13.735  1.6956 -0.1141  0.6595
12988TIP3    H260380   0.582   4.459  13.783  0.3210 -0.4690  0.3928
12989TIP3   OH260381   5.113   5.721  11.226  0.7151 -0.4550  0.0289
12989TIP3    H160382   5.143   5.752  11.312  0.5427  0.6446 -0.2898
12989TIP3    H260383   5.193   5.703  11.177  0.8323 -0.1544  0.1027
12990TIP3   OH260384   3.659   2.410  16.819 -0.0774 -0.6619  0.4968
12990TIP3    H160385   3.637   2.415  16.726  0.4757 -1.1347  0.3432
12990TIP3    H260386   3.732   2.348  16.824  1.6722  1.3620  0.9220
12991TIP3   OH260387   0.417   3.241   4.303  0.4159  0.0976 -0.0273
12991TIP3    H160388   0.399   3.219   4.212 -2.1124 -0.9471  0.6943
12991TIP3    H260389   0.405   3.336   4.308 -1.1222 -0.0751 -0.4037
12992TIP3   OH260390   0.425   2.246   1.744  0.0783 -0.0429 -0.6699
12992TIP3    H160391   0.465   2.160   1.738  1.7592  0.6448  0.3381
12992TIP3    H260392   0.401   2.269   1.654  0.7556 -1.0254 -1.0969
12993TIP3   OH260393   1.492   3.472  11.951  0.4245  0.1593  0.2143
12993TIP3    H160394   1.582   3.453  11.976  0.7220  2.2164  0.7347
12993TIP3    H260395   1.467   3.398  11.894  3.1028  0.5818 -1.5839
12994TIP3   OH260396   3.235   5.160   1.839 -0.1325 -0.3196 -0.2924
12994TIP3    H160397   3.176   5.179   1.912  1.5591 -0.9328  1.2934
12994TIP3    H260398   3.322   5.170   1.877  0.7687 -1.6248 -1.9896
12995TIP3   OH260399   1.016   0.718  16.605  0.2859 -0.5030  0.3228
12995TIP3    H160400   1.025   0.785  16.672  2.1130  0.6686 -1.0446
12995TIP3    H260401   1.090   0.659  16.620  0.2719 -0.6536 -0.1849
12996TIP3   OH260402   4.672   1.097  12.798  0.8325 -0.7694  0.1296
12996TIP3    H160403   4.758   1.127  12.769  1.0603 -1.2858  0.2642
12996TIP3    H260404   4.679   1.093  12.894 -0.1185  1.5523  0.3396
12997TIP3   OH260405   4.312   6.424  12.953 -0.2523  0.5089  0.1521
12997TIP3    H160406   4.332   6.396  13.042 -0.1911  0.1493  0.0279
12997TIP3    H260407   4.296   6.518  12.960 -0.1181  0.5047  0.5207
12998TIP3   OH260408   1.133   1.996   3.490 -0.0455 -0.2130 -0.2655
12998TIP3    H160409   1.211   1.942   3.507  0.1213  0.8385  2.6003
12998TIP3    H260410   1.159   2.054   3.418  0.8478 -1.7810 -1.2303
12999TIP3   OH260411   2.697   2.429  14.226 -0.5740  0.4128 -0.4054
12999TIP3    H160412   2.745   2.390  14.153 -1.6351 -1.4662 -0.1226
12999TIP3    H260413   2.620   2.469  14.185 -1.2038 -0.6985 -0.3178
13000TIP3   OH260414   0.904   6.223  14.326 -0.2524  0.3064 -0.0122
13000TIP3    H160415   0.901   6.315  14.350  1.4285  0.9292 -2.1113
13000TIP3    H260416   0.997   6.200  14.327 -0.7155 -1.6875  1.6182
13001TIP3   OH260417   0.839   5.318  15.842 -0.3554 -0.0724 -0.0166
13001TIP3    H160418   0.900   5.327  15.768 -1.2523 -0.1398 -0.7608
13001TIP3    H260419   0.756   5.352  15.809 -1.1216 -1.4012  0.5113
13002TIP3   OH260420   6.299   2.637   6.128 -0.0921  0.4565  0.6502
13002TIP3    H160421   6.227   2.574   6.116 -0.8961  1.7038 -1.2325
13002TIP3    H260422   6.366   2.608   6.066 -0.6261  1.6522 -0.5156
13003TIP3   OH260423   0.868   3.943   1.559  0.5486 -0.3725  0.1931
13003TIP3    H160424   0.898   3.854   1.538 -1.6205 -1.1912  0.4106
13003TIP3    H260425   0.805   3.964   1.491  1.2042  1.0947  0.0372
13004TIP3   OH260426   6.484   6.234   2.955 -0.2839 -0.3121 -0.0759
13004TIP3    H160427   6.416   6.167   2.946  1.0255 -1.8371  1.0182
13004TIP3    H260428   6.541   6.200   3.024  0.7659  1.6485  0.0504
13005TIP3   OH260429   0.217   2.735  10.453  0.4996 -0.2796  0.2723
13005TIP3    H160430   0.276   2.808  10.434 -0.7935  0.5308 -0.6820
13005TIP3    H260431   0.209   2.689  10.369 -2.5477  1.3396 -0.3855
13006TIP3   OH260432   6.323   3.668  14.162 -0.7716  0.6157 -0.2501
13006TIP3    H160433   6.328   3.597  14.098  0.3495 -0.1517  0.6742
13006TIP3    H260434   6.413   3.700  14.169 -0.3777 -0.9078  2.6896
13007TIP3   OH260435   2.493   0.549   5.290  0.0481  0.1103  0.5667
13007TIP3    H160436   2.427   0.551   5.221 -0.1192  0.1740  0.7284
13007TIP3    H260437   2.464   0.616   5.353 -0.5734 -0.9368  1.4145
13008TIP3   OH260438   5.716   5.751  12.100  0.0484  0.0081 -0.0223
13008TIP3    H160439   5.784   5.806  12.139 -1.6557  3.1073 -1.2318
13008TIP3    H260440   5.700   5.683  12.165  1.9107  1.2030  1.7504
13009TIP3   OH260441   2.093   1.509   2.655  0.1257 -0.1317 -0.1919
13009TIP3    H160442   2.133   1.478   2.575 -0.8934  1.4660 -1.3614
13009TIP3    H260443   2.105   1.604   2.653 -2.1819  0.2134  0.2482
13010TIP3   OH260444   6.564   5.525   3.306  0.1718  0.5139 -0.1584
13010TIP3    H160445   6.470   5.522   3.325 -0.1325  2.0046 -1.3516
13010TIP3    H260446   6.606   5.521   3.392 -0.9812  0.0112  0.3953
13011TIP3   OH260447   6.349   3.333   4.993  0.4733  0.0540  0.3661
13011TIP3    H160448   6.327   3.324   5.086  0.2901  0.3467  0.3524
13011TIP3    H260449   6.266   3.355   4.950  0.8591  1.6170  0.3834
13012TIP3   OH260450   4.895   6.166  11.188  0.4250  0.0730  0.2193
13012TIP3    H160451   4.815   6.149  11.239 -2.1475  1.3978 -3.2123
13012TIP3    H260452   4.897   6.261  11.177  0.5470 -0.2278 -2.6400
13013TIP3   OH260453   5.837   4.756  16.640  0.5586 -0.2031 -0.1007
13013TIP3    H160454   5.844   4.679  16.697  1.9899  1.2322  1.7237
13013TIP3    H260455   5.903   4.742  16.572  0.0915 -1.0593 -0.3914
13014TIP3   OH260456   5.444   1.416   5.799  0.3590 -0.3492  0.5111
13014TIP3    H160457   5.419   1.396   5.709  1.1782 -1.7977  0.6011
13014TIP3    H260458   5.494   1.497   5.792  2.7492 -1.8944 -0.6803
13015TIP3   OH260459   0.273   5.532  12.115 -0.4831  0.0133 -0.5400
13015TIP3    H160460   0.331   5.456  12.113  1.9443  1.8201 -1.9466
13015TIP3    H260461   0.229   5.527  12.200  0.8359 -2.0921  0.0431
13016TIP3   OH260462   4.081   4.171  13.447  0.2253 -0.3448 -0.2661
13016TIP3    H160463   4.023   4.245  13.428  0.1310  0.1411  1.7898
13016TIP3    H260464   4.163   4.193  13.405  0.6408  1.6408  1.5179
13017TIP3   OH260465   2.849   2.330  10.484 -0.1920 -0.0851  0.4022
13017TIP3    H160466   2.800   2.339  10.403 -0.1090  0.5806  0.4211
13017TIP3    H260467   2.858   2.236  10.497 -2.0474 -0.2316  0.7561
13018TIP3   OH260468   4.662   1.134   0.724  0.0795 -0.0207  0.7417
13018TIP3    H160469   4.632   1.071   0.790 -0.4130 -0.4065  0.1570
13018TIP3    H260470   4.682   1.213   0.774  1.7788 -0.9802  1.6418
13019TIP3   OH260471   2.325   2.702   1.035 -0.5081  0.3999 -0.1547
13019TIP3    H160472   2.336   2.709   0.940  0.2872 -0.7666 -0.1519
13019TIP3    H260473   2.396   2.755   1.071 -1.3895  1.6427 -0.2011
13020TIP3   OH260474   5.005   2.404   4.090  0.4704 -0.4583 -0.2990
13020TIP3    H160475   4.964   2.468   4.031 -0.0834  0.5320  1.1052
13020TIP3    H260476   4.992   2.442   4.177 -0.2507 -2.7190  0.6059
13021TIP3   OH260477   4.722   0.282   1.559  0.5220 -0.3262  0.1426
13021TIP3    H160478   4.683   0.360   1.519 -1.2934 -0.2844  1.9043
13021TIP3    H260479   4.795   0.315   1.611 -0.0428  0.1766  0.6256
13022TIP3   OH260480   0.580   4.000   2.944  0.3680 -0.5828 -0.6975
13022TIP3    H160481   0.667   3.997   2.984 -0.0705  2.9363  0.7523
13022TIP3    H260482   0.596   4.025   2.853  0.8745  0.3279 -0.3601
13023TIP3   OH260483   6.260   3.533   0.906 -0.8241  0.2454 -0.0913
13023TIP3    H160484   6.248   3.626   0.887  0.5565  0.4113 -0.1931
13023TIP3    H260485   6.254   3.490   0.820 -0.1991  0.3791 -0.2019
13024TIP3   OH260486   3.507   4.952   4.172 -0.4050  0.6265  0.6235
13024TIP3    H160487   3.584   4.957   4.115 -1.2822  1.7219 -0.5064
13024TIP3    H260488   3.440   5.002   4.126 -1.2412  1.2718  2.4962
13025TIP3   OH260489   1.797   6.784   3.796  0.1854  0.1636 -0.0769
13025TIP3    H160490   1.744   6.735   3.858  0.1466  1.2467  0.7731
13025TIP3    H260491   1.888   6.762   3.820  0.1844  0.9866  0.7259
13026TIP3   OH260492   2.410   5.913  14.691  0.1410  0.1536 -0.0150
13026TIP3    H160493   2.353   5.842  14.721 -1.9909  1.6337 -0.4615
13026TIP3    H260494   2.447   5.949  14.772  0.8912 -1.1646  0.2424
13027TIP3   OH260495   4.522   1.632  12.569 -0.2442  0.3755  0.0413
13027TIP3    H160496   4.549   1.600  12.655 -1.2613  2.6002  1.2351
13027TIP3    H260497   4.561   1.719  12.561 -0.6102  0.4229 -1.5120
13028TIP3   OH260498   3.358   4.450   3.931 -0.1586 -0.0736 -0.1210
13028TIP3    H160499   3.392   4.366   3.964 -0.7767  0.8834  3.1866
13028TIP3    H260500   3.431   4.510   3.939 -0.3075  0.1663 -0.5655
13029TIP3   OH260501   0.174   1.537  16.638  0.2897  1.1036  0.0240
13029TIP3    H160502   0.105   1.545  16.572 -0.7260  1.6819  1.1400
13029TIP3    H260503   0.255   1.528  16.587 -0.8254 -1.8525 -1.3012
13030TIP3   OH260504   0.715   0.591   4.979 -0.2687  0.0719 -0.1156
13030TIP3    H160505   0.723   0.553   5.066 -0.8608  0.0502 -0.0734
13030TIP3    H260506   0.764   0.674   4.985 -0.2934  0.0614  0.2308
13031TIP3   OH260507   5.861   2.405  14.506  0.2512  0.3056  0.3217
13031TIP3    H160508   5.901   2.465  14.443  1.5808 -1.0378 -0.1414
13031TIP3    H260509   5.873   2.318  14.468 -2.6236 -0.1851  0.4760
13032TIP3   OH260510   4.552   0.271  11.567 -0.8676 -0.1876  0.3191
13032TIP3    H160511   4.604   0.309  11.638  0.6873  1.4839 -1.6419
13032TIP3    H260512   4.597   0.189  11.546  0.0406  0.4548 -0.2741
13033TIP3   OH260513   6.137   4.761   0.563 -0.2829 -0.1359  0.7335
13033TIP3    H160514   6.220   4.792   0.527 -0.6481 -0.6980 -0.6286
13033TIP3    H260515   6.127   4.809   0.645  0.4898  1.3031 -0.0027
13034TIP3   OH260516   1.037   2.344   2.993 -0.2549  0.0533  0.1339
13034TIP3    H160517   0.978   2.406   3.035 -0.1111 -0.0130  0.4312
13034TIP3    H260518   1.098   2.318   3.062  0.7199  0.8431 -0.4230
13035TIP3   OH260519   0.155   4.190  15.150 -0.6735 -0.1398  0.6534
13035TIP3    H160520   0.227   4.128  15.139  0.3939  1.3553 -0.9834
13035TIP3    H260521   0.085   4.156  15.095 -0.4265 -0.3905  0.4938
13036TIP3   OH260522   3.820   5.162  12.670  0.3803  0.2927  0.0638
13036TIP3    H160523   3.833   5.104  12.594  1.6227  1.2533 -0.4789
13036TIP3    H260524   3.805   5.102  12.743  0.8485 -0.6965 -0.6352
13037TIP3   OH260525   2.336   5.857   4.835  0.3682  0.2233 -0.4231
13037TIP3    H160526   2.346   5.952   4.829  1.9057  0.0252 -1.0264
13037TIP3    H260527   2.424   5.824   4.854  0.3390 -1.2937 -2.8166
13038TIP3   OH260528   6.346   5.352   5.662  0.2698  0.4172  0.0993
13038TIP3    H160529   6.389   5.435   5.640 -0.4825  0.5618 -0.8683
13038TIP3    H260530   6.400   5.315   5.731  0.4888  1.8224  0.7034
13039TIP3   OH260531   5.864   4.975  15.493 -0.0215  0.5048 -0.1758
13039TIP3    H160532   5.864   5.040  15.422  2.5479 -1.9884 -2.6124
13039TIP3    H260533   5.935   5.003  15.551  0.1867  0.6645 -0.5006
13040TIP3   OH260534   6.238   0.581   3.192 -0.2551 -0.5298  0.1336
13040TIP3    H160535   6.179   0.508   3.174  0.4268 -1.2984  0.9534
13040TIP3    H260536   6.238   0.589   3.287 -0.0536  0.3259  0.0684
13041TIP3   OH260537   0.464   4.260  17.173 -0.6514 -0.0624  0.2205
13041TIP3    H160538   0.485   4.174  17.137  0.0581 -0.1332  0.7989
13041TIP3    H260539   0.518   4.321  17.125 -0.2861 -0.0712  0.6155
13042TIP3   OH260540   0.123   0.012  13.826  0.3451 -0.0713  0.5360
13042TIP3    H160541   0.177   0.071  13.879  1.0790  0.0796 -0.3701
13042TIP3    H260542   0.184  -0.028  13.764 -0.4254 -0.5870  0.0988
13043TIP3   OH260543   6.033   6.141  13.774  0.8091 -0.4105  0.0667
13043TIP3    H160544   6.067   6.214  13.722  0.3946  0.8380  1.4974
13043TIP3    H260545   6.109   6.085  13.789  1.1584 -0.2288 -0.9679
13044TIP3   OH260546   2.414   4.761  15.432  0.2657 -0.0340 -0.3231
13044TIP3    H160547   2.350   4.826  15.403 -2.0405 -2.2209 -0.2892
13044TIP3    H260548   2.392   4.745  15.523  2.0366  0.4779  0.2158
13045TIP3   OH260549   2.860   0.471   5.485 -0.0437 -0.5288  0.0024
13045TIP3    H160550   2.870   0.462   5.390 -0.4445 -1.2980  0.0302
13045TIP3    H260551   2.897   0.390   5.520 -2.0371 -1.3165  0.3664
13046TIP3   OH260552   2.635   5.047   0.884 -0.4936 -0.3915  0.1833
13046TIP3    H160553   2.611   5.123   0.936  1.4368  0.2181  0.2269
13046TIP3    H260554   2.715   5.014   0.925 -0.0797 -1.1268 -1.1716
13047TIP3   OH260555   4.535   3.127  16.991 -0.0111  0.1473 -0.2685
13047TIP3    H160556   4.630   3.132  16.997  0.1457  0.0358 -2.2771
13047TIP3    H260557   4.511   3.052  17.045  0.9776  0.5323  0.7192
13048TIP3   OH260558   5.617   3.083   3.036  0.1859 -0.3921 -0.1705
13048TIP3    H160559   5.641   3.146   2.968  1.5589 -1.3590 -0.6101
13048TIP3    H260560   5.701   3.053   3.072 -0.5363  0.1802  2.0230
13049TIP3   OH260561   2.838   6.224   6.047 -0.4321 -0.4467 -0.0770
13049TIP3    H160562   2.849   6.314   6.076  0.5549 -0.4553 -0.4232
13049TIP3    H260563   2.770   6.228   5.980  1.0795  0.3382 -1.5808
13050TIP3   OH260564   3.068   5.269  13.627 -0.4228 -0.7029  0.0583
13050TIP3    H160565   3.091   5.277  13.720  1.2671  0.6640 -0.4467
13050TIP3    H260566   3.052   5.175  13.614  0.2771 -1.0384  1.5140
13051TIP3   OH260567   5.873   0.835   5.183  0.1188  0.0582  0.6119
13051TIP3    H160568   5.799   0.809   5.128  0.3894  0.7305 -0.0831
13051TIP3    H260569   5.833   0.864   5.265 -0.3874  0.3806  0.2559
13052TIP3   OH260570   0.959   3.756  11.592  0.0078  0.1577  0.6163
13052TIP3    H160571   0.984   3.819  11.525  0.2088 -0.4733  0.0884
13052TIP3    H260572   0.872   3.727  11.566 -0.0700  0.1861  0.8386
13053TIP3   OH260573   2.888   1.129  16.529  0.3879 -0.4167 -0.3247
13053TIP3    H160574   2.878   1.141  16.624  0.7353  1.5115 -0.5170
13053TIP3    H260575   2.821   1.064  16.507  0.5434 -1.1612  1.2940
13054TIP3   OH260576   4.787   1.926   5.647  0.0242 -0.3523 -0.6175
13054TIP3    H160577   4.868   1.943   5.598 -0.2891  0.2727 -0.9282
13054TIP3    H260578   4.785   1.993   5.714 -0.0644 -0.5819 -0.3911
13055TIP3   OH260579   3.110   4.332  15.991 -0.8994  0.0392  0.0545
13055TIP3    H160580   3.116   4.421  16.027 -1.4472 -0.5343  1.6046
13055TIP3    H260581   3.141   4.275  16.061  0.1678 -0.9619 -1.2021
13056TIP3   OH260582   3.910   3.542  10.948  0.1115  0.8173  0.0936
13056TIP3    H160583   3.937   3.632  10.962  0.8407  0.6689 -0.3344
13056TIP3    H260584   3.874   3.541  10.859  0.1489  0.6774  0.0789
13057TIP3   OH260585   6.603   6.087  11.855  0.1219  0.3600 -0.2304
13057TIP3    H160586   6.656   6.035  11.916 -0.6677  0.5134  0.5866
13057TIP3    H260587   6.521   6.104  11.902  0.0282  1.6017 -0.8387
13058TIP3   OH260588   0.468   3.368  13.553 -0.0697 -0.2890 -0.3614
13058TIP3    H160589   0.405   3.296  13.552 -1.2440  0.7201  0.0860
13058TIP3    H260590   0.535   3.340  13.615 -2.1433  0.3213  2.2572
13059TIP3   OH260591   5.856   3.441  12.554  0.0908  0.5344  0.1055
13059TIP3    H160592   5.769   3.403  12.539  0.8155 -1.1744  0.1076
13059TIP3    H260593   5.896   3.443  12.468  1.3750 -2.0596  0.6034
13060TIP3   OH260594   4.771   1.473  14.403 -0.4304 -0.6019 -0.2950
13060TIP3    H160595   4.697   1.534  14.403  0.1262  0.0700 -0.5974
13060TIP3    H260596   4.770   1.435  14.491 -0.8956 -0.3031 -0.1680
13061TIP3   OH260597   1.056   2.997   5.911  0.0717  0.0434 -0.1312
13061TIP3    H160598   0.983   2.938   5.894 -0.5995  0.5047  1.0659
13061TIP3    H260599   1.083   2.976   6.000  0.4698  0.8698 -0.0557
13062TIP3   OH260600   0.907   2.333  12.810  0.2896  0.4979  0.1730
13062TIP3    H160601   0.980   2.309  12.868 -1.6374  0.2751  2.5491
13062TIP3    H260602   0.842   2.371  12.868 -1.0661  1.7243 -2.1000
13063TIP3   OH260603   5.316   6.109   2.678 -0.0945  0.6762  0.2985
13063TIP3    H160604   5.358   6.033   2.718 -0.7752  0.4028  0.5046
13063TIP3    H260605   5.313   6.087   2.584 -1.0560  0.0635  0.4612
13064TIP3   OH260606   4.239   4.935   5.640 -0.4580 -0.1112 -0.2556
13064TIP3    H160607   4.326   4.976   5.641  1.0751 -3.2207  0.5544
13064TIP3    H260608   4.250   4.857   5.586 -2.3597 -1.3713  1.1062
13065TIP3   OH260609   5.259   0.365  14.667  0.4206  0.0100  0.2373
13065TIP3    H160610   5.224   0.453  14.657 -0.0446 -0.3202 -1.2333
13065TIP3    H260611   5.346   0.369  14.627  0.4701 -0.1438  0.3299
13066TIP3   OH260612   1.159   5.475  15.870 -0.0125  0.4304 -0.3944
13066TIP3    H160613   1.207   5.495  15.950  2.2654  0.8365 -1.8258
13066TIP3    H260614   1.128   5.386  15.883  0.5550  0.3918  0.8310
13067TIP3   OH260615   1.721   0.823   0.783  0.3179 -0.0642  0.0988
13067TIP3    H160616   1.789   0.791   0.723  0.5317  0.3688  0.1099
13067TIP3    H260617   1.751   0.798   0.870  1.0440  1.1721  0.2046
13068TIP3   OH260618   0.681   3.540   2.318 -0.5375 -0.6271 -0.3092
13068TIP3    H160619   0.696   3.571   2.229 -0.8749 -0.3166 -0.2608
13068TIP3    H260620   0.692   3.445   2.313 -0.0424 -0.5572 -0.5742
13069TIP3   OH260621   5.291   5.766   0.397  0.1602  0.6200 -0.2143
13069TIP3    H160622   5.282   5.748   0.303  1.1748  0.2585 -0.2562
13069TIP3    H260623   5.279   5.680   0.438  1.3645  0.4700 -0.1451
13070TIP3   OH260624   0.878   0.642   2.197  0.2169  0.2688  1.0531
13070TIP3    H160625   0.856   0.557   2.234 -0.9217  0.9170  1.8993
13070TIP3    H260626   0.809   0.700   2.228  0.0469  1.1440 -0.8863
13071TIP3   OH260627   4.913   0.731   2.658 -0.2224  0.0831 -0.2480
13071TIP3    H160628   4.904   0.746   2.752  0.4313  0.5906 -0.2623
13071TIP3    H260629   4.833   0.684   2.633 -0.3431 -0.1553  0.5800
13072TIP3   OH260630   6.385   2.915   4.071 -0.1908 -0.0968  0.5734
13072TIP3    H160631   6.478   2.928   4.091 -0.2799  0.4362  0.6579
13072TIP3    H260632   6.341   2.927   4.156 -0.2539 -1.2540  0.7089
13073TIP3   OH260633   6.230   1.912   2.208 -0.1889 -0.1227 -0.2419
13073TIP3    H160634   6.304   1.860   2.239  0.8771  2.1518  1.1285
13073TIP3    H260635   6.269   1.975   2.148 -1.0680  0.8025  0.1516
13074TIP3   OH260636   0.917   2.047   4.088  0.2519 -0.3040  0.3286
13074TIP3    H160637   0.830   2.009   4.096 -0.3757  1.2499  1.1150
13074TIP3    H260638   0.954   2.040   4.177  0.7903 -0.6476  0.0777
13075TIP3   OH260639   6.402   3.874  17.014 -0.5411  0.7081 -0.0136
13075TIP3    H160640   6.468   3.835  17.071 -0.8510  2.7914  1.8794
13075TIP3    H260641   6.350   3.801  16.983  2.4805 -0.9564 -1.3382
13076TIP3   OH260642   5.287   0.522   1.575  0.0486 -0.3119 -0.1442
13076TIP3    H160643   5.321   0.599   1.621  1.9131 -0.4465 -1.2469
13076TIP3    H260644   5.349   0.453   1.596 -1.1239 -1.3025  0.0922
13077TIP3   OH260645   0.231   6.030   2.007  0.2522 -0.0488  0.3780
13077TIP3    H160646   0.157   6.087   2.026  0.8713  1.4771 -1.6648
13077TIP3    H260647   0.237   6.030   1.912  1.0351 -2.5682  0.3880
13078TIP3   OH260648   0.924   5.611   0.151 -0.0833  0.1029 -0.1907
13078TIP3    H160649   0.989   5.541   0.138  1.6533  1.6868 -0.1777
13078TIP3    H260650   0.882   5.589   0.235  3.0898  1.0965  1.7250
13079TIP3   OH260651   4.999   4.828   4.275 -0.2228 -0.1731 -0.2239
13079TIP3    H160652   4.957   4.813   4.190 -0.4974 -1.2773  0.0988
13079TIP3    H260653   4.974   4.752   4.327 -1.5264  1.3548  1.4321
13080TIP3   OH260654   2.994   2.825  12.594  0.3710 -0.5238  0.0722
13080TIP3    H160655   3.052   2.859  12.526  1.0315 -0.4587  0.6683
13080TIP3    H260656   3.022   2.870  12.674 -1.4628  0.6229  0.0975
13081TIP3   OH260657   3.194   6.091  11.436  0.6276  0.3679 -0.1449
13081TIP3    H160658   3.099   6.085  11.430  0.6949  0.2252 -1.1228
13081TIP3    H260659   3.211   6.103  11.529 -0.5285  3.2536 -0.2427
13082TIP3   OH260660   2.712   6.243  16.964 -0.0984  0.5473  0.1768
13082TIP3    H160661   2.778   6.269  17.028  0.0673  0.2893  0.1150
13082TIP3    H260662   2.682   6.325  16.925  0.3344  0.6491  0.0573
13083TIP3   OH260663   0.864   6.275  11.285 -0.6117  0.2360  0.0752
13083TIP3    H160664   0.900   6.362  11.305  0.0163 -0.1441  0.6235
13083TIP3    H260665   0.877   6.264  11.191  0.1437  0.3508  0.1690
13084TIP3   OH260666   2.988   6.535   3.726  0.1903 -0.8552 -0.2054
13084TIP3    H160667   2.900   6.545   3.691 -0.7895 -1.1666  2.0778
13084TIP3    H260668   3.040   6.600   3.679 -2.3234  2.8277  1.8831
13085TIP3   OH260669   5.925   1.340  15.477 -0.0097  0.7397  0.3462
13085TIP3    H160670   5.917   1.418  15.532 -0.3889  0.4125  0.7560
13085TIP3    H260671   5.936   1.374  15.388  3.6513  1.3317  0.9459
13086TIP3   OH260672   1.450   6.346   0.552 -0.3427  0.5772 -0.0361
13086TIP3    H160673   1.510   6.324   0.623 -0.3059  0.3786 -0.1316
13086TIP3    H260674   1.443   6.267   0.500  1.1171  1.2895 -1.3536
13087TIP3   OH260675   2.222   4.715   3.565 -0.7701 -0.4882 -0.4650
13087TIP3    H160676   2.250   4.624   3.579  0.1769 -0.5007 -2.2763
13087TIP3    H260677   2.129   4.708   3.543 -0.9671 -0.9135  0.4692
13088TIP3   OH260678   0.753   4.254  11.145 -0.2513  0.8383 -0.0791
13088TIP3    H160679   0.683   4.197  11.115 -0.7808  1.6605 -0.4150
13088TIP3    H260680   0.769   4.226  11.236  0.3791 -0.6920 -0.6422
13089TIP3   OH260681   5.802   3.545  16.602 -0.2112 -0.1049  0.0192
13089TIP3    H160682   5.726   3.487  16.595  0.4271 -1.0451  0.7511
13089TIP3    H260683   5.764   3.632  16.616 -1.1590 -0.5286  0.1472
13090TIP3   OH260684   2.744   6.545  16.348  0.3913 -0.2215  0.0513
13090TIP3    H160685   2.808   6.502  16.404 -0.8553 -0.3311  1.4105
13090TIP3    H260686   2.699   6.606  16.406 -1.5636 -1.0174 -0.6079
13091TIP3   OH260687   5.777   1.638   2.285 -0.3556  0.4222 -0.6336
13091TIP3    H160688   5.722   1.685   2.348  1.4922 -0.7916  1.9728
13091TIP3    H260689   5.853   1.696   2.271 -0.2490  0.2171 -0.9233
13092TIP3   OH260690   4.981   1.356  13.353 -0.1978  0.1808 -0.6199
13092TIP3    H160691   5.026   1.404  13.284 -0.4518 -0.1714 -1.0354
13092TIP3    H260692   4.933   1.287  13.307 -1.0740  0.4774 -0.1733
13093TIP3   OH260693   6.505   3.576   5.218  0.4498  0.3956  0.2947
13093TIP3    H160694   6.450   3.593   5.141 -0.1048 -3.8565 -0.3275
13093TIP3    H260695   6.445   3.578   5.292  0.2465  0.3093  0.1326
13094TIP3   OH260696   1.584   4.381   4.987 -0.3119  0.5817  0.1165
13094TIP3    H160697   1.655   4.360   4.926 -1.8376 -0.4524 -1.3443
13094TIP3    H260698   1.512   4.408   4.930 -0.8508  2.3779  1.6208
13095TIP3   OH260699   3.680   2.507  12.323  0.2515  0.2946 -0.6431
13095TIP3    H160700   3.770   2.475  12.329  0.3159  0.5326 -0.3701
13095TIP3    H260701   3.678   2.555  12.240 -0.2396 -1.6702 -1.8175
13096TIP3   OH260702   4.739   3.608  15.303  0.2240 -0.0387 -0.4534
13096TIP3    H160703   4.825   3.584  15.269  0.0269 -0.3573 -0.7211
13096TIP3    H260704   4.714   3.534  15.358  0.9992  0.8968  1.2388
13097TIP3   OH260705   2.782   5.138   2.079  0.0173  0.4860  0.1743
13097TIP3    H160706   2.828   5.190   2.013 -0.6038  1.5916  0.5950
13097TIP3    H260707   2.831   5.154   2.160  2.8192 -3.5149 -0.5934
13098TIP3   OH260708   6.078   2.558   1.208  0.1660 -0.2680 -0.3777
13098TIP3    H160709   6.027   2.502   1.149 -2.5431  0.9841  0.7083
13098TIP3    H260710   6.072   2.645   1.170 -1.9035  0.6202  1.8675
13099TIP3   OH260711   0.140   3.224   3.864  0.4312 -0.0953  0.0864
13099TIP3    H160712   0.201   3.170   3.813 -0.4856 -0.4828 -0.6259
13099TIP3    H260713   0.073   3.250   3.801 -0.2973  0.0746  0.9212
13100TIP3   OH260714   1.873   0.309   1.769  0.2283  0.2200 -0.1615
13100TIP3    H160715   1.844   0.334   1.857  2.1807  0.4070  0.4613
13100TIP3    H260716   1.904   0.391   1.730  2.0992 -0.3371  0.0827
13101TIP3   OH260717   3.439   5.374   5.597 -0.2303 -0.4202 -0.0589
13101TIP3    H160718   3.421   5.429   5.521  3.0717  2.5503  1.1965
13101TIP3    H260719   3.403   5.423   5.671  2.9747  0.3091  1.1058
13102TIP3   OH260720   0.037   5.633   3.821 -0.2752  0.5579 -0.2639
13102TIP3    H160721   0.052   5.550   3.866 -0.5049 -0.4182 -1.9285
13102TIP3    H260722  -0.041   5.616   3.767  0.5391  1.3996 -1.7180
13103TIP3   OH260723   0.602   5.530   6.041  0.5875 -0.3328  0.2064
13103TIP3    H160724   0.534   5.597   6.039  1.0731  0.1354 -2.0340
13103TIP3    H260725   0.674   5.571   6.090  0.1554  0.0834  0.4935
13104TIP3   OH260726   0.365   0.185  14.205  0.2293  0.1659 -0.0992
13104TIP3    H160727   0.460   0.177  14.212  0.1488 -0.4431  0.3558
13104TIP3    H260728   0.337   0.214  14.291 -0.0225  0.0751 -0.1504
13105TIP3   OH260729   0.590   3.497   0.924 -0.7025 -0.3765 -0.2042
13105TIP3    H160730   0.632   3.562   0.868 -1.2955 -1.0431 -1.4596
13105TIP3    H260731   0.542   3.442   0.863  0.8505 -2.8017  0.6969
13106TIP3   OH260732   2.883   6.271  17.192  0.1519 -0.5188 -0.1382
13106TIP3    H160733   2.971   6.236  17.210  0.1116 -0.5874 -0.0754
13106TIP3    H260734   2.824   6.215  17.243  0.1193 -0.1353  0.2471
13107TIP3   OH260735   1.023   5.202  17.073  0.3442  0.2991 -0.7074
13107TIP3    H160736   1.025   5.174  16.982  2.3011 -1.6943 -0.0875
13107TIP3    H260737   1.088   5.271  17.079 -1.3252  1.9468 -1.2695
13108TIP3   OH260738   4.679   1.492   5.121  0.0221 -0.3273 -0.0501
13108TIP3    H160739   4.722   1.454   5.198 -0.7666 -0.8856  0.1219
13108TIP3    H260740   4.617   1.556   5.157 -0.3837 -0.6260 -0.2112
13109TIP3   OH260741   3.829   3.961   2.303 -0.2280 -0.3750 -0.1336
13109TIP3    H160742   3.767   3.980   2.373  1.2713 -1.3198  1.5086
13109TIP3    H260743   3.844   4.045   2.261 -1.7559  0.0610  0.1537
13110TIP3   OH260744   3.505   1.509  15.506  0.3293  0.4374  0.4499
13110TIP3    H160745   3.429   1.460  15.475 -0.5791  1.2628  1.2956
13110TIP3    H260746   3.576   1.484  15.448 -1.2646  1.7897 -2.2015
13111TIP3   OH260747   2.203   3.196  12.767  0.2831  0.5314 -0.8088
13111TIP3    H160748   2.132   3.179  12.706 -0.6121  2.9214 -0.4856
13111TIP3    H260749   2.179   3.148  12.846  1.1944 -2.1518 -2.1029
13112TIP3   OH260750   6.086   1.056   2.193  0.1341  0.0334 -0.5166
13112TIP3    H160751   5.992   1.076   2.191  0.1382 -0.0205 -1.4224
13112TIP3    H260752   6.128   1.131   2.151  0.4129 -0.3963 -1.0134
13113TIP3   OH260753   6.499   4.475   3.491 -0.2934 -0.8370 -0.2390
13113TIP3    H160754   6.442   4.516   3.426 -0.1753  2.8200  1.8197
13113TIP3    H260755   6.439   4.434   3.553 -0.5670  0.0621  0.0914
13114TIP3   OH260756   6.648   1.262   4.853  0.3231 -0.2582 -0.2151
13114TIP3    H160757   6.646   1.350   4.889  3.1146 -0.2952  0.1548
13114TIP3    H260758   6.576   1.259   4.791  0.2710  2.3097 -0.3094
13115TIP3   OH260759   5.161   2.677   6.486  0.1025 -0.7414 -0.2589
13115TIP3    H160760   5.211   2.729   6.422  0.7535  0.3188  1.0937
13115TIP3    H260761   5.218   2.672   6.562 -0.2528 -2.8747 -0.1115
13116TIP3   OH260762   3.945   6.150   3.817  0.0138  0.6695  1.0135
13116TIP3    H160763   3.949   6.061   3.780 -2.5003  1.0254 -0.2229
13116TIP3    H260764   3.865   6.150   3.870  0.5307  1.9105  1.8092
13117TIP3   OH260765   4.227   1.889   0.838  0.2700 -0.3444  0.0869
13117TIP3    H160766   4.152   1.946   0.820  1.0742  0.6982 -0.0311
13117TIP3    H260767   4.232   1.885   0.933 -0.3732 -1.0016  0.0928
13118TIP3   OH260768   1.917   4.836  14.773  0.4501  0.0973 -0.1087
13118TIP3    H160769   1.997   4.831  14.721  1.0491 -0.2862  0.8418
13118TIP3    H260770   1.944   4.812  14.862 -0.3645  1.7547  0.6084
13119TIP3   OH260771   1.615   1.783  10.765  0.1888  0.1913  0.4727
13119TIP3    H160772   1.532   1.741  10.745 -0.1625  1.6045 -1.1624
13119TIP3    H260773   1.669   1.767  10.687  0.3336  1.9859  0.1801
13120TIP3   OH260774   6.252   0.135  11.842  0.2489  0.2051 -0.0785
13120TIP3    H160775   6.194   0.080  11.789  0.7914  0.4081 -0.8876
13120TIP3    H260776   6.278   0.206  11.783 -0.3408  1.2723  0.9133
13121TIP3   OH260777   5.481   1.250   1.575  0.2683  0.5095 -1.0148
13121TIP3    H160778   5.536   1.171   1.574  0.0424  0.3514 -2.5181
13121TIP3    H260779   5.543   1.322   1.569  0.7130  0.6462  3.7493
13122TIP3   OH260780   5.554   6.051  14.380  0.0577 -0.2110 -0.4104
13122TIP3    H160781   5.524   5.965  14.351  1.6465 -1.1852  0.7442
13122TIP3    H260782   5.614   6.032  14.453 -0.2163  1.9148  0.4031
13123TIP3   OH260783   1.754   1.962  10.911 -0.3396  0.2728  0.3120
13123TIP3    H160784   1.814   1.976  10.838 -0.2673  1.0586  0.5238
13123TIP3    H260785   1.693   1.896  10.878 -0.8688  1.2891 -0.8075
13124TIP3   OH260786   2.555   0.316  15.364  0.4950 -0.3294  0.4749
13124TIP3    H160787   2.625   0.380  15.375  0.7464 -0.9350  2.5105
13124TIP3    H260788   2.534   0.288  15.453 -1.8238 -0.7137 -0.1719
13125TIP3   OH260789   4.622   2.099  14.375  0.4963  0.3466  0.5125
13125TIP3    H160790   4.637   2.054  14.458 -0.2643 -0.7782  0.0590
13125TIP3    H260791   4.564   2.172  14.397  0.7790  0.3996  1.0689
13126TIP3   OH260792   3.366   1.516   1.602 -0.2308  0.0738  0.1982
13126TIP3    H160793   3.398   1.475   1.522 -0.3120  0.6508 -0.1356
13126TIP3    H260794   3.301   1.580   1.571  0.4442  0.9868  0.6530
13127TIP3   OH260795   3.429   1.894  13.010  0.3564  0.1457  0.3044
13127TIP3    H160796   3.355   1.870  13.066 -0.2220  0.3665 -0.3464
13127TIP3    H260797   3.490   1.821  13.018 -0.1718 -0.2897  0.4365
13128TIP3   OH260798   6.583   4.402   0.116 -0.2120  0.1612  0.3730
13128TIP3    H160799   6.511   4.425   0.175 -0.8683 -1.5701  0.2584
13128TIP3    H260800   6.628   4.330   0.160  0.1265 -0.2188 -0.5891
13129TIP3   OH260801   1.852   4.321  12.485 -0.0754 -0.2005 -0.8444
13129TIP3    H160802   1.790   4.280  12.546 -1.3263  1.7415 -0.7706
13129TIP3    H260803   1.908   4.375  12.541  1.2429 -1.3592 -1.0032
13130TIP3   OH260804   1.894   5.980  15.205  0.1953  0.5911 -0.0393
13130TIP3    H160805   1.818   5.929  15.234  0.0431  2.0323  2.2619
13130TIP3    H260806   1.966   5.918  15.204 -0.7774 -0.5548 -1.1994
13131TIP3   OH260807   1.521   3.107   3.432 -0.1754 -0.0750  0.1210
13131TIP3    H160808   1.605   3.065   3.417  0.9269  1.9286  0.5233
13131TIP3    H260809   1.529   3.193   3.390 -1.5459  0.6632  1.3175
13132TIP3   OH260810   2.521   0.440  13.843 -0.2554  0.0192  0.3930
13132TIP3    H160811   2.511   0.348  13.867  1.3492  0.0398  1.1995
13132TIP3    H260812   2.457   0.486  13.899 -0.6829 -0.5411  0.3741
13133TIP3   OH260813   6.276   4.337  12.774  0.3939  0.2103  0.3066
13133TIP3    H160814   6.241   4.422  12.798  1.2452  1.0878 -1.4631
13133TIP3    H260815   6.229   4.275  12.830 -2.2552  1.5670 -0.3188
13134TIP3   OH260816   1.236   4.717  12.442  0.1662  0.5255 -0.1687
13134TIP3    H160817   1.299   4.697  12.373 -0.8077  1.2902 -1.3004
13134TIP3    H260818   1.207   4.632  12.475  2.1565  0.1676  0.7233
13135TIP3   OH260819   0.907   3.037   4.796 -0.3306  0.2311  0.0991
13135TIP3    H160820   0.875   3.116   4.839 -0.7850  1.7103 -2.8542
13135TIP3    H260821   1.000   3.034   4.817 -0.5651  0.7975  1.3096
13136TIP3   OH260822   1.818   6.415   1.839 -0.0668 -0.5146  0.0851
13136TIP3    H160823   1.829   6.330   1.880  1.1554 -0.2942  0.2099
13136TIP3    H260824   1.838   6.401   1.747  0.1171 -0.3645  0.1015
13137TIP3   OH260825   5.495   0.804   3.139  0.6160  0.2261  0.1974
13137TIP3    H160826   5.511   0.741   3.069  0.1199 -0.2363  0.4980
13137TIP3    H260827   5.444   0.874   3.098  2.3242  1.1093 -0.4690
13138TIP3   OH260828   1.270   1.958  16.566  0.2165  0.7868 -0.7469
13138TIP3    H160829   1.200   1.999  16.617 -0.3261 -0.7683 -0.2190
13138TIP3    H260830   1.256   1.989  16.477 -0.9977  0.6772 -0.6014
13139TIP3   OH260831   0.875   0.630   1.322 -0.2777  0.1997 -0.1902
13139TIP3    H160832   0.850   0.677   1.242 -0.2044 -1.4062 -1.1856
13139TIP3    H260833   0.968   0.612   1.311 -0.3646 -0.4184  0.0368
13140TIP3   OH260834   1.156   4.690  16.446  0.2721  0.1529 -0.1233
13140TIP3    H160835   1.080   4.677  16.389 -0.8283 -0.9620  1.5668
13140TIP3    H260836   1.209   4.612  16.432  1.4295  1.2069 -1.7541
13141TIP3   OH260837   2.713   1.021   3.519 -0.6966  0.4830  0.0445
13141TIP3    H160838   2.806   1.010   3.537 -0.8995 -3.1015 -0.7688
13141TIP3    H260839   2.687   1.096   3.573  2.8982  2.4469 -0.7716
13142TIP3   OH260840   3.336   5.582  14.672 -0.0696 -0.0611  0.2964
13142TIP3    H160841   3.360   5.551  14.759  0.6937  1.1645  0.5278
13142TIP3    H260842   3.247   5.617  14.682 -0.3258 -0.7247  0.3778
13143TIP3   OH260843   5.470   0.150  13.581  0.0959  0.6247  0.1014
13143TIP3    H160844   5.478   0.054  13.584 -1.0197  0.5166 -0.4050
13143TIP3    H260845   5.427   0.168  13.498  2.2358  1.7046 -0.8024
13144TIP3   OH260846   0.834   5.988  13.214 -0.1108  0.1035 -0.4711
13144TIP3    H160847   0.886   5.925  13.164  0.2655 -0.8430  1.0761
13144TIP3    H260848   0.743   5.959  13.203 -0.0976  0.3214 -1.1766
13145TIP3   OH260849   0.010   5.508  16.346  1.4948 -0.0389 -0.4085
13145TIP3    H160850  -0.015   5.592  16.309  0.2834 -0.0579  0.3331
13145TIP3    H260851   0.061   5.529  16.424  1.9709 -0.0022 -0.7252
13146TIP3   OH260852   5.883   4.575   1.353 -0.4361  0.3385  0.2296
13146TIP3    H160853   5.967   4.574   1.308 -0.2726 -0.2397  0.5396
13146TIP3    H260854   5.896   4.518   1.430 -0.9459  0.6695  0.5652
13147TIP3   OH260855   0.783   5.746  15.744 -0.5959  0.2658  0.0383
13147TIP3    H160856   0.691   5.720  15.747 -0.4745 -0.1619  0.1029
13147TIP3    H260857   0.781   5.837  15.715 -1.2690  1.6149  4.0152
13148TIP3   OH260858   5.887   0.152  11.261  0.7706  0.1755 -0.4166
13148TIP3    H160859   5.870   0.120  11.173 -0.5867  1.0645 -0.4842
13148TIP3    H260860   5.868   0.245  11.258  1.6238  0.4089  0.5912
13149TIP3   OH260861   3.684   6.440  11.410 -0.1963 -0.6567 -0.0476
13149TIP3    H160862   3.596   6.430  11.373 -1.1513  0.4474  1.8757
13149TIP3    H260863   3.708   6.531  11.390 -0.1436 -0.4806  0.8023
13150TIP3   OH260864   2.301   3.203   6.071 -0.1884  0.3005  0.1189
13150TIP3    H160865   2.285   3.152   5.992 -0.4778 -1.4374  1.2756
13150TIP3    H260866   2.344   3.283   6.040 -0.2693 -0.3740 -1.7740
13151TIP3   OH260867   4.560   6.016   2.175  0.4166  0.1993 -0.0769
13151TIP3    H160868   4.510   6.087   2.134  0.3733  0.3773  0.2824
13151TIP3    H260869   4.649   6.050   2.183  0.6675 -0.2284 -0.9907
13152TIP3   OH260870   4.601   6.658  12.635 -0.1232  0.2009  0.1103
13152TIP3    H160871   4.541   6.733  12.643 -1.0307 -0.3991 -0.9266
13152TIP3    H260872   4.556   6.587  12.681 -0.2641 -0.2848 -0.7669
13153TIP3   OH260873   6.232   6.587   4.626 -0.0994  0.0696  0.0227
13153TIP3    H160874   6.143   6.554   4.619 -0.1945  0.4617 -0.6982
13153TIP3    H260875   6.259   6.565   4.715 -0.6304 -0.7629 -0.0126
13154TIP3   OH260876   1.671   1.218   2.394 -0.2289 -0.0861  0.0423
13154TIP3    H160877   1.593   1.196   2.344  0.2981  0.5758 -1.1007
13154TIP3    H260878   1.740   1.227   2.328  1.0778 -1.8243  1.1376
13155TIP3   OH260879   0.902   2.993  14.981 -0.2733  0.1174 -0.0563
13155TIP3    H160880   0.863   2.906  14.970 -1.6941  0.5001  1.6346
13155TIP3    H260881   0.837   3.053  14.945  0.4454  0.5251 -0.6840
13156TIP3   OH260882   5.681   6.585  10.780 -0.1267 -0.5297  0.2779
13156TIP3    H160883   5.628   6.594  10.859 -1.2103  2.2629 -0.7037
13156TIP3    H260884   5.757   6.641  10.794 -0.6601  0.5213 -0.8766
13157TIP3   OH260885   0.951   3.997  16.560  0.1323 -0.2254 -0.6209
13157TIP3    H160886   0.875   3.939  16.558  0.0830 -0.1522 -1.2061
13157TIP3    H260887   0.947   4.040  16.645 -0.7005  0.0581 -0.7989
13158TIP3   OH260888   6.009   5.359  15.686  0.0705 -0.2233 -0.1475
13158TIP3    H160889   5.936   5.341  15.745  2.0873 -1.3593  2.0876
13158TIP3    H260890   6.079   5.390  15.744  0.6006  3.2428 -2.5100
13159TIP3   OH260891   4.452   4.359  11.265  1.3158  0.4326  0.6587
13159TIP3    H160892   4.427   4.409  11.187  1.1732 -0.9034 -0.1653
13159TIP3    H260893   4.377   4.367  11.324  1.0692  0.7266  0.3097
13160TIP3   OH260894   2.951   2.916   1.221  0.2498  0.8842  0.1758
13160TIP3    H160895   3.011   2.983   1.189  2.9666 -1.0378  1.1146
13160TIP3    H260896   2.956   2.846   1.156 -0.8379  0.6295  0.3563
13161TIP3   OH260897   4.951   3.800   1.540  0.3154 -0.3352 -0.3875
13161TIP3    H160898   4.964   3.710   1.571  2.2734  0.3459  0.8521
13161TIP3    H260899   4.993   3.803   1.455  1.0851 -0.3324 -0.0051
13162TIP3   OH260900   1.270   5.459   3.728 -0.1569  0.2268  0.0595
13162TIP3    H160901   1.279   5.477   3.822 -1.3164 -0.7145  0.3652
13162TIP3    H260902   1.179   5.480   3.708 -0.1147 -0.2769 -0.6824
13163TIP3   OH260903   1.283   2.089   2.699 -0.1920 -0.2555  0.4761
13163TIP3    H160904   1.239   2.054   2.621  4.2406 -1.4374 -1.6624
13163TIP3    H260905   1.249   2.178   2.709 -1.8884 -0.5998 -1.9196
13164TIP3   OH260906   4.151   4.139   1.408 -0.0215 -0.3235 -0.3742
13164TIP3    H160907   4.115   4.128   1.496  0.8209 -0.5692 -0.0569
13164TIP3    H260908   4.216   4.208   1.417  1.3170 -1.5536 -0.4223
13165TIP3   OH260909   1.863   5.976   0.691  0.1314  0.3696 -0.3892
13165TIP3    H160910   1.909   5.893   0.685  1.0991  0.9839 -1.8189
13165TIP3    H260911   1.801   5.974   0.618  0.0302  0.8324 -0.3161
13166TIP3   OH260912   2.985   5.924   2.597 -0.1340 -0.3151  0.4474
13166TIP3    H160913   2.968   5.835   2.566  1.2452  0.1029 -1.6134
13166TIP3    H260914   2.934   5.980   2.538 -1.2932  0.2590  1.9620
13167TIP3   OH260915   3.239   1.907  13.639  0.0319  0.8013 -0.3093
13167TIP3    H160916   3.229   1.996  13.607 -1.6982  0.6028 -0.3946
13167TIP3    H260917   3.185   1.854  13.580  3.0802 -0.7082 -1.8809
13168TIP3   OH260918   4.443   3.072   0.143 -0.2424 -0.8180  0.3204
13168TIP3    H160919   4.365   3.095   0.092 -0.0117 -0.5426  0.0856
13168TIP3    H260920   4.437   2.977   0.155 -0.2686 -0.8947 -0.2792
13169TIP3   OH260921   1.713   4.053  12.427 -0.2385  0.4952 -0.3927
13169TIP3    H160922   1.621   4.059  12.401 -0.4252  0.1487  0.1853
13169TIP3    H260923   1.719   4.105  12.507  0.3391  1.5727 -1.1184
13170TIP3   OH260924   6.486   5.590   4.054  0.8745  0.2602  0.3072
13170TIP3    H160925   6.489   5.506   4.009 -0.3354  0.0835  0.5472
13170TIP3    H260926   6.496   5.655   3.984  1.2205 -0.0659  0.0519
13171TIP3   OH260927   5.506   2.699   0.670  0.1532  0.2263 -0.7816
13171TIP3    H160928   5.591   2.736   0.645  1.2489 -1.0420  0.8570
13171TIP3    H260929   5.498   2.620   0.617  2.3242 -2.2852  2.4129
13172TIP3   OH260930   2.606   4.546   4.420 -0.0026 -0.7709  0.0575
13172TIP3    H160931   2.543   4.572   4.353  0.9224  1.0551 -0.1307
13172TIP3    H260932   2.654   4.473   4.381  1.1420  0.8566 -1.6637
13173TIP3   OH260933   3.608   0.915  12.506 -0.0894 -0.1413  0.4137
13173TIP3    H160934   3.653   0.988  12.549  0.2864 -0.4366  0.5351
13173TIP3    H260935   3.624   0.928  12.413 -0.9050  0.5012  0.3647
13174TIP3   OH260936   0.265   3.447   5.231 -0.0035 -0.2496  1.0930
13174TIP3    H160937   0.171   3.449   5.211  0.0990  0.6822  0.6857
13174TIP3    H260938   0.305   3.500   5.162  0.8740 -1.0126  1.0074
13175TIP3   OH260939   4.684   5.634   2.251 -0.1349  0.2170  0.0830
13175TIP3    H160940   4.752   5.698   2.228  1.0699 -1.1356 -0.2413
13175TIP3    H260941   4.710   5.601   2.336  1.0258 -2.1175 -1.1365
13176TIP3   OH260942   0.520   4.688  16.879 -0.4760 -0.0329  0.4913
13176TIP3    H160943   0.481   4.767  16.842  0.9943  0.1948 -0.6476
13176TIP3    H260944   0.480   4.678  16.965 -3.1188  0.0877 -0.6815
13177TIP3   OH260945   2.361   2.453   1.464  0.2670 -0.0812  0.2906
13177TIP3    H160946   2.409   2.504   1.398  0.1510 -0.8773 -0.4223
13177TIP3    H260947   2.283   2.506   1.482  0.2199  0.0723 -0.3298
13178TIP3   OH260948   3.096   5.928  10.852 -0.8737 -0.1436 -0.0546
13178TIP3    H160949   3.048   5.847  10.867 -2.0913 -0.1260 -3.2955
13178TIP3    H260950   3.187   5.901  10.843 -1.2642 -1.1641 -1.0227
13179TIP3   OH260951   3.567   0.363  15.944  0.3378  0.6873  0.2204
13179TIP3    H160952   3.595   0.376  15.853  0.3122 -2.6751 -0.3387
13179TIP3    H260953   3.630   0.300  15.980 -0.7869  0.5071  1.9413
13180TIP3   OH260954   3.657   6.262  16.737 -0.0141  0.2764  0.2383
13180TIP3    H160955   3.569   6.234  16.712  0.2011 -0.6420  0.4945
13180TIP3    H260956   3.661   6.354  16.711 -1.4051  0.6087  1.1609
13181TIP3   OH260957   5.070   1.851   1.460  0.0593 -0.0097 -0.3366
13181TIP3    H160958   5.137   1.844   1.392  0.5668 -0.3777  0.2003
13181TIP3    H260959   5.103   1.799   1.532 -1.6318 -1.6572 -0.7186
13182TIP3   OH260960   5.065   3.028  14.876  0.7779 -0.2048 -0.1492
13182TIP3    H160961   5.109   3.015  14.792 -1.5410 -0.7812 -1.2989
13182TIP3    H260962   4.993   3.088  14.857 -1.0228 -1.9249  0.9804
13183TIP3   OH260963   4.532   4.550  15.637  0.0246 -0.4018 -0.0552
13183TIP3    H160964   4.547   4.606  15.560  0.2746 -0.2098  0.1342
13183TIP3    H260965   4.479   4.604  15.695 -0.7914 -0.8168 -0.4106
13184TIP3   OH260966   6.679   1.667  12.301  0.1120  0.4003  0.5610
13184TIP3    H160967   6.711   1.732  12.239  0.8520 -0.3602  0.1234
13184TIP3    H260968   6.752   1.605  12.310 -0.8773 -0.8159  0.3399
13185TIP3   OH260969   2.894   0.301   1.006  0.1106  0.2751  0.3195
13185TIP3    H160970   2.899   0.223   1.062 -0.9599  0.3681  0.5609
13185TIP3    H260971   2.901   0.375   1.066  0.4618  0.3730  0.1617
13186TIP3   OH260972   4.824   5.334   2.600  0.6484  0.3967  0.0200
13186TIP3    H160973   4.780   5.412   2.566 -1.4927  0.0960  1.9566
13186TIP3    H260974   4.882   5.368   2.669  1.1700  0.4687 -0.4510
13187TIP3   OH260975   1.843   5.248  15.361  0.2022  0.7438 -0.1647
13187TIP3    H160976   1.796   5.186  15.417 -0.8229  1.1138 -0.6151
13187TIP3    H260977   1.828   5.333  15.401  2.2951  0.6381  0.9311
13188TIP3   OH260978   1.157   6.018  16.471 -0.2432 -0.5654  0.1560
13188TIP3    H160979   1.179   6.105  16.505 -0.7986 -0.1078 -0.6335
13188TIP3    H260980   1.235   5.965  16.487  0.2737  0.2091  0.2018
13189TIP3   OH260981   5.236   6.142  16.662  0.0586  0.4116 -0.0373
13189TIP3    H160982   5.259   6.118  16.752 -0.9388 -3.1539 -0.6367
13189TIP3    H260983   5.310   6.113  16.610 -0.5160  0.0046 -0.6346
13190TIP3   OH260984   6.068   3.443  11.735 -0.0531 -0.2333 -0.0949
13190TIP3    H160985   6.004   3.416  11.669 -0.6601  0.2831  0.2794
13190TIP3    H260986   6.142   3.475  11.684 -0.3304 -0.2697 -0.5284
13191TIP3   OH260987   2.831   6.129   3.436  0.0111 -0.5789 -0.5061
13191TIP3    H160988   2.897   6.072   3.398  0.3951 -1.6314  1.6716
13191TIP3    H260989   2.880   6.202   3.473  0.0119 -1.4860  1.3346
13192TIP3   OH260990   2.657   3.940  14.725 -0.2323 -0.2273 -0.1607
13192TIP3    H160991   2.677   4.027  14.760 -1.4491  0.2292 -0.5800
13192TIP3    H260992   2.565   3.945  14.699 -0.6657 -2.0239  0.9643
13193TIP3   OH260993   4.009   6.542   5.196 -0.3481 -0.6480 -0.4402
13193TIP3    H160994   4.064   6.499   5.131 -2.2406 -0.9647 -1.8690
13193TIP3    H260995   3.991   6.629   5.159 -1.5227 -0.8627 -0.4076
13194TIP3   OH260996   3.058   3.310   0.570  0.1524 -0.2237 -0.2217
13194TIP3    H160997   3.020   3.222   0.563  1.0116 -0.5320 -1.2924
13194TIP3    H260998   3.085   3.331   0.480 -0.6540  1.4252 -0.0944
13195TIP3   OH260999   1.577   3.797   3.810 -0.3363 -0.4434 -0.0485
13195TIP3    H161000   1.482   3.791   3.802 -0.5136 -1.1567  2.3142
13195TIP3    H261001   1.604   3.711   3.841  1.0182 -0.0217 -0.0182
13196TIP3   OH261002   3.186   1.634   2.918  0.2597 -0.0198  0.1267
13196TIP3    H161003   3.226   1.719   2.900 -1.3319  0.5831 -0.6546
13196TIP3    H261004   3.160   1.602   2.831 -1.0996 -0.3168  0.6414
13197TIP3   OH261005   1.512   4.195  13.035 -0.5536 -0.3103 -0.2653
13197TIP3    H161006   1.515   4.174  13.128 -0.8520  0.0044 -0.1835
13197TIP3    H261007   1.557   4.280  13.028 -0.7098 -0.2361 -0.3775
13198TIP3   OH261008   2.297   2.423   2.733  0.2130  0.2232  0.1510
13198TIP3    H161009   2.218   2.441   2.683  0.6153 -0.1673 -0.6459
13198TIP3    H261010   2.266   2.394   2.819 -0.5371 -0.9284 -0.4956
13199TIP3   OH261011   0.294   2.017   0.567 -0.0483 -0.4540 -0.2939
13199TIP3    H161012   0.242   1.939   0.547  0.9496 -0.9084 -1.1322
13199TIP3    H261013   0.228   2.085   0.585 -0.9638 -2.1705  3.4535
13200TIP3   OH261014   1.046   0.068   4.700 -0.3047 -0.2654  0.2584
13200TIP3    H161015   1.016   0.112   4.779 -2.2934 -0.3023 -0.4492
13200TIP3    H261016   0.992  -0.011   4.694  1.0697 -1.1946 -0.1669
13201TIP3   OH261017   2.010   3.667   4.875 -0.1219 -0.1809  0.1407
13201TIP3    H161018   2.008   3.728   4.801 -0.0021 -0.4657 -0.0998
13201TIP3    H261019   2.060   3.712   4.943 -2.1248  1.0199  0.8743
13202TIP3   OH261020   0.441   1.727   5.235 -0.1893  0.1423  0.1221
13202TIP3    H161021   0.435   1.822   5.228 -0.0095  0.2399  1.2526
13202TIP3    H261022   0.406   1.707   5.321 -1.2360 -0.9162 -0.5323
13203TIP3   OH261023   6.249   5.891  13.188  0.2272  0.1384  0.4206
13203TIP3    H161024   6.180   5.906  13.252  0.1848  0.3302  0.3284
13203TIP3    H261025   6.330   5.918  13.232  0.2159  0.1353  0.4431
13204TIP3   OH261026   3.421   6.623  13.692 -0.1120  0.1236 -0.1668
13204TIP3    H161027   3.440   6.648  13.601 -1.6093 -2.1027 -1.1817
13204TIP3    H261028   3.487   6.557  13.713  0.4120  0.8484  0.4843
13205TIP3   OH261029   4.588   1.381   1.915 -0.2150  0.0973  0.4282
13205TIP3    H161030   4.516   1.419   1.966  0.3986  1.0846  0.5754
13205TIP3    H261031   4.547   1.312   1.863 -0.8527 -0.9627  2.2942
13206TIP3   OH261032   4.569   1.075   3.268  0.0684 -0.4686 -0.0158
13206TIP3    H161033   4.530   0.996   3.230 -1.2055  0.3182 -0.3617
13206TIP3    H261034   4.592   1.129   3.193  1.9954 -0.9793  0.1771
13207TIP3   OH261035   1.693   3.275  14.814  0.3782 -0.5174 -0.0855
13207TIP3    H161036   1.778   3.256  14.854  0.0577 -1.3760  0.2040
13207TIP3    H261037   1.709   3.271  14.720  0.6903 -0.5235 -0.0314
13208TIP3   OH261038   4.465   2.813   4.536  0.2296 -0.0995 -0.0598
13208TIP3    H161039   4.512   2.892   4.564 -0.3178  0.8303 -1.6999
13208TIP3    H261040   4.534   2.747   4.525  0.9332  0.6831 -0.4844
13209TIP3   OH261041   0.055   2.994  12.849 -0.2511  0.3771  0.3430
13209TIP3    H161042  -0.041   2.997  12.855 -0.3952 -3.1861  0.8860
13209TIP3    H261043   0.083   2.962  12.935  1.3349 -0.0767 -0.3324
13210TIP3   OH261044   1.618   1.615  11.741  0.3458  0.2188 -0.0683
13210TIP3    H161045   1.657   1.640  11.825 -1.7009  2.9886  0.1307
13210TIP3    H261046   1.529   1.589  11.762 -0.0792  0.6015 -1.3181
13211TIP3   OH261047   5.391   3.235   3.960 -0.2700  0.6651  0.1136
13211TIP3    H161048   5.386   3.146   3.925  1.7735  0.7655 -0.5133
13211TIP3    H261049   5.407   3.223   4.053 -0.5201  0.3808  0.1227
13212TIP3   OH261050   0.629   5.296   4.378 -0.4986 -0.4083  0.1913
13212TIP3    H161051   0.721   5.310   4.401 -0.7474  1.0100  0.3797
13212TIP3    H261052   0.622   5.202   4.364  1.0203 -0.5175  0.0335
13213TIP3   OH261053   5.420   1.001   0.116  0.3677 -0.2585  0.6360
13213TIP3    H161054   5.452   1.058   0.046  0.1075 -0.7879  0.0822
13213TIP3    H261055   5.451   1.043   0.196  0.6459  0.3697  0.2098
13214TIP3   OH261056   6.472   1.752   3.198  0.3547 -0.0926  0.1462
13214TIP3    H161057   6.384   1.746   3.162  0.7705 -0.3328 -0.8393
13214TIP3    H261058   6.488   1.666   3.236  0.0980  0.0104  0.4926
13215TIP3   OH261059   1.783   2.748   1.571 -0.4229  0.1498  0.2695
13215TIP3    H161060   1.875   2.746   1.547 -0.3437 -0.1637  0.5972
13215TIP3    H261061   1.736   2.736   1.489 -0.1829  0.8972  0.0210
13216TIP3   OH261062   4.395   6.692   2.906  0.0529  0.1751 -0.0289
13216TIP3    H161063   4.310   6.695   2.948 -1.7056 -1.6074 -3.2829
13216TIP3    H261064   4.397   6.771   2.851  0.8571  0.6184  0.6202
13217TIP3   OH261065   6.480   0.673  15.694 -0.2953  0.8876  0.2083
13217TIP3    H161066   6.441   0.726  15.624 -2.6380 -0.2554  0.6067
13217TIP3    H261067   6.418   0.679  15.766  0.1437 -1.1273  0.7952
13218TIP3   OH261068   4.968   0.127  13.158 -0.3772  0.4895 -0.0213
13218TIP3    H161069   4.889   0.145  13.107  0.1058 -1.4444 -1.4903
13218TIP3    H261070   5.019   0.067  13.104  1.4480  0.5746  1.5353
13219TIP3   OH261071   3.677   3.886   2.996 -0.1395  0.2821  0.4452
13219TIP3    H161072   3.705   3.898   2.905 -1.3121 -0.0321  0.0322
13219TIP3    H261073   3.631   3.802   2.996  2.1344 -1.0098  1.8954
13220TIP3   OH261074   4.035   1.018  16.778 -0.2047  0.4264  0.0123
13220TIP3    H161075   3.960   1.060  16.821  0.4992  2.5946 -0.8198
13220TIP3    H261076   4.110   1.039  16.834  0.1551  0.3531 -0.4338
13221TIP3   OH261077   0.291   5.470  15.104 -0.2450 -0.1809 -0.7626
13221TIP3    H161078   0.354   5.541  15.104 -0.8141  0.3313 -0.9432
13221TIP3    H261079   0.319   5.412  15.176 -0.7394  1.0920  0.4774
13222TIP3   OH261080   0.786   0.929   1.699 -0.3810 -0.1385  0.4124
13222TIP3    H161081   0.816   1.020   1.706 -0.5962 -0.0386  0.0670
13222TIP3    H261082   0.824   0.885   1.774 -0.6893  0.3572  0.8633
13223TIP3   OH261083   5.586   3.885   1.867  0.4447  0.2955 -0.1291
13223TIP3    H161084   5.501   3.871   1.826 -0.2144  0.0066  1.2895
13223TIP3    H261085   5.579   3.972   1.906  1.5798  1.1774 -1.8284
13224TIP3   OH261086   6.189   3.138  11.603 -0.0637 -0.2214 -0.4769
13224TIP3    H161087   6.224   3.140  11.692 -0.6019  3.7098 -0.2348
13224TIP3    H261088   6.253   3.186  11.551 -1.1988  0.1415 -1.5821
13225TIP3   OH261089   2.854   5.951  15.442 -0.2455  0.1391 -0.2889
13225TIP3    H161090   2.780   5.989  15.489 -0.0945 -0.0260  0.0822
13225TIP3    H261091   2.877   6.017  15.376  0.1797  0.8111  0.5249
13226TIP3   OH261092   0.531   5.712   3.871  0.4165 -0.3143  0.0452
13226TIP3    H161093   0.443   5.675   3.860 -0.5908  2.0566 -0.0415
13226TIP3    H261094   0.588   5.653   3.820 -1.2518 -1.2808 -0.7472
13227TIP3   OH261095   2.920   6.441  11.763 -0.2503  0.0133  0.2298
13227TIP3    H161096   2.917   6.477  11.852  0.5030  0.0890  0.2318
13227TIP3    H261097   2.883   6.510  11.708 -3.6510 -1.2543  0.8354
13228TIP3   OH261098   1.778   4.741  14.346 -0.8816 -0.1326  0.3054
13228TIP3    H161099   1.837   4.705  14.279 -0.3210  0.1575  0.6343
13228TIP3    H261100   1.832   4.745  14.425 -1.8915 -1.5914  1.0786
13229TIP3   OH261101   0.861   4.930  14.023 -0.1096 -0.5069 -0.1779
13229TIP3    H161102   0.942   4.880  14.012 -0.4399 -1.4161  1.3536
13229TIP3    H261103   0.880   4.992  14.093 -1.0221 -1.3987  0.8880
13230TIP3   OH261104   5.086   0.615   0.123  0.2167 -0.0999  0.1167
13230TIP3    H161105   5.045   0.584   0.042 -0.0562  0.6950 -0.0551
13230TIP3    H261106   5.032   0.579   0.193 -0.0895 -0.0292 -0.0812
13231TIP3   OH261107   0.773   5.453  13.407 -0.1326 -0.2569  0.2531
13231TIP3    H161108   0.776   5.374  13.462 -1.0913 -0.9898 -0.7218
13231TIP3    H261109   0.680   5.470  13.395  0.0719  0.2811 -0.6021
13232TIP3   OH261110   1.183   3.704  16.212  0.0083 -0.5030 -0.0777
13232TIP3    H161111   1.145   3.791  16.208  0.9758 -0.0290  1.0399
13232TIP3    H261112   1.248   3.708  16.281 -2.5478 -3.1486  2.6850
13233TIP3   OH261113   5.184   1.415  11.780  0.2497  0.0595 -0.2412
13233TIP3    H161114   5.276   1.439  11.769 -0.0457  0.8340 -1.0826
13233TIP3    H261115   5.174   1.333  11.733  0.6074 -0.2669  0.2411
13234TIP3   OH261116   1.135   5.181   4.898  0.2695  0.6112 -0.2080
13234TIP3    H161117   1.121   5.161   4.991 -1.6423 -0.1506 -0.6406
13234TIP3    H261118   1.134   5.096   4.855 -0.1815  1.0514 -1.0855
13235TIP3   OH261119   0.463   1.418   3.382 -0.2228  0.1376 -0.4262
13235TIP3    H161120   0.472   1.385   3.293  0.0792  2.8093 -1.4352
13235TIP3    H261121   0.540   1.386   3.429  0.8112  0.6433 -1.7677
13236TIP3   OH261122   5.903   5.875   4.414 -0.1418  0.3851  0.6365
13236TIP3    H161123   5.979   5.921   4.450 -0.9556  1.7381  0.6353
13236TIP3    H261124   5.910   5.886   4.320 -0.5149  0.8030  0.6542
13237TIP3   OH261125   3.396   1.459   1.176 -0.3705  0.6506  0.1575
13237TIP3    H161126   3.433   1.442   1.262 -1.9187 -2.7557  0.2517
13237TIP3    H261127   3.471   1.473   1.119  0.8437 -0.9294  1.3365
13238TIP3   OH261128   2.949   4.856   1.494  1.0256 -0.4984  0.0339
13238TIP3    H161129   3.013   4.899   1.437 -0.2292 -0.4480 -1.3714
13238TIP3    H261130   2.956   4.763   1.473  0.3747 -0.4513 -0.3897
13239TIP3   OH261131   5.129   3.451  14.255  0.6595  0.0599  0.1434
13239TIP3    H161132   5.068   3.380  14.274  0.4902  0.4052  0.9644
13239TIP3    H261133   5.118   3.469  14.162 -1.6952  1.1746  0.5819
13240TIP3   OH261134   0.774   1.510   5.434 -0.2887 -0.0907 -0.0574
13240TIP3    H161135   0.707   1.460   5.481  0.9743 -0.8463  0.9948
13240TIP3    H261136   0.725   1.564   5.372 -1.9679  0.5874  1.8096
13241TIP3   OH261137   2.796   1.285  16.078 -0.4352  0.1427  0.1589
13241TIP3    H161138   2.834   1.200  16.102 -2.3410 -0.6821  0.4004
13241TIP3    H261139   2.790   1.332  16.161 -0.2299  0.1416  0.1744
13242TIP3   OH261140   3.300   2.851  14.982 -0.1745 -0.4475 -0.0683
13242TIP3    H161141   3.305   2.866  15.077 -0.7273  0.9683 -0.2501
13242TIP3    H261142   3.385   2.880  14.949  0.3199 -1.6979  0.0803
13243TIP3   OH261143   2.140   5.062  16.464 -0.3370 -0.3477  0.1317
13243TIP3    H161144   2.146   4.980  16.513  0.3669 -0.4397 -0.1032
13243TIP3    H261145   2.228   5.076  16.429 -0.8635 -0.3251 -1.1970
13244TIP3   OH261146   5.199   4.544   4.095 -0.3212 -0.2583 -0.2044
13244TIP3    H161147   5.235   4.456   4.087  0.0036 -0.1303 -0.1749
13244TIP3    H261148   5.133   4.549   4.026  1.4439  0.3390 -1.9050
13245TIP3   OH261149   5.315   3.256   1.173 -0.1903  0.4646  0.6274
13245TIP3    H161150   5.286   3.212   1.253  0.4077 -1.4785 -0.1917
13245TIP3    H261151   5.238   3.258   1.117 -0.0304 -0.2299  0.3774
13246TIP3   OH261152   2.706   5.221  13.406  0.9334  0.1910  0.2282
13246TIP3    H161153   2.674   5.201  13.318 -0.3855 -1.1338  0.9753
13246TIP3    H261154   2.641   5.281  13.442 -0.5043 -2.0637  1.5484
13247TIP3   OH261155   6.445   5.892   4.888 -0.2874 -0.4821  0.1628
13247TIP3    H161156   6.534   5.924   4.898 -0.7733  1.4279 -1.2472
13247TIP3    H261157   6.453   5.811   4.838  0.6108 -0.0010 -0.4692
13248TIP3   OH261158   4.415   2.285  14.427  0.0264  0.1746 -0.4494
13248TIP3    H161159   4.349   2.289  14.496  0.4361 -1.0376  0.0388
13248TIP3    H261160   4.376   2.332  14.354 -1.3350 -0.4024 -0.1218
13249TIP3   OH261161   5.965   1.626   5.829  0.2336 -0.8074 -0.1046
13249TIP3    H161162   5.929   1.648   5.743 -0.1792 -3.2512 -0.5947
13249TIP3    H261163   6.002   1.538   5.818  1.9429 -0.3444  1.7123
13250TIP3   OH261164   5.644   2.643  13.083 -0.4946  0.7385  0.7731
13250TIP3    H161165   5.720   2.586  13.096  0.2987  1.6663  0.2911
13250TIP3    H261166   5.643   2.699  13.161 -0.9802  0.4016  1.0114
13251TIP3   OH261167   2.273   1.268  15.899 -0.6965  0.0804  0.3923
13251TIP3    H161168   2.363   1.262  15.868 -0.6931  1.4557  0.0797
13251TIP3    H261169   2.273   1.219  15.981 -0.3547 -2.3305 -1.0111
13252TIP3   OH261170   1.317   1.901   2.271  0.1221  0.8529 -1.1383
13252TIP3    H161171   1.276   1.973   2.319 -0.1047  1.3223 -2.0183
13252TIP3    H261172   1.410   1.906   2.294  0.0316  1.1411 -0.8308
13253TIP3   OH261173   5.670   0.499   4.817 -0.5320 -0.4338 -0.3063
13253TIP3    H161174   5.608   0.426   4.809 -0.1613 -0.7152 -0.6796
13253TIP3    H261175   5.668   0.541   4.731  1.6816 -1.9990 -1.1785
13254TIP3   OH261176   3.575   3.792  15.434  0.0975  0.0134 -0.6344
13254TIP3    H161177   3.659   3.838  15.437 -1.0655  2.2808 -1.6835
13254TIP3    H261178   3.574   3.749  15.349  0.5701 -0.7932 -0.2409
13255TIP3   OH261179   6.398   6.104  15.123  0.1798  0.5127  0.3109
13255TIP3    H161180   6.476   6.051  15.105 -1.0023 -1.1080 -0.0603
13255TIP3    H261181   6.347   6.100  15.042 -1.2066  0.0041  1.2045
13256TIP3   OH261182   2.227   2.206   0.982  0.4412  0.0790 -0.0327
13256TIP3    H161183   2.226   2.162   1.066  1.5397 -1.1930 -0.6638
13256TIP3    H261184   2.319   2.227   0.967  0.1316  1.1454 -0.4845
13257TIP3   OH261185   6.671   6.346   3.674 -0.0894  0.2185 -0.4766
13257TIP3    H161186   6.583   6.358   3.710  0.0911 -1.8495  0.7603
13257TIP3    H261187   6.719   6.423   3.703 -0.6802 -0.1258  1.5335
13258TIP3   OH261188   2.259   3.679   2.378  0.1502  0.1491 -0.3024
13258TIP3    H161189   2.319   3.605   2.386 -0.9847 -0.7759 -0.3240
13258TIP3    H261190   2.298   3.733   2.309  1.5367  0.1208  0.4315
13259TIP3   OH261191   3.660   2.401  16.547 -0.0160 -0.2752  1.2273
13259TIP3    H161192   3.594   2.470  16.543  0.2298 -0.0043  1.7480
13259TIP3    H261193   3.728   2.430  16.485 -0.8150 -1.0231 -0.0115
13260TIP3   OH261194   4.097   3.647   1.168  0.1825 -0.1825 -0.3875
13260TIP3    H161195   4.019   3.675   1.216  0.4963 -0.5529  0.3515
13260TIP3    H261196   4.147   3.727   1.154 -0.3189  0.0535 -0.8480
13261TIP3   OH261197   5.922   2.619  13.510 -0.6969 -0.4887 -0.1288
13261TIP3    H161198   5.926   2.599  13.604 -0.4824 -3.3910 -0.7067
13261TIP3    H261199   5.966   2.545  13.468  1.9738  2.2411 -2.3787
13262TIP3   OH261200   4.786   0.510  11.929 -0.3602  0.2105  0.8055
13262TIP3    H161201   4.844   0.570  11.882 -0.6993 -0.8669 -1.0565
13262TIP3    H261202   4.698   0.547  11.914 -0.5487 -0.6060 -0.1698
13263TIP3   OH261203   1.746   0.413  11.978  0.3239 -0.4177  0.0992
13263TIP3    H161204   1.757   0.338  11.919 -0.4283 -1.3906  1.1827
13263TIP3    H261205   1.672   0.461  11.941  0.1905 -0.7379 -0.0503
13264TIP3   OH261206   6.548   5.886  12.412 -0.2175 -0.0414  0.1985
13264TIP3    H161207   6.533   5.957  12.349  0.7929 -0.7635 -0.8908
13264TIP3    H261208   6.642   5.870  12.407 -0.0166  0.3798  2.4564
13265TIP3   OH261209   3.841   3.531  16.909  0.8319 -0.7661 -0.9565
13265TIP3    H161210   3.930   3.538  16.946  0.7783  0.1001 -0.9795
13265TIP3    H261211   3.853   3.486  16.826  1.1513 -1.3422 -0.6081
13266TIP3   OH261212   6.522   3.785  12.113 -0.1812 -0.2939  0.4299
13266TIP3    H161213   6.437   3.741  12.112 -0.1370 -0.3612 -0.5528
13266TIP3    H261214   6.573   3.736  12.179 -0.3121 -1.3784 -0.2588
13267TIP3   OH261215   0.762   3.491   1.170 -0.4833  0.4408  0.2501
13267TIP3    H161216   0.817   3.414   1.157  1.5821  1.4611  2.4003
13267TIP3    H261217   0.702   3.492   1.095 -1.5426 -4.0116  0.9464
13268TIP3   OH261218   5.678   6.503   1.990  0.2824 -0.2344 -1.1826
13268TIP3    H161219   5.633   6.482   1.909 -1.7395  1.8228 -0.6580
13268TIP3    H261220   5.609   6.534   2.048  1.7419 -1.3153  1.2180
13269TIP3   OH261221   1.371   2.049  11.142 -0.4667  0.4068 -0.1836
13269TIP3    H161222   1.458   2.046  11.101 -0.5696  2.1098 -0.5413
13269TIP3    H261223   1.326   1.972  11.107  0.7138 -0.1950 -0.4145
13270TIP3   OH261224   4.559   3.667  17.142  0.4325 -0.3231  0.6462
13270TIP3    H161225   4.562   3.663  17.046 -0.0240 -0.9055  0.6529
13270TIP3    H261226   4.489   3.606  17.166 -1.0752  1.5644  1.2201
13271TIP3   OH261227   4.225   0.498  14.732  0.1934  0.3733  0.2108
13271TIP3    H161228   4.267   0.448  14.802  1.4675 -0.3643 -1.0513
13271TIP3    H261229   4.198   0.432  14.668 -1.2073  1.0141  0.1055
13272TIP3   OH261230   5.553   1.920   6.505 -0.3768  0.2374  0.0591
13272TIP3    H161231   5.621   1.887   6.446 -1.1452  1.2286 -1.3976
13272TIP3    H261232   5.533   1.845   6.562  1.7441 -0.1321  0.3391
13273TIP3   OH261233   5.764   2.056  11.434  0.4929 -0.1240  0.2817
13273TIP3    H161234   5.765   1.960  11.437  0.8940 -0.0891  1.2601
13273TIP3    H261235   5.741   2.083  11.523 -1.1848  0.6622 -0.3783
13274TIP3   OH261236   2.236   5.843  15.859  0.2007  0.1732  0.4899
13274TIP3    H161237   2.229   5.913  15.793  0.7121 -0.3703 -0.1523
13274TIP3    H261238   2.196   5.879  15.937  1.1048  1.4543  0.3698
13275TIP3   OH261239   0.270   6.024  11.703  0.1451  0.3061  0.1081
13275TIP3    H161240   0.325   6.043  11.779  0.0038 -0.8707  0.5221
13275TIP3    H261241   0.331   6.023  11.629  0.5212 -0.0074  0.4217
13276TIP3   OH261242   6.202   3.199   4.060 -0.1606 -0.2335 -0.0666
13276TIP3    H161243   6.148   3.156   3.993  0.4353 -0.8427 -0.1583
13276TIP3    H261244   6.145   3.268   4.095 -1.7682 -2.2333  1.3463
13277TIP3   OH261245   2.315   4.638  15.652 -0.0886  0.0312  0.5263
13277TIP3    H161246   2.343   4.549  15.633 -2.5060 -0.8272  0.8986
13277TIP3    H261247   2.336   4.650  15.745 -0.2122 -0.3099  0.5966
13278TIP3   OH261248   0.092   1.562   4.709  0.2595  0.4257 -0.1719
13278TIP3    H161249   0.149   1.635   4.686 -0.7528  1.3729  0.2977
13278TIP3    H261250   0.051   1.537   4.626  1.8259 -0.6980 -0.6409
13279TIP3   OH261251   3.758   4.192  11.266  0.3365 -0.2299 -0.3135
13279TIP3    H161252   3.833   4.176  11.324 -0.9067 -0.4595  1.2388
13279TIP3    H261253   3.791   4.169  11.179  1.3284 -2.7862  0.6741
13280TIP3   OH261254   5.409   1.046  12.713  0.0028 -0.4137 -0.1863
13280TIP3    H161255   5.384   1.115  12.775 -0.2367  0.4538 -1.2358
13280TIP3    H261256   5.498   1.023  12.738 -0.6624 -1.2442  1.5283
13281TIP3   OH261257   6.650   5.786  11.384  0.2860  0.2432 -0.1860
13281TIP3    H161258   6.686   5.707  11.423  0.5387  0.4399 -0.0214
13281TIP3    H261259   6.662   5.854  11.451 -0.2438  0.3457 -0.1908
13282TIP3   OH261260   1.387   3.525  13.328  0.7315  0.2691  0.3643
13282TIP3    H161261   1.319   3.580  13.291 -2.1253 -2.6533  1.0008
13282TIP3    H261262   1.437   3.493  13.253 -1.5323 -1.2025 -0.5629
13283TIP3   OH261263   3.092   1.185   4.384 -0.3501  0.0532  0.2117
13283TIP3    H161264   3.048   1.182   4.469 -2.8350  2.7116 -0.8816
13283TIP3    H261265   3.021   1.170   4.320  1.0984  0.1254 -1.4527
13284TIP3   OH261266   1.101   6.647   0.849  0.5436 -0.4403  0.3626
13284TIP3    H161267   1.178   6.591   0.862 -0.9122 -2.3398  1.1589
13284TIP3    H261268   1.121   6.698   0.770  1.9665 -2.0569 -0.3587
13285TIP3   OH261269   6.555   6.643   2.562 -0.9606 -0.2464 -0.7608
13285TIP3    H161270   6.510   6.670   2.482  2.1515  2.4394 -1.7097
13285TIP3    H261271   6.644   6.623   2.533 -0.2889 -1.0542  1.7609
13286TIP3   OH261272   2.330   5.753   6.121  1.0791  0.2486  0.1699
13286TIP3    H161273   2.247   5.746   6.168  0.5757  0.1709 -0.7240
13286TIP3    H261274   2.373   5.669   6.137  1.2228  0.4961  1.0783
13287TIP3   OH261275   3.500   0.910  11.045  0.0860 -0.0557 -0.0320
13287TIP3    H161276   3.452   0.980  11.090 -0.0625 -0.2625  0.1346
13287TIP3    H261277   3.467   0.829  11.084  1.9057 -0.1433  1.4048
13288TIP3   OH261278   5.628   3.198   6.137 -0.5897 -0.2013  0.3700
13288TIP3    H161279   5.570   3.137   6.182 -0.8699 -1.1391 -1.2704
13288TIP3    H261280   5.715   3.180   6.174 -0.8963 -0.5929  0.9084
13289TIP3   OH261281   6.327   5.060  13.374  0.6633 -0.3011  0.2526
13289TIP3    H161282   6.314   5.067  13.280  0.0082 -0.5167  0.3270
13289TIP3    H261283   6.240   5.068  13.412  1.0965  1.3234  0.9425
13290TIP3   OH261284   3.665   3.605  11.669  0.3248 -0.8448  0.4756
13290TIP3    H161285   3.624   3.687  11.642  1.2345 -0.4035  0.4126
13290TIP3    H261286   3.625   3.539  11.612  2.2035  0.0813 -2.0349
13291TIP3   OH261287   1.317   5.905   1.878 -0.3014  0.0659  0.0430
13291TIP3    H161288   1.300   5.869   1.791  1.0934  0.0529 -0.2411
13291TIP3    H261289   1.270   5.988   1.880  0.0585  0.3026 -0.9208
13292TIP3   OH261290   5.095   2.142   2.843  0.4009 -0.9223 -0.0794
13292TIP3    H161291   5.058   2.205   2.781  1.3287 -0.6308 -0.3553
13292TIP3    H261292   5.023   2.083   2.863 -0.3766 -0.0104 -0.1237
13293TIP3   OH261293   6.161   0.572  17.078 -0.0999  0.5304 -0.6478
13293TIP3    H161294   6.131   0.482  17.093 -1.6195  1.1307  0.0452
13293TIP3    H261295   6.252   0.573  17.110 -0.6866 -0.2823  1.1449
13294TIP3   OH261296   0.158   5.117  13.233 -0.5002 -0.3473 -0.2294
13294TIP3    H161297   0.115   5.054  13.291  0.4879  0.6631  1.6298
13294TIP3    H261298   0.251   5.097  13.241 -0.2869  0.4502 -0.6953
13295TIP3   OH261299   3.480   0.208   6.023  0.0661 -0.7504  0.5732
13295TIP3    H161300   3.414   0.160   6.073 -0.4102 -0.1198  0.5414
13295TIP3    H261301   3.518   0.269   6.087 -1.4196  0.9544 -0.1287
13296TIP3   OH261302   6.147   4.111  12.467  0.6001  0.3065  0.2827
13296TIP3    H161303   6.181   4.094  12.379  3.3976  0.9028  1.1778
13296TIP3    H261304   6.101   4.195  12.458  1.5407  0.7656 -0.4741
13297TIP3   OH261305   6.465   2.072   0.762 -0.0660 -0.4243  0.2286
13297TIP3    H161306   6.459   2.126   0.683  2.7868 -1.0835 -0.4937
13297TIP3    H261307   6.418   1.992   0.740 -1.8524  0.5969  0.2863
13298TIP3   OH261308   5.564   3.359  17.085  0.0865 -0.2197 -0.2539
13298TIP3    H161309   5.616   3.422  17.035  0.2482  0.2850  0.5441
13298TIP3    H261310   5.557   3.283  17.027  0.8105  0.1130 -0.7918
13299TIP3   OH261311   0.586   2.285  11.517  0.2986  0.1133 -0.5827
13299TIP3    H161312   0.558   2.360  11.570  0.1777 -0.5378  0.2925
13299TIP3    H261313   0.650   2.239  11.572  2.0741  0.8162 -2.0159
13300TIP3   OH261314   4.787   0.626  14.368 -0.3776 -0.0359 -0.1876
13300TIP3    H161315   4.780   0.582  14.284 -0.1899 -1.2841  0.4423
13300TIP3    H261316   4.702   0.670  14.379  0.1884  1.5078 -1.7603
13301TIP3   OH261317   5.417   5.602  11.692 -0.4326 -0.5904  0.2432
13301TIP3    H161318   5.438   5.573  11.780  0.0052 -1.0660 -0.0154
13301TIP3    H261319   5.489   5.569  11.638 -1.3168 -1.3677 -0.4879
13302TIP3   OH261320   1.218   3.859   3.842 -0.7443  0.0245 -0.2932
13302TIP3    H161321   1.163   3.902   3.776 -0.2739  0.8442 -0.1554
13302TIP3    H261322   1.164   3.860   3.921 -0.8661  0.0477 -0.3755
13303TIP3   OH261323   0.704   5.838  12.741 -0.3538  0.1496 -0.4866
13303TIP3    H161324   0.737   5.800  12.822 -0.0412 -1.5986 -1.4081
13303TIP3    H261325   0.741   5.926  12.739  0.2893 -0.0814  0.8667
13304TIP3   OH261326   2.052   4.503  14.910  0.1353 -0.1388  0.7290
13304TIP3    H161327   2.018   4.587  14.941  0.7300  0.3552  0.0764
13304TIP3    H261328   1.981   4.465  14.859  0.5767  0.9326 -0.7169
13305TIP3   OH261329   1.778   3.080  15.818  0.1913  0.5264 -0.4701
13305TIP3    H161330   1.739   3.092  15.732 -1.8575  1.7309  0.5885
13305TIP3    H261331   1.790   2.985  15.826 -1.0007  0.2810 -1.4806
13306TIP3   OH261332   0.589   6.408   0.568 -0.3200 -0.3383  0.0103
13306TIP3    H161333   0.581   6.391   0.474 -0.4541  0.7563 -0.1899
13306TIP3    H261334   0.504   6.384   0.604 -0.1100 -1.2150 -0.0766
13307TIP3   OH261335   4.013   4.529  11.578 -0.3048  0.4927  0.6921
13307TIP3    H161336   4.018   4.541  11.672 -2.8364  3.2364  0.5279
13307TIP3    H261337   3.948   4.459  11.566 -0.4188  0.5553  0.9466
13308TIP3   OH261338   1.105   6.650   0.178 -0.1026 -0.0861  0.1334
13308TIP3    H161339   1.072   6.688   0.097 -0.0454 -0.5474 -0.1025
13308TIP3    H261340   1.181   6.599   0.151 -1.0991 -1.6474  0.2408
13309TIP3   OH261341   1.696   3.599   3.950 -0.1088 -0.0842  0.8308
13309TIP3    H161342   1.790   3.597   3.930  0.0585  1.5857  1.4308
13309TIP3    H261343   1.690   3.579   4.043 -0.4898 -1.8669  0.4551
13310TIP3   OH261344   1.822   6.494  16.776 -0.1236  0.1219  0.3228
13310TIP3    H161345   1.778   6.487  16.861  0.6202  1.1492  0.8081
13310TIP3    H261346   1.751   6.494  16.712 -0.5765 -3.3003  0.7613
13311TIP3   OH261347   0.009   6.141  11.041 -0.2264 -0.1161  0.2836
13311TIP3    H161348  -0.042   6.205  11.091 -0.4865 -0.4166  0.4065
13311TIP3    H261349  -0.021   6.150  10.951  0.1214  0.3080  0.2098
13312TIP3   OH261350   0.680   4.977  13.700  0.8697  0.3354 -0.5189
13312TIP3    H161351   0.588   4.958  13.719  1.9658 -2.9498  1.9983
13312TIP3    H261352   0.694   4.944  13.612 -0.0024 -0.5287 -0.3387
13313TIP3   OH261353   6.694   4.147   3.249 -0.5441 -0.3126 -0.3790
13313TIP3    H161354   6.667   4.139   3.157  0.1755  1.1739 -0.7207
13313TIP3    H261355   6.786   4.121   3.249 -1.0022 -1.9833  0.2191
13314TIP3   OH261356   4.402   0.695   4.750  0.2391 -0.6744  0.3382
13314TIP3    H161357   4.366   0.606   4.743  0.2415 -0.7825  1.4862
13314TIP3    H261358   4.353   0.746   4.686  0.1031 -1.4682 -0.1965
13315TIP3   OH261359   6.506   3.321  15.301  0.2439 -0.4917  0.3398
13315TIP3    H161360   6.424   3.290  15.263  0.7977 -0.6594 -0.7203
13315TIP3    H261361   6.527   3.400  15.251  1.2660 -1.0269 -0.0758
13316TIP3   OH261362   6.155   0.186   1.466  0.0161 -0.2780  0.5648
13316TIP3    H161363   6.118   0.238   1.537 -0.8867  0.2743 -0.3013
13316TIP3    H261364   6.242   0.160   1.498  0.3424  1.4766  1.1560
13317TIP3   OH261365   5.774   5.003  15.921  0.3300 -0.1235 -0.1021
13317TIP3    H161366   5.709   4.972  15.984  0.7579  0.9517  0.8730
13317TIP3    H261367   5.773   5.098  15.931 -0.6856  0.1891 -2.7733
13318TIP3   OH261368   1.624   3.086   3.680  0.6613  0.7476 -0.7352
13318TIP3    H161369   1.579   3.045   3.607  0.7706 -1.0850  0.2029
13318TIP3    H261370   1.716   3.090   3.652  0.8109 -0.5627 -0.4243
13319TIP3   OH261371   5.229   2.748  16.748  0.4930 -0.5557 -0.4532
13319TIP3    H161372   5.220   2.661  16.786 -2.4961 -0.0808  0.0318
13319TIP3    H261373   5.180   2.744  16.666  0.6121  0.5668 -0.5903
13320TIP3   OH261374   4.079   5.520  14.380 -0.6034  1.1758 -0.1100
13320TIP3    H161375   4.010   5.586  14.377 -0.5294  1.2555 -0.0570
13320TIP3    H261376   4.144   5.551  14.317 -0.7808  0.9185 -0.4231
13321TIP3   OH261377   0.477   5.454   0.022  0.0645 -0.3088  0.0651
13321TIP3    H161378   0.430   5.375  -0.005  0.4677 -0.0543 -1.3816
13321TIP3    H261379   0.568   5.438  -0.001  0.4505 -0.1433  1.4149
13322TIP3   OH261380   5.112   0.657  16.876 -0.4524  0.3610  0.7022
13322TIP3    H161381   5.088   0.738  16.921 -0.4580 -0.9078  3.0420
13322TIP3    H261382   5.046   0.648  16.807 -0.5625  2.2303  0.5265
13323TIP3   OH261383   3.486   2.081   3.932  0.5534 -0.1249 -0.0643
13323TIP3    H161384   3.565   2.135   3.941 -0.3795  1.7030 -2.0875
13323TIP3    H261385   3.515   2.005   3.881  1.5793 -0.8332  1.5568
13324TIP3   OH261386   2.225   1.284   4.805  0.5679 -0.7287  0.2075
13324TIP3    H161387   2.248   1.232   4.881  0.3083  1.1265  1.5842
13324TIP3    H261388   2.134   1.310   4.820  1.2457  1.6126  0.4385
13325TIP3   OH261389   5.952   5.577   5.447  0.2045 -0.1813 -0.7251
13325TIP3    H161390   5.996   5.547   5.368 -0.6705  0.6667 -1.5436
13325TIP3    H261391   6.020   5.625   5.495  0.5621 -0.1507 -1.2593
13326TIP3   OH261392   6.668   3.480  11.720 -0.7036 -0.2527 -0.0094
13326TIP3    H161393   6.660   3.451  11.629 -2.8032 -0.1623  0.1342
13326TIP3    H261394   6.615   3.560  11.725 -3.2895 -1.9896  2.0378
13327TIP3   OH261395   3.139   6.481   3.376  0.1987 -0.2057 -0.4657
13327TIP3    H161396   3.187   6.558   3.344 -0.4664 -0.0335 -1.0526
13327TIP3    H261397   3.195   6.407   3.352 -0.7891 -0.1763 -3.0512
13328TIP3   OH261398   5.914   3.499  10.388 -0.1423 -0.0895 -0.1426
13328TIP3    H161399   6.006   3.489  10.413 -0.4913 -1.0503  0.8352
13328TIP3    H261400   5.873   3.535  10.466 -0.6711 -0.0717 -0.4307
13329TIP3   OH261401   4.593   5.671   1.575 -0.4654 -0.5928 -0.1899
13329TIP3    H161402   4.655   5.696   1.507 -1.3215  0.2482 -0.6882
13329TIP3    H261403   4.512   5.717   1.552 -0.2228  1.3120  2.4510
13330TIP3   OH261404   1.609   1.861   4.576  0.1195  0.0380 -0.1497
13330TIP3    H161405   1.637   1.908   4.497  0.5279  0.5980  0.3180
13330TIP3    H261406   1.677   1.795   4.590  0.2271  0.1593 -0.0867
13331TIP3   OH261407   3.075   1.589  15.400 -0.5940 -0.2183  0.3702
13331TIP3    H161408   3.018   1.660  15.433 -0.3168  0.2563 -0.1733
13331TIP3    H261409   3.026   1.552  15.327 -0.0257  0.4617 -0.3605
13332TIP3   OH261410   5.544   1.597  10.558 -0.3892 -0.3218 -0.3936
13332TIP3    H161411   5.472   1.549  10.516 -1.0273  0.4148 -0.1597
13332TIP3    H261412   5.527   1.588  10.652 -0.4877  0.3022 -0.3452
13333TIP3   OH261413   6.175   2.813  12.090 -0.2667  1.0129  0.3603
13333TIP3    H161414   6.224   2.732  12.089 -1.8196  0.0352 -1.6061
13333TIP3    H261415   6.142   2.822  12.000 -1.3000  3.0774  0.9067
13334TIP3   OH261416   2.598   4.600   5.596  0.2099  1.1419  0.0369
13334TIP3    H161417   2.597   4.627   5.504  0.0310  0.0285 -0.3001
13334TIP3    H261418   2.692   4.595   5.618  0.3222 -0.9579 -0.8220
13335TIP3   OH261419   6.751   4.000   1.669  0.1346  0.3207 -0.4289
13335TIP3    H161420   6.756   4.084   1.715 -1.2726  0.3314 -0.2855
13335TIP3    H261421   6.798   3.940   1.727  0.6900  0.8874 -0.2747
13336TIP3   OH261422   5.330   6.094   4.650 -0.3746  0.3780 -0.6562
13336TIP3    H161423   5.392   6.165   4.632 -0.5906  0.6120 -0.4754
13336TIP3    H261424   5.341   6.033   4.576  0.0114  0.4581 -0.6660
13337TIP3   OH261425   6.081   4.876  12.982  0.1667  0.2284  0.1645
13337TIP3    H161426   6.151   4.933  13.014  2.0199 -1.7084 -0.2984
13337TIP3    H261427   6.041   4.841  13.061  0.3908  0.5732  0.4315
13338TIP3   OH261428   0.504   2.817   0.175  0.4737 -1.0335  0.3074
13338TIP3    H161429   0.471   2.826   0.086 -0.9377 -1.5248  0.7587
13338TIP3    H261430   0.457   2.885   0.225 -0.3912 -2.1841  1.0982
13339TIP3   OH261431   2.940   0.465   5.000  0.0690 -0.0075 -0.7555
13339TIP3    H161432   2.991   0.522   4.943 -2.0016  1.3382 -1.3111
13339TIP3    H261433   2.881   0.418   4.941 -0.1363 -0.6963 -0.0154
13340TIP3   OH261434   1.281   0.895  11.387 -0.0768 -0.2797  0.6893
13340TIP3    H161435   1.275   0.969  11.447 -0.7053 -0.4211  0.8028
13340TIP3    H261436   1.238   0.823  11.434 -0.6304 -0.3718  0.0489
13341TIP3   OH261437   4.005   6.605  11.581  0.1335  0.2776 -0.0759
13341TIP3    H161438   4.036   6.548  11.652 -2.1176 -0.4334  0.3932
13341TIP3    H261439   3.928   6.649  11.619 -0.3069  0.8842 -1.6552
13342TIP3   OH261440   5.826   4.422  11.893  0.4021 -0.1993 -0.0243
13342TIP3    H161441   5.890   4.433  11.963 -1.2993  1.8809  1.2621
13342TIP3    H261442   5.742   4.413  11.938 -0.5761  0.0285 -1.7608
13343TIP3   OH261443   1.779   6.254  10.880 -0.2674  0.2769 -0.2623
13343TIP3    H161444   1.846   6.268  10.813  0.7406 -1.4180  0.3621
13343TIP3    H261445   1.793   6.325  10.942  2.8209 -1.5684  1.3138
13344TIP3   OH261446   0.336   1.877  13.451  0.9185 -0.1202 -0.0984
13344TIP3    H161447   0.330   1.947  13.515  1.9683  0.4734 -0.6404
13344TIP3    H261448   0.402   1.907  13.388 -0.6437 -0.3471 -1.8874
13345TIP3   OH261449   2.703   2.877   4.000 -0.0637 -0.0357 -0.4516
13345TIP3    H161450   2.710   2.952   3.941 -0.9648  0.2828 -0.1587
13345TIP3    H261451   2.623   2.832   3.972 -0.8215  0.4517  0.9045
13346TIP3   OH261452   0.175   0.290   4.265 -0.0447 -0.4799  0.7623
13346TIP3    H161453   0.267   0.285   4.293  0.4028  0.9765 -0.3912
13346TIP3    H261454   0.130   0.226   4.320  1.9149 -2.3149  0.2714
13347TIP3   OH261455   2.669   1.875   3.525  0.2661  0.0136  0.0059
13347TIP3    H161456   2.612   1.816   3.476  1.5199 -1.5102  0.3493
13347TIP3    H261457   2.674   1.954   3.471 -3.0635  0.6381  0.5206
13348TIP3   OH261458   1.986   5.769  11.883  0.1484 -0.5173  0.2105
13348TIP3    H161459   2.049   5.759  11.812  0.2952 -0.8595  0.3853
13348TIP3    H261460   1.999   5.859  11.914  1.0341 -0.8094  0.6957
13349TIP3   OH261461   2.597   0.801  13.330 -0.1495 -0.0394 -0.2548
13349TIP3    H161462   2.661   0.871  13.343 -0.5952  0.4018 -0.4530
13349TIP3    H261463   2.532   0.838  13.272  1.3609 -1.6962 -3.1394
13350TIP3   OH261464   6.434   4.581  15.264 -0.2693  0.4819  0.0012
13350TIP3    H161465   6.432   4.505  15.322  0.5537 -0.2591 -0.9283
13350TIP3    H261466   6.445   4.655  15.323 -0.2138 -0.1955  0.8591
13351TIP3   OH261467   2.626   3.350  16.909 -0.2427 -0.2020  0.7011
13351TIP3    H161468   2.676   3.281  16.951 -2.4402 -2.4557 -0.2351
13351TIP3    H261469   2.672   3.431  16.932  1.8811 -1.8729  2.5551
13352TIP3   OH261470   4.170   5.334  15.587  0.2483 -0.6477  0.1708
13352TIP3    H161471   4.223   5.262  15.622 -0.1131 -0.2072  1.6682
13352TIP3    H261472   4.105   5.351  15.655 -1.2371 -0.5418 -1.2389
13353TIP3   OH261473   5.895   5.929   0.498 -0.3398  0.3235  0.4541
13353TIP3    H161474   5.987   5.917   0.472 -0.2905  0.6155  0.4787
13353TIP3    H261475   5.845   5.905   0.421 -0.3551 -2.0934  1.1887
13354TIP3   OH261476   5.278   3.980  16.244  0.4822 -0.2104  0.6266
13354TIP3    H161477   5.313   3.932  16.319 -0.2376 -1.0140  0.4572
13354TIP3    H261478   5.340   3.961  16.173 -0.9811 -2.7622 -0.0404
13355TIP3   OH261479   0.633   1.380  15.263  0.7317 -0.7181  0.1247
13355TIP3    H161480   0.632   1.411  15.173  1.3740 -1.0234  0.0136
13355TIP3    H261481   0.602   1.454  15.315  1.6188 -0.1229 -0.2036
13356TIP3   OH261482   6.476   4.800  16.180  0.0340 -0.7048 -0.4400
13356TIP3    H161483   6.562   4.770  16.153  1.1651  1.1674  0.9381
13356TIP3    H261484   6.477   4.794  16.276 -1.7378 -1.6346 -0.4519
13357TIP3   OH261485   3.714   3.205  16.610  0.1584  0.2265 -0.3699
13357TIP3    H161486   3.662   3.246  16.541 -0.6498  1.1875  0.7855
13357TIP3    H261487   3.649   3.164  16.667  0.7178  0.7712  0.6644
13358TIP3   OH261488   0.350   1.255  12.868  0.5304  0.2369  0.2981
13358TIP3    H161489   0.279   1.191  12.861  0.4441  0.3187  0.4481
13358TIP3    H261490   0.311   1.338  12.842 -0.0732  0.7574  2.7766
13359TIP3   OH261491   0.378   1.655   0.212  0.0879 -0.7022  0.2009
13359TIP3    H161492   0.360   1.561   0.206  3.3661 -1.3915  0.4763
13359TIP3    H261493   0.414   1.678   0.126 -1.9748  0.6313 -0.3445
13360TIP3   OH261494   3.096   1.192   3.800 -0.1971  0.2976  0.3549
13360TIP3    H161495   3.059   1.243   3.728 -0.7889  0.3641  0.7046
13360TIP3    H261496   3.171   1.147   3.761 -0.7480  0.0290 -0.3980
13361TIP3   OH261497   1.599   4.096  17.078 -0.0994  0.4331  0.1299
13361TIP3    H161498   1.505   4.076  17.083 -0.1062  0.6188  0.8035
13361TIP3    H261499   1.638   4.018  17.036 -0.5508  0.3557 -0.1485
13362TIP3   OH261500   2.887   0.895   0.097 -0.6704  0.3354 -0.2668
13362TIP3    H161501   2.897   0.989   0.106 -2.2098  0.4267  0.6414
13362TIP3    H261502   2.942   0.857   0.165 -0.8242  0.6092  0.0079
13363TIP3   OH261503   5.099   1.364  14.426  0.1334  0.2809 -0.0618
13363TIP3    H161504   5.118   1.458  14.423  0.0366  0.3217  0.5191
13363TIP3    H261505   5.104   1.342  14.519  0.8394 -0.4310 -0.2726
13364TIP3   OH261506   5.660   4.976  10.758  0.2601  0.4331  0.3802
13364TIP3    H161507   5.718   4.905  10.784  1.1876  1.2077  0.4269
13364TIP3    H261508   5.573   4.946  10.785  0.5755 -0.8870 -0.0345
13365TIP3   OH261509   6.342   5.107  11.947  0.5228  0.0680  0.0883
13365TIP3    H161510   6.274   5.153  11.898 -0.7450 -1.5262  0.2992
13365TIP3    H261511   6.348   5.155  12.030 -0.5925  0.0158  0.2069
13366TIP3   OH261512   2.177   5.992   2.368 -0.5884 -0.5000 -0.0580
13366TIP3    H161513   2.144   5.981   2.279  1.0006  0.2937 -0.7670
13366TIP3    H261514   2.254   6.047   2.358  0.2004 -1.2521  1.6976
13367TIP3   OH261515   3.815   6.726  12.259  0.0146  0.6581 -0.3896
13367TIP3    H161516   3.763   6.648  12.242 -0.6401  1.3242 -1.4798
13367TIP3    H261517   3.880   6.698  12.324 -0.2771 -0.7552 -0.6965
13368TIP3   OH261518   1.385   0.953   4.942  0.7259  0.2420  0.2274
13368TIP3    H161519   1.424   0.973   5.027  0.3169  0.4893  0.3577
13368TIP3    H261520   1.305   1.005   4.940 -0.8719 -2.1252  0.9722
13369TIP3   OH261521   3.769   5.639   4.882  0.2181  0.4287  0.0432
13369TIP3    H161522   3.810   5.554   4.868 -1.4895 -0.4777  0.3712
13369TIP3    H261523   3.821   5.680   4.952 -0.1753 -1.2156  1.3392
13370TIP3   OH261524   6.372   0.260  12.320  0.0718  0.2871  0.1348
13370TIP3    H161525   6.455   0.228  12.284  0.2426 -0.1341  0.8778
13370TIP3    H261526   6.305   0.210  12.274  0.3344 -1.2167  1.3113
13371TIP3   OH261527   0.809   0.058   2.138  0.2072 -0.2848  0.1270
13371TIP3    H161528   0.881   0.072   2.077  0.7041  2.3858  1.2515
13371TIP3    H261529   0.737   0.112   2.104 -0.1582 -0.3461  0.7774
13372TIP3   OH261530   4.535   1.132   0.411 -0.4473 -0.2767  0.0222
13372TIP3    H161531   4.569   1.204   0.464 -1.5393 -0.1523  0.5588
13372TIP3    H261532   4.520   1.170   0.325  0.3709 -0.2270 -0.1010
13373TIP3   OH261533   4.539   2.384   2.724  0.6425 -0.6241 -0.4825
13373TIP3    H161534   4.588   2.423   2.651 -1.4245  1.5973 -0.7530
13373TIP3    H261535   4.588   2.408   2.802  0.7347  0.4023 -0.8539
13374TIP3   OH261536   0.379   6.435  16.056 -0.3719  0.3200  0.3825
13374TIP3    H161537   0.303   6.406  16.005  1.0068 -1.5596 -0.6801
13374TIP3    H261538   0.343   6.464  16.139 -2.2379 -0.7262 -0.0471
13375TIP3   OH261539   1.913   0.822   4.287  0.4475  0.0648  0.0508
13375TIP3    H161540   1.979   0.856   4.348  0.4021  1.0385 -0.4291
13375TIP3    H261541   1.965   0.781   4.217  0.4968 -1.2339  0.8236
13376TIP3   OH261542   0.870   3.776   0.138 -0.3084 -0.2119 -0.4792
13376TIP3    H161543   0.832   3.746   0.220  0.1907 -0.0921 -0.2016
13376TIP3    H261544   0.811   3.743   0.070 -1.0021  0.1441 -0.0390
13377TIP3   OH261545   4.701   1.471   1.312 -0.0975 -0.3550 -0.2230
13377TIP3    H161546   4.750   1.539   1.358 -0.8673 -0.7665  1.2314
13377TIP3    H261547   4.757   1.393   1.319 -0.2598 -0.4427  0.1091
13378TIP3   OH261548   5.839   3.789  13.298  0.0020  0.0323  0.6596
13378TIP3    H161549   5.819   3.716  13.356 -1.8239 -0.1960 -0.2273
13378TIP3    H261550   5.866   3.860  13.357 -0.7309 -0.5487  1.7046
13379TIP3   OH261551   6.292   3.434  15.463  0.0786 -0.5681  0.3933
13379TIP3    H161552   6.233   3.412  15.391  1.1657 -0.0638 -0.6739
13379TIP3    H261553   6.329   3.519  15.439 -0.5769  0.2510  2.2193
13380TIP3   OH261554   5.115   6.571   2.578 -0.3412 -0.5583 -0.3601
13380TIP3    H161555   5.055   6.558   2.651 -0.3811 -2.7284 -0.7483
13380TIP3    H261556   5.172   6.494   2.579  0.7001  0.1531 -1.6404
13381TIP3   OH261557   2.168   1.310   4.047  0.0892 -0.0279  0.6167
13381TIP3    H161558   2.209   1.342   3.967 -1.6266  1.6633  0.3716
13381TIP3    H261559   2.168   1.214   4.038 -1.0902  0.1818 -1.9334
13382TIP3   OH261560   2.925   3.908  15.955  0.2296 -0.1372 -0.4670
13382TIP3    H161561   3.021   3.910  15.958  0.2043  0.1065  0.4424
13382TIP3    H261562   2.899   3.999  15.940  0.1079  0.0984  1.0436
13383TIP3   OH261563   6.208   1.726   1.025  0.5020 -0.1273 -0.6311
13383TIP3    H161564   6.227   1.744   1.118 -1.0322  0.2579 -0.3732
13383TIP3    H261565   6.294   1.722   0.983  1.1453  2.0286  0.4018
13384TIP3   OH261566   2.477   0.540  13.026  0.4618  0.3255  0.3257
13384TIP3    H161567   2.538   0.540  13.100  1.1182 -0.5119 -0.2203
13384TIP3    H261568   2.514   0.478  12.964 -0.3807  0.6229 -0.4772
13385TIP3   OH261569   2.300   3.791   0.994  0.3327 -0.7261  0.5988
13385TIP3    H161570   2.346   3.856   1.047  1.8644 -1.0556 -0.2937
13385TIP3    H261571   2.352   3.783   0.914 -0.9164 -1.6103 -0.1528
13386TIP3   OH261572   6.671   0.845  12.159 -0.0415  0.0184  0.2739
13386TIP3    H161573   6.698   0.773  12.217  1.5631 -0.2480 -0.7850
13386TIP3    H261574   6.616   0.802  12.093 -0.3065  0.0186  0.4900
13387TIP3   OH261575   4.249   5.491   2.051  0.1519 -0.0872 -0.2754
13387TIP3    H161576   4.320   5.467   1.992  1.3490 -0.5778  1.3131
13387TIP3    H261577   4.264   5.583   2.070 -1.4125  0.6160 -2.2867
13388TIP3   OH261578   1.372   5.122  12.263 -0.8423 -0.2866 -0.4962
13388TIP3    H161579   1.314   5.059  12.305  0.7510  0.9515  3.9167
13388TIP3    H261580   1.320   5.202  12.256  0.0264  0.7308  3.1808
13389TIP3   OH261581   3.100   4.597  16.126  0.5225  0.0837  0.0475
13389TIP3    H161582   3.156   4.566  16.198  2.6759  0.9687 -1.1850
13389TIP3    H261583   3.043   4.663  16.166  2.0062  0.8974  0.8627
13390TIP3   OH261584   0.264   6.315   3.676  0.0288 -0.2157 -0.1653
13390TIP3    H161585   0.293   6.402   3.646  0.5275 -0.1206  0.5931
13390TIP3    H261586   0.224   6.331   3.761 -1.1200 -0.5374 -0.6315
13391TIP3   OH261587   6.125   1.420  11.486 -0.3175  0.3618  0.2096
13391TIP3    H161588   6.071   1.398  11.410 -0.1717  3.3808 -0.8461
13391TIP3    H261589   6.071   1.480  11.537  0.1841 -0.4405  1.6997
13392TIP3   OH261590   0.525   5.604   4.678 -0.3675  0.1356  0.1335
13392TIP3    H161591   0.614   5.583   4.649 -0.1001  1.6363 -0.1820
13392TIP3    H261592   0.472   5.532   4.644  0.6975 -0.6833  0.1647
13393TIP3   OH261593   1.401   0.263   4.243 -0.0866 -0.6010 -0.1846
13393TIP3    H161594   1.440   0.219   4.319  0.3595 -3.0709 -1.7688
13393TIP3    H261595   1.472   0.318   4.209 -0.1652  0.2123  0.9691
13394TIP3   OH261596   0.110   3.894  11.779 -0.0668  0.0249  0.0962
13394TIP3    H161597   0.043   3.949  11.739  0.2534  0.2050 -0.1974
13394TIP3    H261598   0.190   3.914  11.730 -0.1200 -1.3102 -0.5586
13395TIP3   OH261599   6.704   4.288  14.547 -1.0236 -0.1238 -0.1913
13395TIP3    H161600   6.654   4.370  14.550  0.1049  0.5127  2.1190
13395TIP3    H261601   6.665   4.234  14.617  0.3258 -0.3146  0.4248
13396TIP3   OH261602   6.622   0.254   1.842 -0.1660 -0.1445  0.1829
13396TIP3    H161603   6.553   0.209   1.794 -1.4258  1.5369  0.3740
13396TIP3    H261604   6.703   0.211   1.813 -1.2450 -1.9363 -0.2599
13397TIP3   OH261605   3.540   0.899  13.162  0.0297  0.1288 -0.0729
13397TIP3    H161606   3.622   0.940  13.188  0.1997  0.1002 -0.5506
13397TIP3    H261607   3.484   0.971  13.133 -0.3364  0.2124  0.8320
13398TIP3   OH261608   5.084   4.501  15.550 -0.1067 -0.3818 -0.3181
13398TIP3    H161609   5.059   4.451  15.628 -2.2052 -1.7888 -1.8397
13398TIP3    H261610   5.012   4.563  15.537  1.0027  0.9499 -0.2349
13399TIP3   OH261611   6.327   4.610  12.519  0.3543  0.0592  0.5353
13399TIP3    H161612   6.352   4.522  12.545  0.9315 -0.1184 -0.6137
13399TIP3    H261613   6.410   4.656  12.504  0.0523  0.6198  0.5407
13400TIP3   OH261614   2.326   3.396  14.312 -0.0036 -0.2942  0.0950
13400TIP3    H161615   2.358   3.485  14.296 -1.1708 -0.3421 -2.6610
13400TIP3    H261616   2.231   3.407  14.322  0.0306 -1.0442  1.3599
13401TIP3   OH261617   0.876   5.006  12.137 -0.2069  0.2995  0.1726
13401TIP3    H161618   0.796   5.055  12.121  1.2025  2.5029 -0.3534
13401TIP3    H261619   0.847   4.917  12.153 -2.7166  0.9481 -0.5873
13402TIP3   OH261620   0.346   6.388  17.204  0.2593 -0.4846 -0.2870
13402TIP3    H161621   0.320   6.358  17.117  0.4210 -1.6280  0.0580
13402TIP3    H261622   0.436   6.418  17.192  0.6307 -1.5787 -0.3048
13403TIP3   OH261623   4.660   4.539  11.089  0.1064 -0.4063  0.1340
13403TIP3    H161624   4.641   4.592  11.166  0.8836 -0.4905  0.3842
13403TIP3    H261625   4.613   4.582  11.017  1.4259  1.1222  0.1583
13404TIP3   OH261626   6.529   2.375  12.404 -0.1248  0.1224 -0.3531
13404TIP3    H161627   6.501   2.466  12.405  0.4843  0.3104 -0.6841
13404TIP3    H261628   6.596   2.370  12.336 -0.1507 -0.5707 -0.3392
13405TIP3   OH261629   2.310   6.380   5.513 -0.3246  0.2405 -0.1126
13405TIP3    H161630   2.378   6.339   5.459 -0.9101 -0.2429 -0.4914
13405TIP3    H261631   2.337   6.471   5.521  1.7298 -0.5009  1.8887
13406TIP3   OH261632   2.648   4.898   5.772  0.2110  0.4858 -0.7663
13406TIP3    H161633   2.585   4.911   5.701  0.8160  0.0716 -1.3960
13406TIP3    H261634   2.733   4.920   5.733  0.5590  0.1847 -0.1957
13407TIP3   OH261635   3.353   4.317   5.880  0.0986 -0.5319  0.2221
13407TIP3    H161636   3.392   4.393   5.922 -0.9310 -0.5988  1.3184
13407TIP3    H261637   3.316   4.351   5.799 -1.7440  0.4613  1.4468
13408TIP3   OH261638   5.583   3.558   4.203 -0.3117  0.5828 -0.2895
13408TIP3    H161639   5.627   3.524   4.281 -1.5926  0.0158  0.1903
13408TIP3    H261640   5.510   3.610   4.237  0.0699  1.6594 -1.0768
13409TIP3   OH261641   3.888   2.017   1.058 -0.0360  0.0302  0.0448
13409TIP3    H161642   3.950   2.059   0.999  0.8299 -1.3206 -0.0407
13409TIP3    H261643   3.838   2.089   1.097  0.4579  1.0180 -1.1444
13410TIP3   OH261644   4.171   5.551  13.588  0.0616  0.3292  0.1664
13410TIP3    H161645   4.106   5.610  13.551 -0.6999  0.2905  1.4328
13410TIP3    H261646   4.236   5.541  13.518 -0.6076  1.4021 -0.6302
13411TIP3   OH261647   4.201   0.101  14.003  0.0037 -0.3080  0.1958
13411TIP3    H161648   4.136   0.156  13.959  0.5150  1.0532  1.0962
13411TIP3    H261649   4.201   0.018  13.954  0.7041  1.2136 -2.4922
13412TIP3   OH261650   3.900   1.598   1.525  0.0680  0.1466  0.2741
13412TIP3    H161651   3.994   1.583   1.510 -0.4109 -0.1731 -2.6907
13412TIP3    H261652   3.876   1.663   1.459 -1.9380 -0.2388  0.6073
13413TIP3   OH261653   3.302   6.405  15.084  0.7325 -0.0520  0.7555
13413TIP3    H161654   3.376   6.461  15.059  1.9825 -0.8516  2.5838
13413TIP3    H261655   3.241   6.465  15.128 -0.9464  1.1305 -2.9574
13414TIP3   OH261656   1.080   5.635   3.094  0.2793  0.2533  0.0146
13414TIP3    H161657   1.094   5.629   3.189 -0.2149  0.9096  0.1312
13414TIP3    H261658   1.072   5.729   3.077 -1.7765  0.0357 -0.3515
13415TIP3   OH261659   3.564   5.868   5.697  0.4103  0.4150  0.2119
13415TIP3    H161660   3.585   5.787   5.743 -1.7974 -1.1196 -1.3999
13415TIP3    H261661   3.592   5.851   5.607  1.4299  2.0717  0.1990
13416TIP3   OH261662   0.489   2.750  11.414 -0.4564  0.0291  0.3618
13416TIP3    H161663   0.395   2.764  11.403 -0.2194  0.5395 -1.1499
13416TIP3    H261664   0.519   2.720  11.328  0.9838  1.1159  0.4560
13417TIP3   OH261665   0.201   3.900   6.133 -0.3650  0.2509  0.3919
13417TIP3    H161666   0.254   3.972   6.099 -1.0199  0.9843  0.8800
13417TIP3    H261667   0.118   3.942   6.157 -0.1305 -0.3372  2.3388
13418TIP3   OH261668   4.393   2.397   3.582 -0.3944 -0.6280  0.2321
13418TIP3    H161669   4.400   2.357   3.668  2.9031 -0.5699  0.0664
13418TIP3    H261670   4.443   2.339   3.524 -0.4531  0.6315 -1.1384
13419TIP3   OH261671   1.140   6.046   1.483 -0.2308  0.1383  0.2180
13419TIP3    H161672   1.195   6.025   1.407 -0.1342  0.4692  0.1946
13419TIP3    H261673   1.053   6.016   1.459  0.0775 -1.0362  0.5347
13420TIP3   OH261674   4.974   6.774   5.895 -0.2387  0.0176 -0.6509
13420TIP3    H161675   5.025   6.841   5.940 -1.6612  0.5687  0.2114
13420TIP3    H261676   4.933   6.820   5.821  0.8157 -0.5109 -1.5721
13421TIP3   OH261677   1.367   3.924  10.221 -0.1452  0.3576 -0.0330
13421TIP3    H161678   1.387   4.002  10.170  1.5163 -1.4054 -2.1894
13421TIP3    H261679   1.279   3.898  10.192 -0.3091  0.8862 -0.0133
13422TIP3   OH261680   1.413   1.880   2.004  0.4934 -0.0216  0.8645
13422TIP3    H161681   1.508   1.885   1.991  0.3020  0.8658 -0.3179
13422TIP3    H261682   1.402   1.878   2.099  1.6615  0.8777  1.0356
13423TIP3   OH261683   3.171   5.939   4.024  0.0181  0.0970 -0.2110
13423TIP3    H161684   3.155   6.023   3.983 -2.8937  0.9343  2.3954
13423TIP3    H261685   3.123   5.876   3.971 -0.2813  0.5336 -0.4521
13424TIP3   OH261686   6.364   2.968   3.798  0.0907 -0.1372  0.2449
13424TIP3    H161687   6.373   3.063   3.795 -2.4877  0.1448  0.4228
13424TIP3    H261688   6.366   2.947   3.891  0.6820 -0.2621  0.2043
13425TIP3   OH261689   3.320   5.097  13.906  0.7542  0.1382  0.0508
13425TIP3    H161690   3.374   5.024  13.937 -0.1996 -0.3594  0.5509
13425TIP3    H261691   3.346   5.109  13.815  1.4051 -0.3767  0.1655
13426TIP3   OH261692   6.368   5.692   3.121  0.4795 -0.6105 -0.3610
13426TIP3    H161693   6.426   5.719   3.192 -0.4284 -0.2827  0.2585
13426TIP3    H261694   6.317   5.770   3.100 -0.7183 -1.2756  0.0400
13427TIP3   OH261695   1.273   5.527  16.823 -0.3746  0.4150 -0.6241
13427TIP3    H161696   1.251   5.600  16.765 -2.1078 -0.0671 -0.5872
13427TIP3    H261697   1.364   5.506  16.801  0.1486  2.5438 -0.6793
13428TIP3   OH261698   4.404   3.774  13.566  0.1720  0.1447 -0.2994
13428TIP3    H161699   4.402   3.751  13.659  0.0846 -0.2607 -0.4022
13428TIP3    H261700   4.351   3.707  13.524  1.2137 -0.3892 -0.7933
13429TIP3   OH261701   6.702   2.916   1.396 -0.0356  0.6207  0.1683
13429TIP3    H161702   6.758   2.884   1.467 -1.4510 -3.8587 -0.5561
13429TIP3    H261703   6.613   2.902   1.428 -0.6967  1.2624 -1.3401
13430TIP3   OH261704   4.936   2.671  13.859  0.0021  0.0611 -0.3037
13430TIP3    H161705   4.936   2.591  13.911  1.9873 -0.3884 -0.9205
13430TIP3    H261706   4.896   2.737  13.915 -2.3583 -1.5300 -0.0739
13431TIP3   OH261707   1.772   5.204   0.136 -0.2599  0.1415 -0.0119
13431TIP3    H161708   1.708   5.193   0.207  0.8132 -1.7154  0.7122
13431TIP3    H261709   1.749   5.137   0.072  1.6713 -1.3836  0.8330
13432TIP3   OH261710   6.239   6.382   0.469 -0.0718 -0.2410 -0.7049
13432TIP3    H161711   6.232   6.431   0.387  1.1938 -0.1703 -0.7757
13432TIP3    H261712   6.228   6.290   0.442  0.5742 -0.2373 -0.9860
13433TIP3   OH261713   3.172   3.445  12.579  0.3352 -0.0075 -0.2331
13433TIP3    H161714   3.242   3.508  12.598 -0.1002  0.3716  0.1100
13433TIP3    H261715   3.100   3.471  12.636 -0.2558 -0.1094 -0.9331
13434TIP3   OH261716   6.287   2.760  10.694  0.0145 -0.1500  0.2411
13434TIP3    H161717   6.277   2.854  10.703 -0.7542 -0.2260  0.2169
13434TIP3    H261718   6.267   2.725  10.781  1.7534 -0.1835  0.6411
13435TIP3   OH261719   6.388   3.672  15.312 -0.1809  0.1660  0.1046
13435TIP3    H161720   6.334   3.714  15.245  0.5009 -1.2810 -1.4043
13435TIP3    H261721   6.452   3.621  15.262  0.7427 -0.4402  1.8691
13436TIP3   OH261722   6.636   4.427   5.035  0.3988  0.2915 -0.3374
13436TIP3    H161723   6.567   4.384   4.985  1.0099  0.1105 -1.0342
13436TIP3    H261724   6.591   4.463   5.111 -0.0951 -1.8086  0.4197
13437TIP3   OH261725   3.257   0.834   0.310 -0.0238  0.5754 -0.1785
13437TIP3    H161726   3.296   0.820   0.223 -0.0848  0.7306 -0.2319
13437TIP3    H261727   3.211   0.918   0.302  0.4417  0.8662  0.1670
13438TIP3   OH261728   3.468   3.450  11.246  0.3408  0.2007  0.0136
13438TIP3    H161729   3.416   3.474  11.169 -0.3531  0.3690  0.5241
13438TIP3    H261730   3.468   3.528  11.301  2.6045  0.7640 -0.7670
13439TIP3   OH261731   0.324   6.517  16.381 -0.0512 -0.0077  0.0591
13439TIP3    H161732   0.380   6.518  16.458  1.7315 -1.0379 -1.1717
13439TIP3    H261733   0.286   6.605  16.378  2.1557  0.9991  0.4850
13440TIP3   OH261734   4.441   5.513  16.562 -0.0535  0.2448  0.7403
13440TIP3    H161735   4.422   5.593  16.612 -0.2871 -0.2560  1.4665
13440TIP3    H261736   4.406   5.442  16.617 -0.2633 -0.3183 -0.1147
13441TIP3   OH261737   0.914   2.489   0.247  0.4194 -0.0098 -0.3965
13441TIP3    H161738   0.859   2.565   0.267  1.0050  0.0854  0.9296
13441TIP3    H261739   0.995   2.526   0.214 -0.5868 -0.1725 -3.1647
13442TIP3   OH261740   0.957   6.684   6.543 -0.4772 -0.0203  0.0264
13442TIP3    H161741   1.037   6.679   6.595 -0.1137 -1.1701 -0.6280
13442TIP3    H261742   0.957   6.772   6.506  0.2373  0.1422  0.4167
13443TIP3   OH261743   1.018   5.750   4.444  1.0126 -0.0691 -0.0777
13443TIP3    H161744   1.026   5.729   4.537 -1.8129  1.0578  0.4656
13443TIP3    H261745   0.980   5.672   4.404 -0.7063  0.5509  0.2974
13444TIP3   OH261746   6.038   2.941  13.929 -0.3543 -0.2198  0.4866
13444TIP3    H161747   6.077   2.986  13.855 -2.3229 -0.4286 -0.7102
13444TIP3    H261748   6.111   2.894  13.970  0.9314  0.7101 -0.7023
13445TIP3   OH261749   6.173   3.342  16.427 -0.3138  0.1717 -0.3754
13445TIP3    H161750   6.132   3.362  16.511 -2.4875 -0.4066 -1.2411
13445TIP3    H261751   6.160   3.421  16.374 -1.7087 -0.5356 -1.1415
13446TIP3   OH261752   4.782   2.463  16.518  0.5343 -0.4434 -0.3398
13446TIP3    H161753   4.694   2.472  16.556 -0.3445  0.3193 -2.4800
13446TIP3    H261754   4.807   2.552  16.496  1.2971 -0.8135 -0.9721
13447TIP3   OH261755   6.626   4.023  12.021 -0.0847  0.1651  0.1324
13447TIP3    H161756   6.614   4.008  11.927 -1.8080  1.8345  0.0572
13447TIP3    H261757   6.591   3.945  12.062 -0.6852  0.0598 -0.5625
13448TIP3   OH261758   2.965   5.663  15.100 -0.1172  0.1351  0.4300
13448TIP3    H161759   2.923   5.621  15.025 -0.6367 -2.1699  1.9476
13448TIP3    H261760   2.957   5.757  15.082 -0.9968 -0.3399 -1.9598
13449TIP3   OH261761   2.587   5.231  14.113  0.2001  0.1360  0.5705
13449TIP3    H161762   2.522   5.185  14.167 -1.5439 -0.5208 -2.0159
13449TIP3    H261763   2.646   5.162  14.084 -1.1977 -0.2086 -1.5847
13450TIP3   OH261764   1.524   1.150   6.163  0.5156  1.2229 -0.1095
13450TIP3    H161765   1.612   1.112   6.164  0.9739  2.2097 -1.1003
13450TIP3    H261766   1.501   1.160   6.255  0.0644 -2.1178  0.1788
13451TIP3   OH261767   4.845   4.797  10.601  0.0813  0.0369 -0.2275
13451TIP3    H161768   4.773   4.857  10.616 -1.1093 -1.7035  1.3241
13451TIP3    H261769   4.897   4.837  10.531 -1.4540  2.1206 -0.2007
13452TIP3   OH261770   3.755   0.942  16.595  0.7132  0.2236  0.0871
13452TIP3    H161771   3.764   1.028  16.553  0.5004  0.0670 -0.2755
13452TIP3    H261772   3.845   0.918  16.620  0.5741  1.4021  1.8729
13453TIP3   OH261773   4.828   0.907  17.191  1.2582 -0.3952  0.0003
13453TIP3    H161774   4.810   0.814  17.182  1.1937 -0.3700 -0.1391
13453TIP3    H261775   4.874   0.916  17.275 -0.0293 -0.3650  0.7019
13454TIP3   OH261776   0.789   1.563   4.703  0.1394  0.2237  0.9678
13454TIP3    H161777   0.853   1.536   4.638  0.2301  0.9323  0.7575
13454TIP3    H261778   0.748   1.482   4.732 -0.3130 -0.0538 -0.4001
13455TIP3   OH261779   1.687   6.526  12.645  0.0505 -0.1168 -0.2021
13455TIP3    H161780   1.755   6.507  12.710 -0.5799  1.7089  1.0308
13455TIP3    H261781   1.605   6.504  12.689 -0.6196  4.0823  0.8450
13456TIP3   OH261782   2.252   3.068   4.494  0.1083 -0.2837 -0.7728
13456TIP3    H161783   2.310   3.078   4.569 -0.1349 -0.2049 -0.5940
13456TIP3    H261784   2.197   3.146   4.496 -2.2225 -1.9048  0.9930
13457TIP3   OH261785   0.049   3.041   0.990  1.1050  0.0639  0.6173
13457TIP3    H161786  -0.044   3.048   1.012  0.8757  1.2792 -0.6057
13457TIP3    H261787   0.080   2.964   1.037 -0.8023 -1.0317  0.1253
13458TIP3   OH261788   0.214   0.597   2.222 -0.3039  0.2394 -0.3963
13458TIP3    H161789   0.297   0.571   2.182 -0.6818  1.1011 -1.7419
13458TIP3    H261790   0.236   0.673   2.275  0.4285 -1.6030  2.0346
13459TIP3   OH261791   0.632   1.510  15.031 -0.5995 -0.5874 -0.1309
13459TIP3    H161792   0.631   1.597  14.990  4.2582  0.2687  1.1441
13459TIP3    H261793   0.667   1.452  14.964 -0.7445 -0.8986  0.0596
13460TIP3   OH261794   0.783   1.011  16.692 -0.1795  0.0935 -0.5237
13460TIP3    H161795   0.845   1.015  16.619  0.9656  1.7057  0.5015
13460TIP3    H261796   0.785   0.920  16.721  2.6558  0.3622  0.2705
13461TIP3   OH261797   2.505   2.547  14.514  0.5655 -0.3173  0.2225
13461TIP3    H161798   2.531   2.614  14.450  3.3459 -3.3359 -1.9857
13461TIP3    H261799   2.579   2.542  14.574 -1.3079  1.2787  2.7362
13462TIP3   OH261800   5.564   0.371   3.565  0.0997  0.0258  0.0728
13462TIP3    H161801   5.651   0.378   3.604 -0.6616  0.3643  1.7554
13462TIP3    H261802   5.579   0.383   3.471  1.5643  2.7345  0.5957
13463TIP3   OH261803   2.065   0.697   3.266  0.6965  0.0388 -0.6407
13463TIP3    H161804   2.074   0.751   3.188 -0.2045  0.0686 -0.7308
13463TIP3    H261805   2.012   0.623   3.238  2.7747 -1.4306 -0.7787
13464TIP3   OH261806   3.857   1.136  13.532 -0.5234 -0.0520  0.4124
13464TIP3    H161807   3.825   1.160  13.445  0.2367  0.4146  0.2559
13464TIP3    H261808   3.906   1.213  13.562  1.0093 -0.9873  0.3622
13465TIP3   OH261809   3.635   3.149  17.184 -0.2459  0.4803  0.7324
13465TIP3    H161810   3.610   3.098  17.107  0.6492  0.0594  0.7155
13465TIP3    H261811   3.698   3.094  17.230  0.0360  1.1856  1.1990
13466TIP3   OH261812   0.602   6.786   4.949 -0.6196  0.3824 -0.0994
13466TIP3    H161813   0.616   6.873   4.912 -0.7467  0.2391 -0.4910
13466TIP3    H261814   0.551   6.802   5.029  2.5016  0.9888  1.8573
13467TIP3   OH261815   1.193   1.616   3.475  0.1889  0.1010 -0.0578
13467TIP3    H161816   1.243   1.605   3.394  0.0190  1.1702 -0.3157
13467TIP3    H261817   1.252   1.664   3.533  0.6477 -1.4528  0.7877
13468TIP3   OH261818   1.321   2.413  10.561  0.1829 -0.2663  0.0372
13468TIP3    H161819   1.384   2.365  10.613 -0.6418  0.0631  1.3709
13468TIP3    H261820   1.267   2.345  10.520  1.5927 -0.5549 -1.3842
13469TIP3   OH261821   5.190   2.532  12.253  0.1968 -0.1620  0.4042
13469TIP3    H161822   5.118   2.478  12.285 -1.3276  0.9341 -1.1157
13469TIP3    H261823   5.269   2.491  12.291 -1.3464  0.0033  4.0180
13470TIP3   OH261824   6.781   1.673  15.743  0.4076 -0.5713 -0.4198
13470TIP3    H161825   6.695   1.668  15.700 -0.2321  1.2334  0.6094
13470TIP3    H261826   6.844   1.657  15.672 -0.7429 -0.9118 -1.3839
13471TIP3   OH261827   2.478   5.953   1.038 -0.3217 -0.5944 -0.4809
13471TIP3    H161828   2.409   5.886   1.031 -1.1040 -0.0754  1.6959
13471TIP3    H261829   2.510   5.944   1.128  2.1385 -0.4840 -1.3195
13472TIP3   OH261830   3.445   5.860  14.678  0.5939 -0.6005  0.3532
13472TIP3    H161831   3.395   5.849  14.597 -0.0146  0.3935  0.5828
13472TIP3    H261832   3.456   5.771  14.712 -1.3887 -0.8036  0.5041
13473TIP3   OH261833   4.723   6.306  15.819  0.1274  0.1047  0.5978
13473TIP3    H161834   4.740   6.329  15.910  0.9082 -0.8978  0.7133
13473TIP3    H261835   4.742   6.386  15.771  0.1322  0.5118  1.2687
13474TIP3   OH261836   0.639   2.058   1.116  0.1735  0.2534 -0.1569
13474TIP3    H161837   0.634   2.045   1.211  1.2400  0.7473 -0.0249
13474TIP3    H261838   0.582   2.132   1.099 -0.8665 -0.5108 -0.0516
13475TIP3   OH261839   2.444   5.424  11.569  0.1087 -0.6849  0.1393
13475TIP3    H161840   2.433   5.330  11.576 -1.4873 -0.5839 -0.8123
13475TIP3    H261841   2.441   5.441  11.474 -1.0437  0.4758  0.3720
13476TIP3   OH261842   0.744   2.688   2.224  0.7937 -0.2589  0.8713
13476TIP3    H161843   0.659   2.647   2.208  0.3759  0.6454  0.7130
13476TIP3    H261844   0.757   2.747   2.150  0.9924  0.5069  1.5011
13477TIP3   OH261845   3.080   2.501  14.700 -0.4247  0.0370  0.4772
13477TIP3    H161846   3.174   2.517  14.705 -0.3705  0.0627 -0.4459
13477TIP3    H261847   3.055   2.471  14.787  0.7480 -1.5792  0.2758
13478TIP3   OH261848   5.646   5.854   1.698 -0.1277 -0.4391  0.1402
13478TIP3    H161849   5.655   5.777   1.640  0.2952  0.8507 -1.5605
13478TIP3    H261850   5.706   5.836   1.770  0.0096 -1.6986 -0.2707
13479TIP3   OH261851   4.632   6.411  16.587 -0.4793  0.4151 -0.6844
13479TIP3    H161852   4.699   6.362  16.539  0.8988 -0.3517  1.9116
13479TIP3    H261853   4.649   6.502  16.565  1.8255  0.2766  0.3336
13480TIP3   OH261854   6.470   0.788   0.004  0.6759 -0.3832  0.0757
13480TIP3    H161855   6.433   0.723   0.064 -1.3116  0.8218  0.2129
13480TIP3    H261856   6.540   0.742  -0.041 -0.6664 -2.6131  0.1889
13481TIP3   OH261857   2.598   1.788   5.930  0.3578  0.0107 -0.0125
13481TIP3    H161858   2.654   1.866   5.926 -1.1572  0.9941 -4.6391
13481TIP3    H261859   2.546   1.801   6.009  0.5110  3.4685 -0.3974
13482TIP3   OH261860   3.517   6.237   4.159 -0.8471  0.0707  0.2720
13482TIP3    H161861   3.524   6.163   4.099  1.2257  0.2275  0.2732
13482TIP3    H261862   3.479   6.201   4.239  0.2180 -1.0236  0.2954
13483TIP3   OH261863   3.630   2.990  14.287 -0.5985 -0.3351  0.7687
13483TIP3    H161864   3.720   2.994  14.254 -0.8271  1.9839  0.3962
13483TIP3    H261865   3.579   2.958  14.213 -0.3506  0.0702  0.4233
13484TIP3   OH261866   3.244   0.486  13.164  0.3788  0.0692 -0.0005
13484TIP3    H161867   3.227   0.449  13.251 -2.5039  0.9713 -0.1544
13484TIP3    H261868   3.278   0.573  13.182 -0.8541  0.5091  0.2199
13485TIP3   OH261869   2.129   0.368   5.525  0.0517 -0.2163  0.3458
13485TIP3    H161870   2.112   0.292   5.581 -0.8453  0.6826  1.3241
13485TIP3    H261871   2.050   0.378   5.473  0.9330 -1.1240 -1.2094
13486TIP3   OH261872   1.409   4.795   0.086  0.3137  0.5826  0.3667
13486TIP3    H161873   1.394   4.742   0.008  2.1119  0.2628  0.2206
13486TIP3    H261874   1.334   4.854   0.090  0.0792  0.4229 -1.4696
13487TIP3   OH261875   4.304   0.639   5.056 -0.3772  0.1010 -0.1532
13487TIP3    H161876   4.303   0.657   5.150 -0.7384 -2.7497  0.4476
13487TIP3    H261877   4.212   0.643   5.030 -0.3312  0.3702 -0.2721
13488TIP3   OH261878   0.702   3.881  16.573 -0.2410 -0.0896  0.7402
13488TIP3    H161879   0.662   3.866  16.488  0.4166 -2.1193  0.7464
13488TIP3    H261880   0.633   3.922  16.625 -0.6317  1.1987 -0.7515
13489TIP3   OH261881   5.643   3.123  11.995  0.1364  0.7089  0.1088
13489TIP3    H161882   5.657   3.154  11.905 -0.4297  3.2203  0.8371
13489TIP3    H261883   5.587   3.046  11.985  0.6404  0.5426 -1.7272
13490TIP3   OH261884   5.520   5.384   1.420 -0.2149 -0.4711  0.2983
13490TIP3    H161885   5.606   5.416   1.447  0.1585 -0.9074 -0.3664
13490TIP3    H261886   5.527   5.289   1.424 -0.3240 -0.5350 -0.7782
13491TIP3   OH261887   4.836   6.036   2.275  0.3407  0.1766 -0.1785
13491TIP3    H161888   4.873   5.952   2.248 -2.6924 -0.7727 -1.5921
13491TIP3    H261889   4.810   6.023   2.366  2.1753  0.4214  0.3967
13492TIP3   OH261890   0.090   2.440  13.122  0.2494  0.0256  0.0899
13492TIP3    H161891   0.090   2.376  13.194 -0.1062 -2.0220 -1.6743
13492TIP3    H261892   0.182   2.458  13.105  0.3923 -0.8916 -0.1352
13493TIP3   OH261893   5.962   0.016  16.554 -0.3276  0.6313  0.1121
13493TIP3    H161894   6.005   0.009  16.639 -1.6558  0.8774  0.8144
13493TIP3    H261895   5.882  -0.036  16.564 -0.0337 -0.1038 -1.2841
13494TIP3   OH261896   2.741   0.855  15.562  0.7744 -0.0939  0.7585
13494TIP3    H161897   2.836   0.862  15.572  0.7792 -1.7376  2.0843
13494TIP3    H261898   2.717   0.779  15.616 -0.8724 -1.7218 -2.1292
13495TIP3   OH261899   3.052   2.011  12.007 -0.3132 -0.3681  0.1824
13495TIP3    H161900   3.007   1.969  12.080 -0.2779  0.7606  0.8707
13495TIP3    H261901   3.005   2.094  11.995  0.9273  0.3608  0.2453
13496TIP3   OH261902   4.469   2.760   5.394 -0.0551 -0.6982 -0.6596
13496TIP3    H161903   4.414   2.785   5.321  0.6014  0.6680 -0.7070
13496TIP3    H261904   4.556   2.749   5.356  0.1092 -0.8915 -0.2383
13497TIP3   OH261905   2.054   6.703   5.063  0.2282 -0.0150  0.1781
13497TIP3    H161906   2.126   6.740   5.012 -0.2694  0.5778 -0.1060
13497TIP3    H261907   1.986   6.771   5.060 -0.0279 -0.2305  1.1268
13498TIP3   OH261908   1.833   1.914  14.599 -0.0415 -0.0498  0.0361
13498TIP3    H161909   1.814   1.861  14.521 -1.5145  0.9954 -0.3549
13498TIP3    H261910   1.756   1.970  14.608  0.9420  1.1388  1.1656
13499TIP3   OH261911   0.831   3.753  14.570 -0.9366  0.0400 -0.2467
13499TIP3    H161912   0.842   3.761  14.665  1.8348 -0.4050 -0.5052
13499TIP3    H261913   0.859   3.664  14.550 -0.9581  0.3298 -1.5784
13500TIP3   OH261914   3.282   5.039   4.020 -0.0266  0.0385  0.7882
13500TIP3    H161915   3.217   4.981   3.980  1.3831 -1.3991  0.5526
13500TIP3    H261916   3.284   5.116   3.963  0.2382 -0.9702 -0.5901
13501TIP3   OH261917   0.066   0.943   4.043 -0.6149 -0.1352  0.1297
13501TIP3    H161918   0.004   0.912   3.977 -1.4966  1.0656  0.3643
13501TIP3    H261919   0.018   1.012   4.089  0.3421 -0.2837  1.3663
13502TIP3   OH261920   0.378   3.575  13.396  0.1011 -0.1924  0.1800
13502TIP3    H161921   0.382   3.504  13.461  1.9660 -1.4315 -1.1962
13502TIP3    H261922   0.441   3.639  13.427 -1.2522  0.6639  1.1868
13503TIP3   OH261923   5.112   0.055   1.173  0.3936 -0.0576  0.0814
13503TIP3    H161924   5.018   0.052   1.153  0.8318  0.1602 -2.2185
13503TIP3    H261925   5.136   0.147   1.160  1.1489 -0.3376 -0.5906
13504TIP3   OH261926   3.103   1.699  16.974 -0.1728  0.0957  0.5198
13504TIP3    H161927   3.157   1.761  16.925 -2.0173  1.0685 -0.3206
13504TIP3    H261928   3.043   1.662  16.909  0.1766 -1.7838  1.2230
13505TIP3   OH261929   5.270   1.761   4.467  0.0772  0.2650  0.4745
13505TIP3    H161930   5.214   1.803   4.533 -0.4079 -0.2708  0.4088
13505TIP3    H261931   5.246   1.803   4.385  0.6477  0.9000  0.6260
13506TIP3   OH261932   1.026   5.744  15.876  0.5619 -0.1102  0.6437
13506TIP3    H161933   1.071   5.659  15.876  0.2642 -0.3586 -2.9999
13506TIP3    H261934   0.945   5.728  15.827  0.7364  2.3501 -0.5378
13507TIP3   OH261935   5.787   2.861  11.198 -0.0190  0.7780  0.0212
13507TIP3    H161936   5.838   2.805  11.140  1.2538  0.4807  1.3877
13507TIP3    H261937   5.696   2.842  11.176  0.3788 -1.8756  0.5183
13508TIP3   OH261938   1.743   5.547  12.559  0.5235 -0.4319 -0.6057
13508TIP3    H161939   1.699   5.463  12.572 -1.5350  0.8518  1.1506
13508TIP3    H261940   1.781   5.568  12.645 -2.7414  2.4538  0.2422
13509TIP3   OH261941   1.957   4.885  12.908 -0.2229  0.1053  0.0233
13509TIP3    H161942   1.990   4.973  12.893 -2.4575  0.9965  0.1072
13509TIP3    H261943   2.015   4.828  12.857  1.8743  1.5010  0.8134
13510TIP3   OH261944   5.597   6.337   5.126  0.0849 -0.5131 -0.2204
13510TIP3    H161945   5.542   6.410   5.098  0.3495 -0.1885  0.1004
13510TIP3    H261946   5.619   6.291   5.045 -2.1092 -1.6984 -0.1959
13511TIP3   OH261947   1.071   1.957   0.878 -0.0607 -0.2177 -0.4721
13511TIP3    H161948   1.048   2.014   0.952 -1.2621 -1.3511  0.0354
13511TIP3    H261949   1.105   1.877   0.919  0.8872 -0.1833 -1.1741
13512TIP3   OH261950   5.867   3.267   3.616 -0.0208  0.1933 -0.0211
13512TIP3    H161951   5.789   3.248   3.669  0.3468  0.6070  0.6742
13512TIP3    H261952   5.860   3.207   3.541 -0.7698 -0.0920  0.2695
13513TIP3   OH261953   6.322   0.631   0.601  0.0471  0.2529  0.3897
13513TIP3    H161954   6.317   0.677   0.685  0.3183  0.0944  0.4948
13513TIP3    H261955   6.233   0.601   0.584 -0.1226  0.7731  0.3431
13514TIP3   OH261956   6.454   6.771  16.938 -0.4536 -0.3879  0.3855
13514TIP3    H161957   6.369   6.811  16.923 -0.9587 -1.7840 -0.5982
13514TIP3    H261958   6.513   6.845  16.952 -1.2901  0.7388 -1.7715
13515TIP3   OH261959   3.045   3.131   2.489  0.3170 -0.0825 -0.1635
13515TIP3    H161960   3.068   3.223   2.477 -0.0295  0.0074 -0.1677
13515TIP3    H261961   3.078   3.109   2.576 -1.5456  0.6828  0.7690
13516TIP3   OH261962   0.895   1.764   2.605  0.2650  0.0395 -0.2545
13516TIP3    H161963   0.800   1.777   2.602  0.3337  0.3132 -1.2872
13516TIP3    H261964   0.927   1.803   2.524  0.9849 -2.3565 -1.1347
13517TIP3   OH261965   4.522   1.081  15.677 -0.0034  0.2588 -0.1913
13517TIP3    H161966   4.499   1.089  15.584  0.6657 -2.0254 -0.5829
13517TIP3    H261967   4.438   1.078  15.722 -0.3416  0.8232 -0.7682
13518TIP3   OH261968   3.556   0.821  15.906 -0.2155 -0.0843 -0.1971
13518TIP3    H161969   3.579   0.914  15.914 -2.3954  0.5145 -0.5712
13518TIP3    H261970   3.530   0.796  15.995 -1.0767  0.0739 -0.4018
13519TIP3   OH261971   4.288   0.799   1.781  0.3690 -0.3443  0.0244
13519TIP3    H161972   4.298   0.777   1.874  1.2222 -1.5730 -0.3307
13519TIP3    H261973   4.272   0.893   1.780  1.6882 -0.0705  1.3494
13520TIP3   OH261974   6.265   2.555   2.412  0.1893 -0.7921  0.4685
13520TIP3    H161975   6.298   2.549   2.501 -1.7414 -1.1787  1.1906
13520TIP3    H261976   6.171   2.567   2.422 -0.1324 -1.3903 -1.5190
13521TIP3   OH261977   2.390   3.307  15.202 -0.3722  0.0238  0.4365
13521TIP3    H161978   2.473   3.343  15.172 -1.2937  1.1423 -0.8060
13521TIP3    H261979   2.411   3.217  15.228  0.9100 -0.1839 -1.2645
13522TIP3   OH261980   5.530   3.476  10.390  0.1701  0.1070 -0.0008
13522TIP3    H161981   5.586   3.417  10.440  0.3371  0.9805  0.8681
13522TIP3    H261982   5.571   3.479  10.303  1.1593  0.2983  0.4555
13523TIP3   OH261983   1.478   1.314  11.209 -0.1935 -0.2342  0.1672
13523TIP3    H161984   1.402   1.272  11.169 -0.7484 -1.4460  2.3764
13523TIP3    H261985   1.494   1.391  11.156 -3.2770  0.3168 -0.0646
13524TIP3   OH261986   3.357   6.313   4.522  0.0988  0.0304  0.2395
13524TIP3    H161987   3.448   6.341   4.538 -0.2109  0.7808  0.6951
13524TIP3    H261988   3.304   6.377   4.568 -0.7073  0.1617 -0.8506
13525TIP3   OH261989   1.737   3.565  14.168  0.1782  1.0846 -0.0606
13525TIP3    H161990   1.777   3.482  14.190 -0.3736  1.0689  0.8874
13525TIP3    H261991   1.644   3.552  14.184 -0.2071  1.1892 -2.0370
13526TIP3   OH261992   1.726   5.859  16.270  0.0886  0.5201  0.4344
13526TIP3    H161993   1.665   5.932  16.281  2.2628  2.3180  0.7893
13526TIP3    H261994   1.742   5.826  16.358 -0.7535 -0.3230  0.2910
13527TIP3   OH261995   1.143   1.527   2.698  0.0910 -0.2712 -0.7593
13527TIP3    H161996   1.140   1.510   2.792  1.2191 -1.2217 -0.8775
13527TIP3    H261997   1.175   1.445   2.660 -0.0728  0.2012 -1.9443
13528TIP3   OH261998   0.763   0.018   4.350  0.5470 -0.6298 -0.0095
13528TIP3    H161999   0.762  -0.022   4.437  0.7416  2.3759  1.4116
13528TIP3    H262000   0.754   0.112   4.366 -0.3677 -0.0934 -3.2928
13529TIP3   OH262001   6.564   2.574  16.480  0.1259 -1.0701  0.0272
13529TIP3    H162002   6.474   2.557  16.454 -0.9556  1.8147  1.7148
13529TIP3    H262003   6.577   2.521  16.559 -0.6025 -0.2840  0.6734
13530TIP3   OH262004   4.464   1.307   6.055  0.4507 -0.4462 -0.0299
13530TIP3    H162005   4.520   1.281   6.128  1.2752  0.4930 -0.3238
13530TIP3    H262006   4.521   1.305   5.979 -0.5925 -2.2082 -0.8081
13531TIP3   OH262007   1.676   0.169  15.097  0.0072  0.7523 -0.4077
13531TIP3    H162008   1.621   0.113  15.042 -2.1023  0.3306  2.0012
13531TIP3    H262009   1.712   0.109  15.163  0.3249  1.6938  0.2847
13532TIP3   OH262010   1.455   1.185   4.683 -0.5473 -0.2946  0.4910
13532TIP3    H162011   1.441   1.098   4.721 -1.8286 -0.3415 -0.0594
13532TIP3    H262012   1.370   1.208   4.645 -0.0417  0.9384  0.1019
13533TIP3   OH262013   4.514   5.350   1.601 -0.4134 -0.1203 -0.4642
13533TIP3    H162014   4.442   5.413   1.607 -0.0895  0.1060  1.3145
13533TIP3    H262015   4.562   5.377   1.523 -1.4436  0.5935 -0.8633
13534TIP3   OH262016   6.334   6.147   4.985 -0.4673 -0.3695 -0.2170
13534TIP3    H162017   6.354   6.073   4.927 -0.7017  0.2886 -1.1568
13534TIP3    H262018   6.329   6.109   5.072 -1.3582 -1.5977 -0.7955
13535TIP3   OH262019   0.063   2.523  14.518  0.6580 -0.0961 -0.1257
13535TIP3    H162020   0.126   2.548  14.587  1.5982 -1.2067 -0.5628
13535TIP3    H262021   0.108   2.545  14.437 -0.3566  0.9849 -0.4107
13536TIP3   OH262022   1.254   6.268  13.037 -0.0908  0.3371 -0.0464
13536TIP3    H162023   1.232   6.360  13.052  2.1226  1.0782 -1.1286
13536TIP3    H262024   1.231   6.225  13.119 -2.0726  1.6484  0.1515
13537TIP3   OH262025   0.898   1.277  13.165 -0.0911  0.2736  0.5560
13537TIP3    H162026   0.898   1.199  13.109 -1.4034  0.6670 -0.0098
13537TIP3    H262027   0.938   1.248  13.247 -0.9716 -1.1210  0.5061
13538TIP3   OH262028   3.814   3.504  16.637 -0.0912 -0.1483  0.5421
13538TIP3    H162029   3.763   3.584  16.645 -0.3813 -0.3774  0.9475
13538TIP3    H262030   3.749   3.434  16.630  0.1390 -0.6305  2.7917
13539TIP3   OH262031   3.443   1.240   6.236 -0.1580 -0.9605  0.4039
13539TIP3    H162032   3.447   1.317   6.294  1.5956  0.2390 -1.2318
13539TIP3    H262033   3.352   1.235   6.209 -0.4741  0.0104  1.2380
13540TIP3   OH262034   1.352   4.015  17.145 -0.1137  0.9978  0.0969
13540TIP3    H162035   1.264   4.041  17.173 -0.9095 -0.7609 -0.6864
13540TIP3    H262036   1.396   3.987  17.225 -0.9226  0.0767  0.2228
13541TIP3   OH262037   5.114   5.157   6.229  0.7895 -0.4188 -0.1996
13541TIP3    H162038   5.019   5.152   6.221  0.7070 -0.0051  0.5846
13541TIP3    H262039   5.136   5.094   6.297  0.8380  1.2912  1.4017
13542TIP3   OH262040   4.873   2.171   0.355 -0.3423 -0.2032  0.6589
13542TIP3    H162041   4.878   2.239   0.288  0.9863  0.3243  1.2838
13542TIP3    H262042   4.783   2.176   0.388 -1.0965 -0.6506 -1.2528
13543TIP3   OH262043   4.949   5.252  13.683  0.0817 -0.6221  0.0193
13543TIP3    H162044   4.950   5.160  13.708 -1.8104 -0.0453  2.3587
13543TIP3    H262045   4.958   5.251  13.587 -1.1878 -3.2900 -0.1163
13544TIP3   OH262046   4.031   1.564  10.872 -0.8738  0.4948  0.3873
13544TIP3    H162047   4.064   1.650  10.846  0.0969  0.1620  0.5216
13544TIP3    H262048   4.089   1.536  10.942 -1.3746 -0.1417  0.5505
13545TIP3   OH262049   2.525   6.637   3.534 -0.0968  0.6170 -0.4482
13545TIP3    H162050   2.591   6.570   3.554 -1.1758  0.0976  1.4558
13545TIP3    H262051   2.477   6.600   3.459  1.9853  1.1850 -2.1180
13546TIP3   OH262052   6.571   0.008   2.998 -0.3832  0.1225  0.1881
13546TIP3    H162053   6.619   0.074   2.947  0.4588  0.6136  1.6118
13546TIP3    H262054   6.526  -0.045   2.931 -0.5049  1.6825 -1.0129
13547TIP3   OH262055   1.920   6.130   5.078 -0.1683  0.4634  0.4294
13547TIP3    H162056   1.987   6.063   5.090  0.9178  1.3708 -0.4703
13547TIP3    H262057   1.883   6.143   5.165 -0.8108 -1.7203  0.5208
13548TIP3   OH262058   3.080   1.333   6.734  0.2245  0.0786 -0.4004
13548TIP3    H162059   3.135   1.284   6.673 -0.9715  1.0653 -2.3472
13548TIP3    H262060   3.123   1.324   6.819  0.1448 -4.1778 -0.7136
13549TIP3   OH262061   6.646   0.191  11.526  0.6970 -0.0429  0.4003
13549TIP3    H162062   6.693   0.123  11.574  1.0937  1.0648  1.6126
13549TIP3    H262063   6.558   0.156  11.513  1.4995 -1.6562 -0.8514
13550TIP3   OH262064   0.111   2.500  11.029  0.6190  0.8350  0.0460
13550TIP3    H162065   0.055   2.575  11.010  1.8746  2.5056  2.6208
13550TIP3    H262066   0.169   2.493  10.954 -3.3375 -1.3220 -2.9953
13551TIP3   OH262067   0.411   5.554  16.397 -0.5551  0.2901  0.0842
13551TIP3    H162068   0.488   5.507  16.364 -0.9689  0.2683 -0.8372
13551TIP3    H262069   0.405   5.632  16.343 -0.6923  0.7174  0.7094
13552TIP3   OH262070   1.793   2.382  12.199  0.2273 -0.0355 -0.0795
13552TIP3    H162071   1.765   2.341  12.281  2.3991 -0.2160  0.5992
13552TIP3    H262072   1.820   2.470  12.225  1.6703 -0.3566 -0.4540
13553TIP3   OH262073   2.126   0.353   1.971 -0.1047  0.3509  0.3997
13553TIP3    H162074   2.085   0.392   2.049  2.1659 -0.6577  2.1464
13553TIP3    H262075   2.087   0.266   1.965 -0.4679  0.5226  0.2717
13554TIP3   OH262076   5.461   5.831  12.215  0.2065 -0.1299  0.2533
13554TIP3    H162077   5.489   5.826  12.306  1.1226 -0.5935 -0.0447
13554TIP3    H262078   5.541   5.817  12.165 -0.1095  1.0609 -0.6203
13555TIP3   OH262079   6.355   2.252   6.229 -0.0013  0.1147  0.3833
13555TIP3    H162080   6.378   2.168   6.189  0.2530  0.5064 -0.3036
13555TIP3    H262081   6.277   2.233   6.281  1.7341 -1.2255  2.6317
13556TIP3   OH262082   1.753   1.619  11.968 -1.0541 -0.5052 -0.3621
13556TIP3    H162083   1.845   1.640  11.983 -1.3249  2.4362 -2.3660
13556TIP3    H262084   1.736   1.542  12.023  2.4224 -0.7542  0.4514
13557TIP3   OH262085   5.222   5.778  15.966  0.1470 -0.0359  0.1252
13557TIP3    H162086   5.311   5.758  15.995 -0.1644 -1.9795 -0.2359
13557TIP3    H262087   5.218   5.746  15.876 -0.3196  1.8339 -0.5529
13558TIP3   OH262088   0.600   1.493   0.591  0.6959 -0.5683  0.1836
13558TIP3    H162089   0.557   1.411   0.616  0.0401 -0.7439 -1.4580
13558TIP3    H262090   0.550   1.561   0.637 -1.3362 -0.7698 -1.6510
13559TIP3   OH262091   2.213   0.296  12.508 -0.3363  0.1978  0.1158
13559TIP3    H162092   2.186   0.351  12.434  1.5110 -0.9390 -1.4840
13559TIP3    H262093   2.134   0.286  12.561 -1.3398  2.2667 -0.9168
13560TIP3   OH262094   1.622   1.705   2.632 -0.8558 -0.4011 -0.2800
13560TIP3    H162095   1.633   1.713   2.727 -1.6767 -3.3705  0.1029
13560TIP3    H262096   1.617   1.611   2.616  2.1221 -0.1084 -3.6071
13561TIP3   OH262097   6.105   3.395   0.145 -0.1900 -0.0623  0.1551
13561TIP3    H162098   6.087   3.358   0.231  0.1945  0.9634  0.6800
13561TIP3    H262099   6.053   3.475   0.142 -0.5823 -0.3475 -0.7571
13562TIP3   OH262100   3.254   3.546   4.054 -0.5916 -0.0130 -0.5900
13562TIP3    H162101   3.224   3.457   4.069 -0.1991 -0.4687 -2.4038
13562TIP3    H262102   3.317   3.539   3.982  2.3071  1.2341  1.7326
13563TIP3   OH262103   1.765   0.710   5.087 -0.2591  0.0029 -0.0749
13563TIP3    H162104   1.715   0.703   5.005  2.4928 -1.4292 -1.7025
13563TIP3    H262105   1.797   0.800   5.089 -1.4591  0.4293  0.1136
13564TIP3   OH262106   5.543   0.498   1.340 -0.1966 -0.1756  0.1739
13564TIP3    H162107   5.559   0.548   1.261 -3.1205  0.1616 -0.2594
13564TIP3    H262108   5.459   0.455   1.325  0.5441 -2.3785  1.9662
13565TIP3   OH262109   1.106   2.650   1.871  0.5395 -0.0810 -0.2421
13565TIP3    H162110   1.152   2.628   1.789 -0.9363  0.4042 -1.2137
13565TIP3    H262111   1.047   2.722   1.847  1.9351  1.8091  1.8533
13566TIP3   OH262112   0.249   4.935  14.018  0.0176 -0.6006  0.2267
13566TIP3    H162113   0.243   5.020  14.061  0.9723 -0.8337  0.8574
13566TIP3    H262114   0.293   4.953  13.935 -0.0371 -0.4287  0.2360
13567TIP3   OH262115   1.035   0.292  12.008  0.3700  0.9016  0.0729
13567TIP3    H162116   1.019   0.198  12.018 -0.1071  1.0945  1.1997
13567TIP3    H262117   1.101   0.312  12.075 -0.8826  1.7163  1.0822
13568TIP3   OH262118   6.670   5.374   2.653 -0.5452 -0.9751 -0.1516
13568TIP3    H162119   6.622   5.293   2.634  0.2788 -1.3316 -0.7047
13568TIP3    H262120   6.615   5.443   2.616 -1.7193 -1.1763  1.1355
13569TIP3   OH262121   4.815   1.331  11.754 -0.0692 -0.4886 -0.0380
13569TIP3    H162122   4.890   1.358  11.702 -0.0891 -4.1903 -2.1759
13569TIP3    H262123   4.852   1.281  11.827 -0.3950 -1.6193 -0.6405
13570TIP3   OH262124   3.787   6.755   5.098  0.0899  0.1353  0.6882
13570TIP3    H162125   3.760   6.792   5.182  0.1744 -0.3259  0.9165
13570TIP3    H262126   3.758   6.664   5.101 -1.0011  0.4372 -0.2731
13571TIP3   OH262127   1.312   3.890  15.799  0.8905 -0.1699 -0.0881
13571TIP3    H162128   1.318   3.805  15.843  1.6807 -0.0318  0.0909
13571TIP3    H262129   1.221   3.916  15.808  0.7210 -0.8431  0.1592
13572TIP3   OH262130   0.338   0.875   4.459 -0.1353  0.0560  0.6275
13572TIP3    H162131   0.379   0.929   4.527  0.6211 -0.8990  0.9427
13572TIP3    H262132   0.244   0.884   4.474  0.0487 -1.2243  2.6611
13573TIP3   OH262133   0.525   0.786  17.062  0.2645  0.2399 -0.8655
13573TIP3    H162134   0.477   0.827  17.134  0.5086  1.4437 -1.3861
13573TIP3    H262135   0.612   0.825  17.066  0.0394  0.9183 -2.3048
13574TIP3   OH262136   3.325   3.172  16.359 -0.0009  0.1112 -0.2746
13574TIP3    H162137   3.244   3.160  16.409  1.0001 -0.9922  1.1356
13574TIP3    H262138   3.302   3.148  16.270 -1.4978  0.8427 -0.0964
13575TIP3   OH262139   6.065   2.506  12.970  0.3693 -0.0313  0.2526
13575TIP3    H162140   6.142   2.463  13.007  1.5501 -0.1340 -2.2425
13575TIP3    H262141   6.088   2.521  12.878 -1.9311  1.4946 -0.0979
13576TIP3   OH262142   0.771   0.481  11.705  0.4182  0.5558  0.0631
13576TIP3    H162143   0.718   0.406  11.678  1.0662 -0.2645  1.0201
13576TIP3    H262144   0.727   0.557  11.667 -0.9139 -0.2019  0.0588
13577TIP3   OH262145   6.094   1.126   6.054  0.0699  0.4553  0.3828
13577TIP3    H162146   6.083   1.127   5.959 -0.4856  0.0669  0.4424
13577TIP3    H262147   6.021   1.177   6.088  0.2985  0.6433  0.6017
13578TIP3   OH262148   0.213   5.266   2.952  0.3964  0.1778 -0.0126
13578TIP3    H162149   0.295   5.253   2.905 -0.1118 -1.0102 -0.6024
13578TIP3    H262150   0.175   5.344   2.913 -0.3602 -1.2069 -2.1089
13579TIP3   OH262151   1.474   2.699  14.630 -0.1393 -0.0894 -0.0638
13579TIP3    H162152   1.456   2.719  14.722  2.5222  0.2206  0.4315
13579TIP3    H262153   1.469   2.783  14.585 -0.0100 -0.0205  0.0513
13580TIP3   OH262154   3.452   6.325  12.125 -0.3442  0.1641  0.2694
13580TIP3    H162155   3.495   6.251  12.083 -4.1834 -0.4891 -2.7795
13580TIP3    H262156   3.459   6.397  12.061 -2.0706  0.5716  0.5087
13581TIP3   OH262157   2.595   2.911  11.481 -0.0034  0.2730 -0.4143
13581TIP3    H162158   2.668   2.920  11.420  0.8290 -2.2532  0.1450
13581TIP3    H262159   2.635   2.916  11.568 -0.9163  1.8520 -0.0638
13582TIP3   OH262160   1.711   4.331  11.665  0.2052 -0.0115  0.1058
13582TIP3    H162161   1.769   4.369  11.599 -0.1400  0.2111 -0.0653
13582TIP3    H262162   1.736   4.238  11.668  0.9798  0.1993  0.4526
13583TIP3   OH262163   4.425   4.971  13.759  0.3502 -0.0593 -0.5452
13583TIP3    H162164   4.423   5.065  13.774  0.4372  0.1127 -1.5323
13583TIP3    H262165   4.368   4.934  13.826  0.0694  0.7233 -0.3522
13584TIP3   OH262166   2.616   5.344  15.384  0.0732  0.4978  0.0746
13584TIP3    H162167   2.668   5.319  15.460  1.6525  1.3360 -0.7090
13584TIP3    H262168   2.536   5.382  15.420  0.2701 -0.2295  1.2955
13585TIP3   OH262169   4.804   4.183  13.310 -0.6043  0.1924 -0.1738
13585TIP3    H162170   4.822   4.238  13.387  0.3000  0.6446 -0.7021
13585TIP3    H262171   4.839   4.233  13.236 -0.1891 -0.8979 -0.7160
13586TIP3   OH262172   0.944   2.263   0.752 -0.0887  0.3497  0.6206
13586TIP3    H162173   0.914   2.316   0.678 -0.9179 -0.4193  0.3908
13586TIP3    H262174   0.874   2.271   0.817 -0.8978 -1.5632  0.0304
13587TIP3   OH262175   0.025   0.537   5.923  0.0458  0.2488 -0.1453
13587TIP3    H162176   0.084   0.489   5.982 -0.9947 -0.7486  0.0917
13587TIP3    H262177  -0.023   0.596   5.979 -0.1573  0.0877 -0.1503
13588TIP3   OH262178   3.865   1.581  13.325  0.2722  0.6126  0.3489
13588TIP3    H162179   3.784   1.536  13.301  0.2661  1.1799 -0.6929
13588TIP3    H262180   3.840   1.637  13.399  0.4990 -1.8000  2.3095
13589TIP3   OH262181   6.310   2.071   2.004  0.1128  0.1975 -0.1485
13589TIP3    H162182   6.270   2.135   1.945  2.4911  0.0997 -1.9881
13589TIP3    H262183   6.403   2.072   1.980  0.5622 -2.3575  1.2803
13590TIP3   OH262184   6.102   6.032   2.424  0.2810 -0.4767 -0.4096
13590TIP3    H162185   6.115   5.937   2.420 -0.1092 -0.5116 -0.9062
13590TIP3    H262186   6.079   6.050   2.515 -1.0613 -1.0409 -0.6313
13591TIP3   OH262187   2.855   3.417  13.282 -0.2479  0.0882  0.0045
13591TIP3    H162188   2.946   3.410  13.312 -0.8279  0.6057  1.9764
13591TIP3    H262189   2.857   3.490  13.220  0.4564  0.9159  0.9797
13592TIP3   OH262190   2.158   3.241   3.278 -0.2756 -0.1189 -0.3354
13592TIP3    H162191   2.196   3.325   3.253 -0.4668 -0.0566 -0.4204
13592TIP3    H262192   2.216   3.176   3.240 -0.0258 -0.0240 -0.1125
13593TIP3   OH262193   0.113   2.497   1.543 -0.2765  0.0482 -0.2254
13593TIP3    H162194   0.025   2.462   1.524 -0.3703  0.1189  0.0684
13593TIP3    H262195   0.172   2.425   1.521 -0.4490 -0.1924  0.0799
13594TIP3   OH262196   4.210   4.082   1.709  0.4410 -0.0480  0.4059
13594TIP3    H162197   4.292   4.128   1.721  1.1028 -1.3559  1.0286
13594TIP3    H262198   4.232   4.009   1.651 -0.0079 -1.0868  1.5129
13595TIP3   OH262199   4.081   0.439   0.008 -0.1541  0.1295 -0.5981
13595TIP3    H162200   4.003   0.407  -0.036 -0.4279  0.5750 -0.4424
13595TIP3    H262201   4.055   0.449   0.100  0.2589 -0.2917 -0.4314
13596TIP3   OH262202   5.282   0.527   5.690 -0.9855  0.1522  0.2920
13596TIP3    H162203   5.260   0.489   5.776  0.1842 -1.6362 -0.1657
13596TIP3    H262204   5.275   0.453   5.629  1.7106  0.5571 -0.5736
13597TIP3   OH262205   1.400   5.324  15.793 -0.3477  0.4602  0.7000
13597TIP3    H162206   1.442   5.404  15.824 -0.4784  0.7369  0.1733
13597TIP3    H262207   1.470   5.259  15.790  0.2396  1.1407 -0.9762
13598TIP3   OH262208   4.574   4.763  14.761 -0.1313 -0.0693  0.0304
13598TIP3    H162209   4.511   4.696  14.788 -0.2801 -0.2457 -0.7580
13598TIP3    H262210   4.522   4.841  14.745 -0.2134 -0.3712 -1.1667
13599TIP3   OH262211   4.779   2.381   2.209 -0.1317 -0.1056  0.1059
13599TIP3    H162212   4.873   2.381   2.229 -0.2665 -1.8787  0.8469
13599TIP3    H262213   4.775   2.349   2.118  0.0202  0.6953 -0.1868
13600TIP3   OH262214   4.530   5.482  12.097 -0.3671  0.0828 -0.3459
13600TIP3    H162215   4.615   5.451  12.066  0.3588  1.2146  0.4533
13600TIP3    H262216   4.533   5.577  12.081 -1.0732  0.2668  0.5962
13601TIP3   OH262217   2.519   6.233   4.467  0.4439  0.0031 -0.0491
13601TIP3    H162218   2.549   6.155   4.422  0.4900 -0.6630  1.1196
13601TIP3    H262219   2.556   6.306   4.417 -0.3657 -0.6895 -1.6889
13602TIP3   OH262220   1.173   6.561   1.191  0.4363 -0.0625 -0.0424
13602TIP3    H162221   1.185   6.466   1.186  0.9658  0.0554 -0.9485
13602TIP3    H262222   1.103   6.580   1.128  1.6972  0.3997 -1.3090
13603TIP3   OH262223   5.888   4.774   5.880  0.0835 -0.0353  0.0085
13603TIP3    H162224   5.901   4.865   5.907  0.2651 -0.0837  0.0849
13603TIP3    H262225   5.921   4.770   5.790  0.1278 -0.0385  0.0246
13604TIP3   OH262226   1.405   0.692  13.596  0.0940 -0.1211  0.0985
13604TIP3    H162227   1.465   0.720  13.526 -0.7282  3.1916  0.6025
13604TIP3    H262228   1.323   0.673  13.551  0.4937 -1.1840 -0.1921
13605TIP3   OH262229   1.467   6.722   2.015  0.2094 -0.1844  0.0505
13605TIP3    H162230   1.483   6.765   1.930 -0.7090 -0.0956 -0.0880
13605TIP3    H262231   1.479   6.629   1.997 -0.9525 -0.2546 -0.4230
13606TIP3   OH262232   2.663   0.783   0.648  0.2406 -0.3206 -0.0430
13606TIP3    H162233   2.626   0.816   0.566 -1.5004  0.2525  0.9439
13606TIP3    H262234   2.602   0.714   0.676 -1.4760  2.2264  2.8133
13607TIP3   OH262235   5.934   3.388  14.271 -0.1286 -0.2585 -0.2645
13607TIP3    H162236   5.871   3.390  14.343  0.0459 -0.4931 -0.1052
13607TIP3    H262237   5.942   3.295  14.249  0.9049 -0.3318  0.3691
13608TIP3   OH262238   2.446   4.519   3.859 -0.5773  0.0562  0.1015
13608TIP3    H162239   2.479   4.590   3.914 -2.2142  1.7472 -1.0319
13608TIP3    H262240   2.508   4.447   3.873  1.1765  1.7253  1.2076
13609TIP3   OH262241   5.608   4.915   5.893  0.2722 -0.0703 -0.7553
13609TIP3    H162242   5.632   4.931   5.802 -2.0042  2.0095 -1.0471
13609TIP3    H262243   5.617   4.820   5.905  0.0963 -0.4234 -3.2836
13610TIP3   OH262244   2.087   5.958  16.871  0.3802 -0.0623  0.5425
13610TIP3    H162245   2.149   6.005  16.815  0.5387 -0.6202  0.2499
13610TIP3    H262246   2.049   6.026  16.927 -0.7859  0.7238 -1.1753
13611TIP3   OH262247   2.420   3.388   2.990 -0.1711  0.1046 -0.5219
13611TIP3    H162248   2.337   3.415   3.029 -0.7705 -1.5741 -0.6265
13611TIP3    H262249   2.441   3.305   3.031  1.2687  0.3159 -0.7917
13612TIP3   OH262250   2.338   5.158  17.225 -0.2159 -0.5464  0.4625
13612TIP3    H162251   2.373   5.243  17.253  1.0373 -1.2795  1.1819
13612TIP3    H262252   2.385   5.138  17.144 -0.4772 -0.5810  0.3171
13613TIP3   OH262253   1.212   4.402  17.029 -0.0753 -0.3682 -0.0311
13613TIP3    H162254   1.276   4.389  16.959 -0.3688 -0.3018 -0.3162
13613TIP3    H262255   1.262   4.438  17.102  0.7031 -2.8570  0.6825
13614TIP3   OH262256   2.730   4.580  13.531  0.6580  0.0676  0.5997
13614TIP3    H162257   2.775   4.662  13.516  0.1848  0.0976 -0.7798
13614TIP3    H262258   2.775   4.517  13.474 -1.2994  0.2098 -1.1648
13615TIP3   OH262259   2.167   0.752   3.538 -0.4753  0.4469 -0.2628
13615TIP3    H162260   2.085   0.733   3.584 -0.7164 -0.5334 -1.0798
13615TIP3    H262261   2.147   0.738   3.446 -0.0260  2.5583 -0.7007
13616TIP3   OH262262   3.246   2.311  12.937  0.8234  0.3162 -0.4422
13616TIP3    H162263   3.263   2.376  13.006 -1.3920  0.6094 -0.1386
13616TIP3    H262264   3.282   2.351  12.858  2.6451  0.3420  0.3691
13617TIP3   OH262265   1.609   0.153  13.275 -0.1809 -0.8147 -0.6347
13617TIP3    H162266   1.701   0.129  13.291 -0.1410  0.1481  0.6857
13617TIP3    H262267   1.611   0.207  13.196  0.4492 -0.4454 -0.3718
13618TIP3   OH262268   3.916   5.720  10.817 -0.4378 -0.1468  0.2995
13618TIP3    H162269   3.972   5.798  10.814 -0.7634  0.0280 -2.0623
13618TIP3    H262270   3.972   5.650  10.785 -0.5531 -0.6529  1.1892
13619TIP3   OH262271   1.934   4.005  10.719  0.5207  0.5000 -0.5138
13619TIP3    H162272   2.020   3.982  10.684  0.7459  3.0416 -1.7614
13619TIP3    H262273   1.894   4.061  10.652 -1.3678  0.8363  0.8247
13620TIP3   OH262274   2.509   2.849  16.611 -0.1670 -0.0196  0.5678
13620TIP3    H162275   2.415   2.832  16.601 -0.5307  3.2328 -2.4958
13620TIP3    H262276   2.525   2.926  16.556  4.4126 -0.8658  0.5606
13621TIP3   OH262277   0.359   2.376   3.921  0.7537  0.2708 -0.0604
13621TIP3    H162278   0.285   2.437   3.920  0.6509  0.1760 -3.2105
13621TIP3    H262279   0.435   2.431   3.903  0.8833 -0.2658 -1.1690
13622TIP3   OH262280   5.434   5.574   6.178 -0.2962  0.0042  0.5836
13622TIP3    H162281   5.445   5.658   6.224 -0.7152 -0.4915  1.6150
13622TIP3    H262282   5.503   5.574   6.111  0.0045  0.9714  0.8844
13623TIP3   OH262283   3.700   3.535   1.151 -0.6237  0.6964 -0.3029
13623TIP3    H162284   3.771   3.586   1.191 -1.6990 -0.0807  2.6635
13623TIP3    H262285   3.713   3.549   1.057  3.1749  0.9518  0.1431
13624TIP3   OH262286   4.572   0.615  16.446  0.2227  0.1803  0.0415
13624TIP3    H162287   4.611   0.664  16.373  2.7980 -1.5020  0.2384
13624TIP3    H262288   4.617   0.647  16.524 -0.3059 -0.2688  0.5378
13625TIP3   OH262289   2.068   4.833   6.403  0.1268 -0.4170  0.2284
13625TIP3    H162290   2.110   4.916   6.425  4.7108 -2.8490  1.2004
13625TIP3    H262291   2.081   4.823   6.309 -1.6579  0.5221 -0.1521
13626TIP3   OH262292   3.258   5.041   0.155  0.6619  0.3259 -0.3612
13626TIP3    H162293   3.262   5.085   0.241  1.6598  0.8092 -0.6451
13626TIP3    H262294   3.331   4.980   0.156  1.1639  0.9103 -1.1805
13627TIP3   OH262295   2.764   6.661   1.938  0.0220 -0.2398 -0.1242
13627TIP3    H162296   2.835   6.612   1.979  1.3614  1.4627 -0.3951
13627TIP3    H262297   2.712   6.695   2.012 -0.0945 -0.8562  0.0801
13628TIP3   OH262298   0.417   6.077  15.785 -0.4697  0.2564 -0.1769
13628TIP3    H162299   0.415   6.087  15.880 -1.3139  0.4314 -0.2054
13628TIP3    H262300   0.344   6.018  15.766 -0.4216  0.3730 -0.7323
13629TIP3   OH262301   0.593   2.754  15.141  0.8803  0.4834  0.5269
13629TIP3    H162302   0.614   2.792  15.226 -0.2539  0.6875  0.7204
13629TIP3    H262303   0.506   2.787  15.121 -0.4399 -2.5471  1.0088
13630TIP3   OH262304   4.387   0.254   0.533  0.3663 -0.1397 -0.4900
13630TIP3    H162305   4.295   0.230   0.549  0.4793  0.4696  1.1731
13630TIP3    H262306   4.426   0.174   0.497 -0.8917 -0.2926 -1.5696
13631TIP3   OH262307   0.423   2.285   0.830 -0.2639  0.6716  0.3113
13631TIP3    H162308   0.422   2.323   0.743  2.4402  1.2453  0.4993
13631TIP3    H262309   0.346   2.227   0.832  0.0011  0.1564 -2.6550
13632TIP3   OH262310   5.102   0.679  15.338 -0.4475 -0.1394 -0.1142
13632TIP3    H162311   5.046   0.605  15.360  0.2291 -0.1044  1.8129
13632TIP3    H262312   5.054   0.756  15.369 -0.2701  0.0745 -0.3662
13633TIP3   OH262313   2.091   3.524   3.768  0.4935  0.2093 -0.2210
13633TIP3    H162314   2.004   3.498   3.740  0.2093  0.3306  0.5292
13633TIP3    H262315   2.147   3.510   3.691  0.0916 -1.2464 -0.2676
13634TIP3   OH262316   2.867   5.188  17.113 -0.0134  0.3611  0.0183
13634TIP3    H162317   2.902   5.156  17.030 -0.1470  1.0126 -0.2907
13634TIP3    H262318   2.943   5.191  17.172 -0.1732 -1.4461  0.3472
13635TIP3   OH262319   1.091   0.221   0.413  0.0217 -0.4979  0.1775
13635TIP3    H162320   1.162   0.261   0.463 -0.3216 -1.2396  1.2845
13635TIP3    H262321   1.120   0.131   0.398  1.4028  0.4728 -3.4769
13636TIP3   OH262322   3.370   1.572  16.189  0.6358 -0.3746  0.2092
13636TIP3    H162323   3.385   1.497  16.247 -0.9619 -0.1541  0.9494
13636TIP3    H262324   3.327   1.637  16.245 -0.7316 -0.0649 -1.1757
13637TIP3   OH262325   2.164   2.296  11.565 -0.2428  0.1219  0.9880
13637TIP3    H162326   2.193   2.204  11.563 -0.0767  0.1835 -0.4058
13637TIP3    H262327   2.155   2.317  11.657 -1.6358 -1.7335  1.3101
13638TIP3   OH262328   3.468   1.450   6.399 -0.6265  0.0350  0.6825
13638TIP3    H162329   3.521   1.481   6.473 -0.1501  0.1173  0.3148
13638TIP3    H262330   3.446   1.530   6.351 -2.1661  0.1275  1.5341
13639TIP3   OH262331   3.523   4.289  14.750 -0.6178 -0.0217  0.3439
13639TIP3    H162332   3.591   4.240  14.795 -1.2297 -1.0624  0.1595
13639TIP3    H262333   3.551   4.290  14.658 -2.1840 -2.8423 -0.2229
13640TIP3   OH262334   3.895   2.500   5.132  0.2914  0.2146  0.0660
13640TIP3    H162335   3.936   2.585   5.115  0.8501 -0.0002  0.3263
13640TIP3    H262336   3.863   2.506   5.222 -0.0855  0.3188 -0.0760
13641TIP3   OH262337   3.092   6.062   5.534 -0.0988  0.2149 -0.3872
13641TIP3    H162338   3.117   5.982   5.487  0.0442 -1.2593  2.1238
13641TIP3    H262339   3.166   6.081   5.590 -0.4706  1.6807 -0.3721
13642TIP3   OH262340   5.652   1.570   0.164 -0.1225  0.1492 -0.8208
13642TIP3    H162341   5.674   1.621   0.242 -1.5124  0.5568 -0.6767
13642TIP3    H262342   5.636   1.481   0.198 -1.0620  0.4013 -0.5714
13643TIP3   OH262343   0.239   0.684  15.237 -0.5613 -0.0704 -0.1920
13643TIP3    H162344   0.187   0.703  15.159  0.8375  2.1027 -0.6380
13643TIP3    H262345   0.284   0.602  15.216 -1.9200 -0.7005 -0.7448
13644TIP3   OH262346   1.875   5.795  12.447 -0.0043 -0.3671 -0.1995
13644TIP3    H162347   1.902   5.875  12.402  2.5014  0.7809  3.1671
13644TIP3    H262348   1.826   5.826  12.524  2.2488 -1.9505  1.9415
13645TIP3   OH262349   6.286   0.822   1.574  0.0729  0.1087  0.2692
13645TIP3    H162350   6.356   0.837   1.638 -1.2245 -1.8695  2.2153
13645TIP3    H262351   6.286   0.901   1.519  3.1182  0.5927  0.8705
13646TIP3   OH262352   1.328   4.056  12.865 -0.1131 -0.3448 -0.2983
13646TIP3    H162353   1.288   4.102  12.939 -1.6675  0.0763 -1.3926
13646TIP3    H262354   1.418   4.090  12.863  0.2892 -1.1418  2.0283
13647TIP3   OH262355   5.324   2.968   1.594  0.3323 -0.2292  0.9029
13647TIP3    H162356   5.368   2.948   1.677 -3.4361  0.6597  3.2888
13647TIP3    H262357   5.312   3.063   1.596 -1.8387 -0.4600  0.5159
13648TIP3   OH262358   3.865   5.222  17.224  0.7308 -0.3022  0.3574
13648TIP3    H162359   3.939   5.268  17.263  0.5109 -1.9171  2.7983
13648TIP3    H262360   3.789   5.277  17.243  1.1801  1.0083 -1.5354
13649TIP3   OH262361   3.213   4.909   1.392 -0.4795  0.5816  0.4840
13649TIP3    H162362   3.293   4.907   1.446 -0.7648  1.2126  0.9413
13649TIP3    H262363   3.231   4.849   1.320  0.1903  0.2791  0.8983
13650TIP3   OH262364   1.618   0.476   1.592  0.6090  0.0617  0.2405
13650TIP3    H162365   1.702   0.434   1.574 -0.0682 -0.9346 -0.6699
13650TIP3    H262366   1.633   0.528   1.671  1.6952 -1.2590  0.9173
13651TIP3   OH262367   0.142   5.426  10.897 -0.2420  0.7560  0.5260
13651TIP3    H162368   0.177   5.377  10.971  1.1451 -0.7923 -1.0980
13651TIP3    H262369   0.220   5.454  10.848 -1.1434 -0.2004 -1.5342
13652TIP3   OH262370   1.896   0.366  16.971  0.2655 -0.8054  0.4632
13652TIP3    H162371   1.914   0.352  16.879 -1.9890 -1.4556  0.0873
13652TIP3    H262372   1.909   0.460  16.985  0.4938 -0.6898 -0.5555
13653TIP3   OH262373   6.125   5.577   4.214  0.2342  0.5672  0.0332
13653TIP3    H162374   6.052   5.525   4.249  0.2905  0.7303  0.3989
13653TIP3    H262375   6.118   5.661   4.259  0.1554  0.8699 -0.5480
13654TIP3   OH262376   5.515   6.135  14.867  0.6324 -0.7719 -0.0409
13654TIP3    H162377   5.480   6.057  14.909 -0.5400  0.0813  0.6057
13654TIP3    H262378   5.474   6.137  14.780 -1.6541  0.6882  1.0329
13655TIP3   OH262379   3.705   1.838  13.238 -0.3450 -0.2185  0.2942
13655TIP3    H162380   3.704   1.764  13.178 -2.6425  0.0327  0.0077
13655TIP3    H262381   3.722   1.914  13.182  1.5265 -0.4411  0.5279
13656TIP3   OH262382   4.668   6.617   3.442 -0.1380  0.4619 -0.2911
13656TIP3    H162383   4.761   6.611   3.419  0.1569  1.5693  0.5533
13656TIP3    H262384   4.660   6.702   3.485 -1.1539 -0.5173  1.4828
13657TIP3   OH262385   2.952   4.430  16.554 -0.7358  0.3736  0.3454
13657TIP3    H162386   2.910   4.377  16.622 -0.2039  1.4649  1.5517
13657TIP3    H262387   3.012   4.487  16.603 -0.7359  1.5459 -1.0054
13658TIP3   OH262388   5.216   4.996   2.756 -0.8322  0.1201 -0.3068
13658TIP3    H162389   5.234   4.972   2.665  1.5505  1.1867 -0.1457
13658TIP3    H262390   5.244   4.919   2.806  2.6352  1.4430 -0.1245
13659TIP3   OH262391   5.940   5.260  13.943  0.0644  0.1114 -0.3693
13659TIP3    H162392   5.886   5.222  14.012  0.0037  1.4476  0.3243
13659TIP3    H262393   6.029   5.259  13.978 -0.0966  1.6089  0.0804
13660TIP3   OH262394   1.737   4.668   0.147 -0.1280 -0.1572 -0.4715
13660TIP3    H162395   1.810   4.607   0.152  1.5732  1.9192  1.1484
13660TIP3    H262396   1.709   4.680   0.238 -1.1548  0.5948 -0.8719
13661TIP3   OH262397   5.086   1.904  11.310 -0.7551 -0.1724  0.3777
13661TIP3    H162398   5.006   1.854  11.327  0.2218 -1.8770  0.1250
13661TIP3    H262399   5.079   1.931  11.219 -0.4972 -1.3817 -0.0090
13662TIP3   OH262400   3.457   1.271  16.723 -0.5300 -0.0718 -0.4709
13662TIP3    H162401   3.550   1.261  16.741 -0.6152 -0.9296 -0.4598
13662TIP3    H262402   3.450   1.354  16.677  0.2127  0.1154 -0.2561
13663TIP3   OH262403   6.080   6.684   2.709  0.1627  0.2045  0.0246
13663TIP3    H162404   6.134   6.758   2.739  0.7800 -0.4446  0.5332
13663TIP3    H262405   5.999   6.693   2.759 -0.4485  1.5361 -1.1906
13664TIP3   OH262406   5.150   4.932  16.202  0.2995 -0.2287 -0.5151
13664TIP3    H162407   5.213   4.922  16.131  1.6677 -3.2929  1.0540
13664TIP3    H262408   5.204   4.949  16.280 -1.0330  0.4747  0.2822
13665TIP3   OH262409   2.259   2.808   4.934  0.1350  0.8910 -0.7937
13665TIP3    H162410   2.191   2.846   4.878 -2.2176 -0.3840  1.1003
13665TIP3    H262411   2.268   2.869   5.006 -0.7267 -0.0973  0.1667
13666TIP3   OH262412   3.250   1.743  16.354 -0.1528 -0.4237 -0.4349
13666TIP3    H162413   3.212   1.688  16.423 -1.1989  0.0676 -0.6137
13666TIP3    H262414   3.245   1.832  16.389 -1.8111 -0.0236 -1.6316
13667TIP3   OH262415   3.430   1.600   2.625 -0.2105 -0.4587  0.2354
13667TIP3    H162416   3.412   1.655   2.701  0.0429  0.9165 -0.7003
13667TIP3    H262417   3.505   1.641   2.583 -1.1525 -0.4839 -1.4868
13668TIP3   OH262418   5.148   4.765  12.926  0.1997 -0.5676  0.5012
13668TIP3    H162419   5.101   4.764  12.843  0.9701 -0.8813  0.0648
13668TIP3    H262420   5.240   4.780  12.902  0.1009  1.9143  1.4486
13669TIP3   OH262421   6.719   0.636  11.607  0.7010 -0.2614 -0.0398
13669TIP3    H162422   6.648   0.634  11.672  2.5152 -0.0361  2.0111
13669TIP3    H262423   6.735   0.730  11.594  0.8342 -0.3154 -0.2530
13670TIP3   OH262424   0.978   0.990   0.475 -0.0636  0.2298 -0.2651
13670TIP3    H162425   0.997   0.984   0.381 -1.2526  1.1197 -0.5645
13670TIP3    H262426   0.953   0.901   0.500 -0.2135  0.0992 -0.8865
13671TIP3   OH262427   3.838   4.859  16.583 -0.1758  0.3519  0.0492
13671TIP3    H162428   3.894   4.935  16.566  0.3661  0.1994  1.1368
13671TIP3    H262429   3.807   4.872  16.672  0.3516 -0.9985  0.4313
13672TIP3   OH262430   4.252   4.441  12.735  0.0094 -0.4789 -0.2578
13672TIP3    H162431   4.174   4.402  12.695 -1.1655  0.0217  1.4789
13672TIP3    H262432   4.289   4.371  12.789 -0.5409 -0.0470  0.6958
13673TIP3   OH262433   1.862   1.072   3.995  0.0007  0.4992 -0.2786
13673TIP3    H162434   1.834   1.149   3.946  3.1104  1.6342 -0.4063
13673TIP3    H262435   1.816   0.999   3.953 -1.3358  2.0208 -1.5496
13674TIP3   OH262436   0.302   3.366  11.086 -0.8324 -0.0736  0.1507
13674TIP3    H162437   0.262   3.294  11.135  0.1126 -2.2216 -2.1230
13674TIP3    H262438   0.264   3.360  10.998  1.4994  0.3300 -0.9193
13675TIP3   OH262439   6.024   4.709  11.928  0.1035 -0.0817 -0.4893
13675TIP3    H162440   6.111   4.681  11.954 -0.3061 -0.3211  0.6898
13675TIP3    H262441   6.030   4.804  11.922  0.4473 -0.0979 -0.3927
13676TIP3   OH262442   3.978   3.126   3.295  0.0829 -0.1904  0.4120
13676TIP3    H162443   3.942   3.073   3.223  0.0297  0.3358  0.0486
13676TIP3    H262444   3.909   3.188   3.317  0.8161  0.9407 -0.4099
13677TIP3   OH262445   1.341   0.193  14.806  1.0391  0.1808  0.7029
13677TIP3    H162446   1.289   0.269  14.830  1.6323 -0.0349  2.7376
13677TIP3    H262447   1.431   0.224  14.806  1.0809  0.0981 -0.9938
13678TIP3   OH262448   0.038   0.235  12.665  0.3419  0.2203  0.5524
13678TIP3    H162449  -0.020   0.177  12.713  0.5436  0.7439  1.4363
13678TIP3    H262450   0.115   0.181  12.645  1.3330  0.6605  2.9705
13679TIP3   OH262451   4.624   5.982  15.539  0.1407  0.5838 -0.9588
13679TIP3    H162452   4.696   5.921  15.554  0.2367  0.3950 -2.0922
13679TIP3    H262453   4.549   5.926  15.518 -0.1885  0.8005 -0.3701
13680TIP3   OH262454   0.192   6.158  10.385 -0.2535 -0.0133  0.4434
13680TIP3    H162455   0.186   6.244  10.426  0.0287 -0.0075  0.4740
13680TIP3    H262456   0.107   6.145  10.344 -0.2269  0.3674  0.2662
13681TIP3   OH262457   0.611   6.760  13.211  0.5586  0.0797  0.3690
13681TIP3    H162458   0.691   6.768  13.160  0.0611 -0.3766 -0.4912
13681TIP3    H262459   0.555   6.831  13.180  0.5825  0.3356  0.8955
13682TIP3   OH262460   6.402   4.052  12.639 -0.7065 -0.0009 -0.3230
13682TIP3    H162461   6.395   3.979  12.701 -1.7990 -0.0882 -0.5339
13682TIP3    H262462   6.312   4.067  12.610 -0.9365  3.3203  1.8791
13683TIP3   OH262463   5.132   6.655  11.199  0.0812 -0.2299 -0.7685
13683TIP3    H162464   5.104   6.568  11.228  1.2471 -0.4025 -0.1256
13683TIP3    H262465   5.060   6.686  11.144 -0.8550 -1.1223 -0.0684
13684TIP3   OH262466   0.283   4.168   2.296  0.3731  0.1787  0.3050
13684TIP3    H162467   0.269   4.259   2.269  1.1595  0.7470  1.7748
13684TIP3    H262468   0.219   4.154   2.365  0.5914 -0.2356  0.4185
13685TIP3   OH262469   4.723   4.260  11.162 -0.5622 -0.5144  0.4060
13685TIP3    H162470   4.643   4.259  11.110 -0.0629  1.9686 -0.4717
13685TIP3    H262471   4.723   4.345  11.204  1.5710 -0.5328  0.4877
13686TIP3   OH262472   0.521   0.044   6.044 -0.0129  0.2261 -0.1781
13686TIP3    H162473   0.533   0.003   6.129 -3.2107 -2.3551 -0.8253
13686TIP3    H262474   0.583  -0.000   5.986  0.4294  0.2281  0.2973
13687TIP3   OH262475   0.375   1.034   3.010 -0.3076 -0.3989 -0.4309
13687TIP3    H162476   0.328   1.054   3.091  0.2901 -2.0979  0.3400
13687TIP3    H262477   0.377   0.939   3.005  3.1936 -0.3939 -0.3488
13688TIP3   OH262478   5.595   5.480  13.894 -0.1997 -0.6499 -0.1147
13688TIP3    H162479   5.617   5.561  13.849  0.0833 -1.1153 -0.8099
13688TIP3    H262480   5.499   5.480  13.897 -0.1878 -0.0293  0.3675
13689TIP3   OH262481   2.973   6.074   5.852  0.2282  0.0664  0.1302
13689TIP3    H162482   3.006   5.999   5.902 -1.7560 -2.0874 -1.7245
13689TIP3    H262483   2.887   6.093   5.890  0.1326  0.5296 -0.3086
13690TIP3   OH262484   1.664   2.724   1.330 -0.2022 -0.1579 -0.0858
13690TIP3    H162485   1.617   2.703   1.249 -1.2388 -0.9362  0.6996
13690TIP3    H262486   1.618   2.800   1.366  0.3668  0.2972 -0.3144
13691TIP3   OH262487   3.817   6.191  15.911 -0.3643 -0.6257 -0.2973
13691TIP3    H162488   3.887   6.249  15.880 -1.2171 -1.3249 -3.7352
13691TIP3    H262489   3.862   6.110  15.934  0.2206 -0.3798 -0.5432
13692TIP3   OH262490   2.469   2.597   2.139 -0.0026  0.1691 -0.2011
13692TIP3    H162491   2.531   2.585   2.211 -0.0405  1.4803  0.0541
13692TIP3    H262492   2.394   2.542   2.162  0.6278 -0.6081 -0.0016
13693TIP3   OH262493   3.695   5.371  15.760 -0.6955 -0.5435 -0.2346
13693TIP3    H162494   3.667   5.295  15.811 -2.0528 -0.4915 -0.9027
13693TIP3    H262495   3.650   5.362  15.676 -0.2723  0.5999 -0.5925
13694TIP3   OH262496   6.341   6.179   4.152  0.4839 -0.5078  0.2614
13694TIP3    H162497   6.349   6.274   4.146  0.6568 -0.5781 -0.5837
13694TIP3    H262498   6.388   6.156   4.233  0.6837  0.0898  0.3165
13695TIP3   OH262499   0.663   0.143  16.780  0.0472 -0.4290 -0.8073
13695TIP3    H162500   0.601   0.190  16.724 -0.3304  0.1703  0.1080
13695TIP3    H262501   0.732   0.207  16.798 -1.5676  0.5431  2.2577
13696TIP3   OH262502   2.369   2.199  12.402 -0.2664  0.0139  0.2290
13696TIP3    H162503   2.398   2.290  12.407 -1.0027  0.2092  0.9699
13696TIP3    H262504   2.399   2.170  12.316  0.5037  0.7683  0.2309
13697TIP3   OH262505   3.507   2.233  15.415  0.3499  0.2886  0.7318
13697TIP3    H162506   3.462   2.154  15.445  1.2981 -0.1806  0.9385
13697TIP3    H262507   3.544   2.209  15.330 -2.4955  1.6763 -0.9477
13698TIP3   OH262508   5.024   2.707   0.308  0.0460 -0.1929  0.1362
13698TIP3    H162509   4.986   2.713   0.221  1.3645 -1.0280 -0.5006
13698TIP3    H262510   5.043   2.614   0.320  1.7141  0.1865  0.5083
13699TIP3   OH262511   3.274   3.270   6.464 -0.4382 -0.3593  0.3278
13699TIP3    H162512   3.252   3.182   6.494 -0.2560 -0.4156  0.2968
13699TIP3    H262513   3.370   3.271   6.460 -0.3996  0.0791  1.0663
13700TIP3   OH262514   2.307   6.091  14.077 -0.1415 -0.8206 -0.7011
13700TIP3    H162515   2.230   6.035  14.080 -1.8851  1.6121  2.6990
13700TIP3    H262516   2.277   6.171  14.033  0.2213  0.3823  1.1804
13701TIP3   OH262517   2.052   2.826  15.682  0.4972 -0.4609  0.1222
13701TIP3    H162518   2.012   2.753  15.636  0.9088 -0.9674  0.5553
13701TIP3    H262519   2.030   2.903  15.630  2.1986 -1.1882 -1.7240
13702TIP3   OH262520   4.426   0.671   3.247  0.1969 -0.6917 -0.1910
13702TIP3    H162521   4.377   0.594   3.217 -0.4038 -0.5100  0.3040
13702TIP3    H262522   4.412   0.672   3.342  0.0957  0.1024 -0.2136
13703TIP3   OH262523   5.159   1.622  14.509  0.2542  0.0989 -0.2576
13703TIP3    H162524   5.240   1.616  14.457  0.0407  0.4480 -0.6360
13703TIP3    H262525   5.163   1.709  14.549  0.3406 -0.1071  0.1840
13704TIP3   OH262526   0.491   6.518   2.997  0.5628  0.1863 -0.2611
13704TIP3    H162527   0.581   6.494   3.020  0.5731  1.6044  1.3289
13704TIP3    H262528   0.452   6.438   2.963  2.5265 -0.3693 -1.3036
13705TIP3   OH262529   2.481   2.122  11.862  0.4565  0.0397  0.7347
13705TIP3    H162530   2.565   2.084  11.834 -0.0357  0.3352 -1.1789
13705TIP3    H262531   2.438   2.148  11.781 -1.1408  0.6620  1.7622
13706TIP3   OH262532   6.611   4.501  15.048  0.3266 -0.0783 -0.2465
13706TIP3    H162533   6.683   4.508  15.110 -0.4997  0.5931  0.6574
13706TIP3    H262534   6.534   4.532  15.097 -1.1095 -3.4831 -0.2549
13707TIP3   OH262535   0.670   2.732   2.698  0.1237  0.6932 -0.0320
13707TIP3    H162536   0.751   2.741   2.648 -0.0708  0.9158 -0.3115
13707TIP3    H262537   0.697   2.738   2.789  0.7839 -2.0594 -0.0022
13708TIP3   OH262538   0.356   4.266  12.234  0.3871  0.3970  0.2791
13708TIP3    H162539   0.440   4.227  12.212  0.9688  0.4127  2.3152
13708TIP3    H262540   0.328   4.220  12.313 -0.5955  1.6947  0.7098
13709TIP3   OH262541   6.101   4.190  14.299 -0.2234  0.3271 -0.4245
13709TIP3    H162542   6.100   4.228  14.387 -3.9379  0.0794 -0.3072
13709TIP3    H262543   6.128   4.099  14.313 -0.3882  0.4013  0.4013
13710TIP3   OH262544   2.770   3.260  16.272 -0.3166 -0.1024  0.1484
13710TIP3    H162545   2.718   3.276  16.350 -1.9320 -1.9051 -0.5260
13710TIP3    H262546   2.741   3.327  16.209 -1.1948 -0.5789  0.0555
13711TIP3   OH262547   3.088   4.156  15.430  0.1583 -0.7416 -0.3132
13711TIP3    H162548   3.080   4.099  15.507 -5.2617 -1.1955 -0.9556
13711TIP3    H262549   3.052   4.104  15.359  2.1610  0.8319 -2.5441
13712TIP3   OH262550   0.026   5.855   2.095 -0.4928 -0.0087 -0.0570
13712TIP3    H162551   0.104   5.911   2.103  0.5074 -1.4806  0.9420
13712TIP3    H262552  -0.047   5.915   2.109  0.4620  1.3519 -0.6642
13713TIP3   OH262553   5.739   1.086   1.514  0.6323  0.0139 -0.2988
13713TIP3    H162554   5.780   1.010   1.556  1.2062  0.5198  0.0697
13713TIP3    H262555   5.788   1.161   1.548  0.3873  0.5117 -1.0441
13714TIP3   OH262556   5.272   4.797   2.939 -0.1513 -0.0205 -0.7767
13714TIP3    H162557   5.237   4.715   2.976 -1.7979  0.9532 -0.0996
13714TIP3    H262558   5.357   4.807   2.980 -1.0966 -0.0073  1.2474
13715TIP3   OH262559   0.957   4.272   5.613 -0.3459  0.0258 -0.3629
13715TIP3    H162560   1.023   4.306   5.673 -1.0154  3.3680 -1.4326
13715TIP3    H262561   0.890   4.233   5.669  0.9498 -0.5252  0.8469
13716TIP3   OH262562   2.407   1.024  13.900 -0.2655  0.8524 -0.3300
13716TIP3    H162563   2.410   1.080  13.978  1.0258  0.4981 -0.1182
13716TIP3    H262564   2.322   0.980  13.907  1.2437 -1.8543  2.8205
13717TIP3   OH262565   2.993   1.102   4.629 -0.1772  0.0631  0.3931
13717TIP3    H162566   2.949   1.120   4.713  1.0982 -0.2279  1.1390
13717TIP3    H262567   2.973   1.010   4.612  2.2074 -0.8031  2.0213
13718TIP3   OH262568   3.653   6.751  11.931  0.6295 -0.7181 -0.0046
13718TIP3    H162569   3.661   6.683  11.999  2.9237 -0.6934 -0.2383
13718TIP3    H262570   3.668   6.833  11.978  0.4363 -0.5606 -0.2192
13719TIP3   OH262571   3.902   0.109   0.469  0.0534  0.5047 -0.1151
13719TIP3    H162572   3.850   0.183   0.501 -0.2613  0.8118 -1.3172
13719TIP3    H262573   3.837   0.045   0.439  0.3365  1.0055 -1.8874
13720TIP3   OH262574   2.293   4.837  14.754 -0.4056  0.1792  0.3635
13720TIP3    H162575   2.386   4.832  14.778  0.0418  1.2189 -1.0657
13720TIP3    H262576   2.265   4.745  14.751  0.9971 -0.2406 -0.7206
13721TIP3   OH262577   6.578   2.493   6.563  0.2533 -0.8188 -0.5991
13721TIP3    H162578   6.559   2.574   6.610  0.4903 -1.0699 -0.0604
13721TIP3    H262579   6.524   2.498   6.484  0.5855  0.0523 -0.7792
13722TIP3   OH262580   5.337   2.060   5.531 -0.2155 -0.2581  0.6279
13722TIP3    H162581   5.308   2.020   5.613  0.8147 -0.7452  0.7607
13722TIP3    H262582   5.319   2.154   5.542 -3.3677 -0.7150  0.0207
13723TIP3   OH262583   0.342   6.073   1.707  0.7382 -0.0446 -0.8177
13723TIP3    H162584   0.332   6.165   1.680  0.8175 -0.2818 -1.6603
13723TIP3    H262585   0.433   6.067   1.735 -0.1654  1.0061  2.6291
13724TIP3   OH262586   6.680   2.138  10.846 -0.6458  0.1124 -0.0104
13724TIP3    H162587   6.602   2.151  10.791 -1.3701  0.1706  1.0179
13724TIP3    H262588   6.743   2.202  10.812 -0.2747 -1.3670 -2.2390
13725TIP3   OH262589   0.011   2.683   2.974 -0.3871 -0.2651  0.7727
13725TIP3    H162590   0.038   2.730   3.053  0.5167  0.1626  0.2136
13725TIP3    H262591   0.062   2.722   2.904 -2.0589  0.1487 -0.2281
13726TIP3   OH262592   2.532   3.751  16.651  0.4002 -0.1608  0.1669
13726TIP3    H162593   2.526   3.843  16.624  0.9394  0.3261  1.6678
13726TIP3    H262594   2.455   3.710  16.611 -2.4233  1.9108  3.2001
13727TIP3   OH262595   2.504   2.656  10.874 -0.3540 -0.1870  0.1779
13727TIP3    H162596   2.515   2.696  10.788  1.6148 -3.1686 -1.0328
13727TIP3    H262597   2.504   2.729  10.935 -0.3812  1.8787 -2.2388
13728TIP3   OH262598   0.309   0.813   4.039  0.3790  0.3849 -0.3850
13728TIP3    H162599   0.238   0.875   4.056  0.9876  1.0030 -0.0920
13728TIP3    H262600   0.314   0.759   4.118 -0.9081 -0.7939 -1.0890
13729TIP3   OH262601   3.038   1.102  11.493 -0.4736  0.3914 -0.3923
13729TIP3    H162602   2.970   1.166  11.471 -0.2325  1.0543  0.7604
13729TIP3    H262603   3.071   1.130  11.579 -0.3449 -1.2639  0.1092
13730TIP3   OH262604   4.439   6.650   0.965 -0.0740  0.4680  0.2133
13730TIP3    H162605   4.518   6.596   0.959 -0.9721 -1.0571  1.7451
13730TIP3    H262606   4.448   6.696   1.048  0.8127  2.9683 -1.2003
13731TIP3   OH262607   0.675   1.493  14.087 -1.2994 -0.1314  0.1626
13731TIP3    H162608   0.633   1.517  14.169 -1.2022 -0.6223  0.3614
13731TIP3    H262609   0.602   1.464  14.031 -1.3651  0.2010  0.0741
13732TIP3   OH262610   1.402   6.418  15.456  0.5985  0.1858 -0.0397
13732TIP3    H162611   1.306   6.411  15.462  0.6936  0.1864  1.7313
13732TIP3    H262612   1.424   6.374  15.374 -0.8875 -0.2540 -0.2166
13733TIP3   OH262613   1.243   0.018   1.659  0.2566  0.0969  0.4922
13733TIP3    H162614   1.165  -0.008   1.708  0.0920 -0.9752 -0.3051
13733TIP3    H262615   1.280  -0.065   1.628  0.4379  0.7336 -1.0409
13734TIP3   OH262616   3.917   3.100  13.344  0.1652  0.4063 -0.3320
13734TIP3    H162617   3.983   3.037  13.317  0.0935 -0.0775  0.5987
13734TIP3    H262618   3.921   3.100  13.440 -2.5918 -1.1766 -0.1517
13735TIP3   OH262619   3.928   2.329   2.373  0.3987  0.0001  0.3007
13735TIP3    H162620   3.911   2.248   2.325  1.9791  0.3104 -0.8031
13735TIP3    H262621   4.023   2.334   2.380  0.3808  2.2941 -0.5800
13736TIP3   OH262622   4.631   4.254  15.026  0.2196  0.5804 -0.4585
13736TIP3    H162623   4.636   4.183  15.091 -0.9593 -0.4945 -1.5210
13736TIP3    H262624   4.707   4.241  14.970  0.3278  0.5270 -0.3009
13737TIP3   OH262625   6.681   1.102   1.707 -0.3655  0.6467  0.5059
13737TIP3    H162626   6.748   1.034   1.715  1.0084  1.8865 -0.1937
13737TIP3    H262627   6.669   1.113   1.613 -1.0247  0.9655  0.6215
13738TIP3   OH262628   0.389   0.263   2.952 -0.1897  0.4956 -0.0749
13738TIP3    H162629   0.368   0.171   2.937 -0.2432  0.5181 -0.1363
13738TIP3    H262630   0.315   0.296   3.003  1.0973 -0.1792  2.2966
13739TIP3   OH262631   3.360   4.195   4.097 -0.6290 -0.3089  0.2239
13739TIP3    H162632   3.304   4.179   4.173 -1.2019 -0.1073 -0.1558
13739TIP3    H262633   3.427   4.256   4.129 -1.0368 -0.0003  0.4938
13740TIP3   OH262634   1.266   2.171  13.795 -0.2647  0.0946 -0.0135
13740TIP3    H162635   1.246   2.220  13.874  1.6070  1.2730 -0.2465
13740TIP3    H262636   1.325   2.101  13.824  0.9658  0.9352 -0.4557
13741TIP3   OH262637   0.685   3.444  13.083 -0.3649 -0.0672  1.0663
13741TIP3    H162638   0.696   3.414  13.173  0.1944 -2.3011  0.2873
13741TIP3    H262639   0.676   3.363  13.032 -1.5995  1.1829 -0.7672
13742TIP3   OH262640   2.338   4.754  13.413  0.0855 -0.3234 -0.1646
13742TIP3    H162641   2.294   4.764  13.329 -0.6582  0.9384  0.3517
13742TIP3    H262642   2.422   4.713  13.392 -1.1331 -2.3452 -1.2123
13743TIP3   OH262643   0.359   2.877  13.023 -0.2056 -0.2921 -0.0304
13743TIP3    H162644   0.378   2.847  12.934 -0.8240 -0.7992  0.0092
13743TIP3    H262645   0.286   2.823  13.052  0.6273 -0.7959  1.1567
13744TIP3   OH262646   0.136   4.638  11.944  0.6263  0.1560  0.1612
13744TIP3    H162647   0.147   4.568  12.008 -0.2137  0.5241  0.7065
13744TIP3    H262648   0.223   4.678  11.937  1.2252 -1.2148 -0.4867
13745TIP3   OH262649   5.718   6.522  11.080  0.8933  0.1410 -0.4558
13745TIP3    H162650   5.765   6.594  11.039 -1.8814  2.1117 -0.3377
13745TIP3    H262651   5.695   6.554  11.167  2.2652 -2.0723  0.7776
13746TIP3   OH262652   0.463   5.411   0.551 -0.3161  0.9894  0.1127
13746TIP3    H162653   0.381   5.459   0.539 -0.0987  1.3585  0.1069
13746TIP3    H262654   0.501   5.406   0.463 -1.4023 -1.1092 -0.2684
13747TIP3   OH262655   4.189   6.220   0.897  0.3206 -0.4008  0.0648
13747TIP3    H162656   4.246   6.173   0.836 -0.3379 -1.3742  0.1886
13747TIP3    H262657   4.217   6.311   0.890  0.4935 -0.5471 -1.4384
13748TIP3   OH262658   3.794   4.869   0.514  0.6155  0.1457 -0.6230
13748TIP3    H162659   3.876   4.868   0.464  0.0082 -0.2995 -1.6239
13748TIP3    H262660   3.802   4.794   0.574  0.4321 -0.6143 -1.5459
13749TIP3   OH262661   4.652   2.081   0.001  0.3956 -0.2874  0.7663
13749TIP3    H162662   4.574   2.135   0.011  1.9877  2.6578 -1.7682
13749TIP3    H262663   4.687   2.072   0.089 -1.1592  0.9263  1.5319
13750TIP3   OH262664   4.373   3.442  13.942 -0.2699  0.6707 -0.2849
13750TIP3    H162665   4.394   3.511  14.004 -1.4286  0.0844  0.7897
13750TIP3    H262666   4.441   3.376  13.954 -1.4025 -0.1958  1.5636
13751TIP3   OH262667   3.762   6.611  13.264 -0.0361  0.3671  0.6858
13751TIP3    H162668   3.681   6.570  13.295 -0.8801  1.4200 -0.0707
13751TIP3    H262669   3.787   6.670  13.336 -0.7649  1.1390  0.3201
13752TIP3   OH262670   2.085   6.623   0.817  0.1659  0.1799  0.2861
13752TIP3    H162671   2.070   6.558   0.886 -0.4715  0.8324  0.7757
13752TIP3    H262672   1.998   6.659   0.800  0.7626  2.0446  1.1535
13753TIP3   OH262673   3.672   2.042   0.591 -0.1727  0.0609 -0.6802
13753TIP3    H162674   3.739   2.083   0.646 -1.7084  0.9614  0.5661
13753TIP3    H262675   3.702   1.951   0.582  0.3700  0.0111  1.2471
13754TIP3   OH262676   0.074   5.212   1.849  0.0945  0.2981  0.4347
13754TIP3    H162677   0.166   5.221   1.874 -0.1378  0.4930  1.2121
13754TIP3    H262678   0.045   5.302   1.833  0.3547  0.1515 -0.9646
13755TIP3   OH262679   5.943   3.621   3.929 -0.3296 -0.0024  0.5705
13755TIP3    H162680   5.894   3.671   3.864  0.9771 -0.1734 -0.5483
13755TIP3    H262681   6.028   3.664   3.935  0.2947 -1.2092  0.6394
13756TIP3   OH262682   3.826   0.172   5.875 -0.1724  0.1129 -0.1132
13756TIP3    H162683   3.888   0.238   5.845  0.1500 -0.2725 -0.3033
13756TIP3    H262684   3.833   0.102   5.810  1.2291 -1.1691  1.3757
13757TIP3   OH262685   5.836   3.524   2.478 -0.2765 -0.4347  0.0517
13757TIP3    H162686   5.852   3.443   2.429  1.1689 -1.6763  2.4697
13757TIP3    H262687   5.864   3.593   2.419  1.2892 -1.8783 -0.9512
13758TIP3   OH262688   2.301   6.130  16.782 -0.3229 -0.0857 -0.1138
13758TIP3    H162689   2.393   6.106  16.789 -0.3688  0.1793  1.6173
13758TIP3    H262690   2.301   6.225  16.774 -0.4693 -0.0038  0.7701
13759TIP3   OH262691   5.804   2.776  16.965 -0.4083  0.3046  0.0186
13759TIP3    H162692   5.882   2.728  16.937 -0.5492 -0.9742  1.7572
13759TIP3    H262693   5.838   2.861  16.994  0.5875 -0.9353  2.5479
13760TIP3   OH262694   6.763   0.044   2.055  0.4929  1.0786 -0.5950
13760TIP3    H162695   6.722   0.049   1.968  0.8906  1.1255 -0.7797
13760TIP3    H262696   6.702   0.091   2.112  1.1051  2.5872 -1.1678
13761TIP3   OH262697   3.142   4.089   3.887  0.0091 -0.3034 -0.0718
13761TIP3    H162698   3.155   4.015   3.828  1.5336  0.3835 -0.6415
13761TIP3    H262699   3.228   4.103   3.927 -0.8754 -0.4251  1.9243
13762TIP3   OH262700   0.835   1.503  16.252 -0.0019  0.3348 -0.2039
13762TIP3    H162701   0.870   1.430  16.303  0.8282  1.2104  0.4906
13762TIP3    H262702   0.778   1.462  16.187  0.2671 -0.9115  0.3413
13763TIP3   OH262703   1.470   4.755   5.672 -0.9093 -0.1987 -0.0659
13763TIP3    H162704   1.434   4.842   5.688 -1.0300 -0.2140 -0.2461
13763TIP3    H262705   1.470   4.713   5.758 -0.5172  0.1006  0.0846
13764TIP3   OH262706   3.444   0.121   5.768  1.2572  0.3814  0.3326
13764TIP3    H162707   3.493   0.039   5.779  1.0437  0.3801  1.3381
13764TIP3    H262708   3.447   0.162   5.855 -2.2976 -0.6237  1.0221
13765TIP3   OH262709   6.778   4.859  11.257 -0.3905  0.0182 -0.1029
13765TIP3    H162710   6.795   4.876  11.350  2.1483  0.5150 -0.6216
13765TIP3    H262711   6.817   4.773  11.241 -1.2327 -0.2736 -0.6095
13766TIP3   OH262712   5.994   0.116  12.416 -0.4871 -0.1487  0.3971
13766TIP3    H162713   5.983   0.021  12.422 -0.8601  0.0884  4.1885
13766TIP3    H262714   6.055   0.138  12.486 -0.0627  2.3770 -0.7200
13767TIP3   OH262715   5.745   4.834   4.578  0.4676 -0.1688  0.0337
13767TIP3    H162716   5.752   4.897   4.650  0.0300 -0.4019  0.2820
13767TIP3    H262717   5.756   4.888   4.499 -2.4087  0.6679  0.1405
13768TIP3   OH262718   1.943   1.246  13.249  0.4382 -0.0895 -0.0150
13768TIP3    H162719   1.964   1.236  13.156 -0.0826  1.5196 -0.3272
13768TIP3    H262720   2.021   1.213  13.295  1.5950  1.1254 -1.0612
13769TIP3   OH262721   6.252   6.408   1.365 -0.2060  0.2339  0.0655
13769TIP3    H162722   6.288   6.483   1.318  1.7487 -0.1944  0.8227
13769TIP3    H262723   6.258   6.336   1.302 -0.6741  0.3739 -0.1431
13770TIP3   OH262724   4.510   6.225  16.318  0.3652 -0.1266 -0.3965
13770TIP3    H162725   4.517   6.148  16.262 -0.0081  1.0024 -2.0533
13770TIP3    H262726   4.561   6.204  16.396  0.3968 -1.9666 -0.9008
13771TIP3   OH262727   6.764   3.490   5.208 -0.3415  0.0276  0.3107
13771TIP3    H162728   6.676   3.527   5.220 -0.2997 -0.0067  0.7507
13771TIP3    H262729   6.757   3.401   5.242 -0.7944 -0.8365 -2.0224
13772TIP3   OH262730   6.283   1.394  15.541 -1.0219 -0.5578  0.2494
13772TIP3    H162731   6.238   1.407  15.624 -2.1017 -0.1257 -0.4074
13772TIP3    H262732   6.230   1.439  15.476 -0.1778 -0.8753 -0.6897
13773TIP3   OH262733   2.529   1.661   3.404 -0.0445  0.0325 -0.2802
13773TIP3    H162734   2.454   1.707   3.440 -0.3950 -0.8872  0.1850
13773TIP3    H262735   2.507   1.646   3.312  0.1032  0.8534 -0.4485
13774TIP3   OH262736   5.315   0.702   0.539 -0.4383 -0.3057  0.3833
13774TIP3    H162737   5.402   0.685   0.503 -0.3077 -0.1750  0.6355
13774TIP3    H262738   5.255   0.683   0.467 -0.1937 -0.2696  0.1690
13775TIP3   OH262739   1.921   3.491  15.114  0.4323 -0.3365 -0.3992
13775TIP3    H162740   1.870   3.433  15.171 -1.3520  0.7726 -0.7980
13775TIP3    H262741   1.930   3.442  15.033 -1.3882  0.0357 -0.8648
13776TIP3   OH262742   0.098   0.368   0.256  0.0514 -0.6363  0.8234
13776TIP3    H162743   0.148   0.297   0.295  0.8264 -0.5034  0.0699
13776TIP3    H262744   0.126   0.371   0.164 -0.1058  0.5122  0.7961
13777TIP3   OH262745   5.094   6.402  14.110  0.6633 -0.5377  0.3335
13777TIP3    H162746   5.058   6.486  14.079 -1.1645 -0.3009  2.9799
13777TIP3    H262747   5.181   6.398  14.070 -0.6659  0.8040 -2.9463
13778TIP3   OH262748   4.509   5.050   1.873  0.0700 -0.0542  0.1840
13778TIP3    H162749   4.528   4.957   1.863 -1.1418 -0.4366  1.3569
13778TIP3    H262750   4.512   5.065   1.968 -0.0909  1.0277  0.0265
13779TIP3   OH262751   3.226   4.267   3.371 -1.0260 -0.2948 -0.0987
13779TIP3    H162752   3.275   4.186   3.387 -1.8949 -0.6985  0.5675
13779TIP3    H262753   3.243   4.321   3.448 -0.3903  0.1942 -0.5746
13780TIP3   OH262754   4.378   0.476   2.887  0.0517  0.3785 -0.0898
13780TIP3    H162755   4.303   0.417   2.882 -0.5822  1.2025 -0.4219
13780TIP3    H262756   4.452   0.419   2.910  0.0575 -1.0555 -3.4592
13781TIP3   OH262757   1.093   6.434  17.221 -0.4160  0.1982  0.8601
13781TIP3    H162758   1.180   6.417  17.259  0.6878  1.0995 -1.1740
13781TIP3    H262759   1.052   6.347  17.216  1.0256 -0.4686  0.2935
13782TIP3   OH262760   0.224   3.916   3.571 -0.2879 -0.0718 -0.0486
13782TIP3    H162761   0.312   3.883   3.551  0.1598  0.8654  0.3582
13782TIP3    H262762   0.165   3.853   3.528  0.5994  0.5231 -2.2248
13783TIP3   OH262763   5.522   5.796   5.253  0.4473  0.1413  0.2683
13783TIP3    H162764   5.443   5.805   5.201 -1.3873 -1.9370  2.5436
13783TIP3    H262765   5.501   5.837   5.337  2.0629  0.2394  0.6583
13784TIP3   OH262766   1.479   4.666  10.612 -0.0385  0.4012  0.0556
13784TIP3    H162767   1.472   4.595  10.548 -1.2704  1.5036 -1.0690
13784TIP3    H262768   1.456   4.744  10.562  1.6121  1.6300  1.2008
13785TIP3   OH262769   6.233   3.028   5.260 -0.4998  0.5437  0.0654
13785TIP3    H162770   6.182   2.948   5.247  0.7591  0.0698 -2.2801
13785TIP3    H262771   6.243   3.036   5.355 -0.1736 -2.3992  0.3169
13786TIP3   OH262772   1.573   2.434  16.687  0.6523  0.3056 -0.1971
13786TIP3    H162773   1.575   2.527  16.663 -0.6160  1.4659  3.8019
13786TIP3    H262774   1.545   2.389  16.607 -0.4921  3.5673 -1.7174
13787TIP3   OH262775   2.493   1.492   2.674 -0.4610 -0.5520  0.0592
13787TIP3    H162776   2.432   1.544   2.726 -0.7076  0.0111 -0.7873
13787TIP3    H262777   2.524   1.424   2.734 -1.3353 -0.3777  0.7113
13788TIP3   OH262778   1.573   5.197   0.366  0.2257 -0.2714  0.0868
13788TIP3    H162779   1.518   5.237   0.300  0.5252 -0.5211 -0.3245
13788TIP3    H262780   1.543   5.106   0.371  0.9316 -0.5515 -0.5225
13789TIP3   OH262781   4.617   2.859  13.688 -0.0957  0.1427  0.0878
13789TIP3    H162782   4.692   2.821  13.643  0.0145  2.1794 -1.5495
13789TIP3    H262783   4.546   2.797  13.674  1.0942 -1.5056  1.1314
13790TIP3   OH262784   5.407   0.710  12.285 -0.4377  0.1192  0.5180
13790TIP3    H162785   5.449   0.741  12.366  0.8326 -2.6611  0.9757
13790TIP3    H262786   5.477   0.709  12.221 -0.9452  0.2311 -0.0381
13791TIP3   OH262787   3.601   3.562  11.939  0.4880  0.0846  0.0085
13791TIP3    H162788   3.603   3.561  11.843 -0.8782  1.5384 -0.0451
13791TIP3    H262789   3.690   3.536  11.965  0.8484 -0.4059 -1.6334
13792TIP3   OH262790   4.095   5.368  11.826  0.0608  0.2093  0.3186
13792TIP3    H162791   4.071   5.427  11.755 -0.3316 -1.5064 -0.9818
13792TIP3    H262792   4.016   5.363  11.880 -0.1965  0.1468 -0.0642
13793TIP3   OH262793   5.447   5.024  16.566 -0.6042  0.4929 -0.6816
13793TIP3    H162794   5.491   4.956  16.617 -0.7426 -0.2001 -1.4778
13793TIP3    H262795   5.395   5.073  16.631  0.3721  0.5536  0.0648
13794TIP3   OH262796   0.537   1.771   3.667 -0.3373 -0.2794 -0.3434
13794TIP3    H162797   0.553   1.864   3.651 -1.7882  0.6118  3.0648
13794TIP3    H262798   0.494   1.741   3.587 -0.7033  2.2021 -1.1268
13795TIP3   OH262799   5.923   2.512  15.425  0.4874  0.0169 -0.2911
13795TIP3    H162800   5.885   2.488  15.340  0.1562 -0.9119  0.1030
13795TIP3    H262801   5.852   2.557  15.471  0.5090  0.0832 -0.3237
13796TIP3   OH262802   1.473   4.751  14.837 -0.0438  0.4908  0.0791
13796TIP3    H162803   1.452   4.658  14.823  0.0036  0.2488  1.6006
13796TIP3    H262804   1.394   4.797  14.809 -0.4749 -0.0798  0.3449
13797TIP3   OH262805   3.472   4.908   1.560 -0.5038 -0.5621 -0.6572
13797TIP3    H162806   3.500   4.998   1.579 -0.1066 -0.7852 -0.1707
13797TIP3    H262807   3.530   4.879   1.490 -2.6959  0.6503 -3.0761
13798TIP3   OH262808   1.092   2.691   4.148  0.1549 -0.0223 -0.1470
13798TIP3    H162809   1.070   2.610   4.103  1.2802 -2.0508  2.8126
13798TIP3    H262810   1.008   2.736   4.159 -1.2280 -2.9839  2.2061
13799TIP3   OH262811   1.358   6.435   3.457 -0.1051  0.1972  0.6716
13799TIP3    H162812   1.359   6.522   3.498 -1.6745 -1.3042  4.0701
13799TIP3    H262813   1.268   6.423   3.428  0.5832  0.4892 -1.7420
13800TIP3   OH262814   5.463   4.572   3.323 -0.3608  0.2113  0.2501
13800TIP3    H162815   5.383   4.616   3.352 -0.3271  0.7857 -0.5113
13800TIP3    H262816   5.521   4.643   3.298 -0.0621 -0.2493 -0.3621
13801TIP3   OH262817   3.227   2.934  15.720  0.1085  0.1619 -0.5183
13801TIP3    H162818   3.292   2.866  15.702  0.7578  0.3409  1.0081
13801TIP3    H262819   3.145   2.887  15.734  0.3954 -0.2516 -0.2156
13802TIP3   OH262820   0.244   4.029  13.584  0.3253 -0.5571  0.7472
13802TIP3    H162821   0.277   4.083  13.512  2.8478 -1.3446  1.2726
13802TIP3    H262822   0.191   4.089  13.637 -1.3853  0.0824 -1.6134
13803TIP3   OH262823   1.490   5.036  12.685 -0.7276  0.1636  0.4735
13803TIP3    H162824   1.577   5.020  12.721 -0.8445  1.8708  1.5598
13803TIP3    H262825   1.490   4.990  12.601  0.2379 -2.1863  1.7252
13804TIP3   OH262826   6.589   3.706  13.543 -0.1035 -0.2086 -0.0966
13804TIP3    H162827   6.541   3.659  13.475 -0.1900  2.8204 -2.2280
13804TIP3    H262828   6.661   3.648  13.565 -2.1159 -2.8056 -0.1772
13805TIP3   OH262829   3.624   2.841   2.243  0.2477 -0.2343 -0.2333
13805TIP3    H162830   3.575   2.761   2.261  0.5835 -0.7496 -1.5462
13805TIP3    H262831   3.715   2.818   2.259  0.1450  0.6038  1.7814
13806TIP3   OH262832   4.864   4.014  16.066  0.3210  0.0232  0.1044
13806TIP3    H162833   4.899   4.091  16.111  0.8970  0.9836 -1.9117
13806TIP3    H262834   4.897   3.939  16.116  2.4043  1.0178  0.2811
13807TIP3   OH262835   5.076   6.397  11.903  0.6167 -0.1782 -0.1780
13807TIP3    H162836   5.105   6.488  11.912 -0.9086  0.4747 -1.6364
13807TIP3    H262837   4.999   6.402  11.847  1.1588 -2.4844 -1.1796
13808TIP3   OH262838   1.770   1.030   1.050 -0.1363  0.8631  0.1810
13808TIP3    H162839   1.849   0.995   1.010 -0.4505 -1.7571  1.7236
13808TIP3    H262840   1.800   1.072   1.130 -0.1156  1.3107 -0.0627
13809TIP3   OH262841   6.629   5.344   4.967 -0.1708 -0.0851 -0.2135
13809TIP3    H162842   6.639   5.293   4.887 -1.1162 -2.1310  0.9461
13809TIP3    H262843   6.685   5.301   5.031 -0.7060  0.5389  0.6857
13810TIP3   OH262844   2.099   3.917  15.899  0.2537  0.1312 -0.4074
13810TIP3    H162845   2.004   3.921  15.890  0.1733  0.1990  0.4152
13810TIP3    H262846   2.114   3.905  15.993  1.0494 -0.1327 -0.5569
13811TIP3   OH262847   3.761   5.480   5.275 -0.1621  0.5118 -0.6818
13811TIP3    H162848   3.691   5.491   5.338 -0.1567 -1.0687 -0.3876
13811TIP3    H262849   3.762   5.386   5.255  0.9619  0.7218 -1.7160
13812TIP3   OH262850   6.383   4.541   3.847  0.0122 -0.3269  0.1832
13812TIP3    H162851   6.470   4.511   3.873 -0.0089  1.2031  2.1182
13812TIP3    H262852   6.367   4.499   3.762  1.9485 -1.8993  0.5755
13813TIP3   OH262853   5.210   1.952  13.534  0.6108  0.5734  0.0776
13813TIP3    H162854   5.259   1.870  13.545 -0.8359 -0.2799  0.1977
13813TIP3    H262855   5.226   1.978  13.443 -1.4182 -1.4765 -0.8920
13814TIP3   OH262856   5.921   6.432   1.365 -0.2558  0.0326 -0.2957
13814TIP3    H162857   6.011   6.449   1.393 -0.7833  0.5364  1.1732
13814TIP3    H262858   5.922   6.341   1.337  0.7998  0.1415 -0.6383
13815TIP3   OH262859   4.944   5.301  12.902  0.4983 -0.0532  0.0840
13815TIP3    H162860   4.911   5.378  12.856  2.0407  0.8093  0.3932
13815TIP3    H262861   4.984   5.247  12.833 -0.7249 -0.6773 -0.1557
13816TIP3   OH262862   1.882   5.274  14.621  0.0163  0.2685  0.2492
13816TIP3    H162863   1.846   5.214  14.556 -3.1347 -0.6263  2.7083
13816TIP3    H262864   1.831   5.354  14.612  0.2835  0.5182  0.9001
13817TIP3   OH262865   2.046   0.429   3.893  0.0662 -0.1109  0.2866
13817TIP3    H162866   2.005   0.395   3.972 -0.4533 -0.0806  0.0328
13817TIP3    H262867   2.140   0.430   3.913 -0.0004 -0.7527  0.6524
13818TIP3   OH262868   6.083   0.866   0.680  0.0713  0.4541 -0.0723
13818TIP3    H162869   6.119   0.892   0.595 -0.5463  1.3667 -0.0675
13818TIP3    H262870   6.139   0.912   0.743  0.3297  0.0298  0.0121
13819TIP3   OH262871   0.157   4.839  17.159 -0.3954  0.1149 -0.2004
13819TIP3    H162872   0.120   4.798  17.238 -2.2241 -0.2957 -1.2490
13819TIP3    H262873   0.107   4.920  17.149 -0.0278  0.2627 -0.8289
13820TIP3   OH262874   0.521   0.902   1.565 -0.5138  0.8360 -0.7497
13820TIP3    H162875   0.453   0.957   1.605 -1.3129 -1.0446  0.5257
13820TIP3    H262876   0.596   0.913   1.623 -1.7542 -2.0988  1.5279
13821TIP3   OH262877   4.899   3.013  16.199 -0.0879  0.0344  0.6607
13821TIP3    H162878   4.863   2.925  16.200  0.4160 -0.1651  1.3181
13821TIP3    H262879   4.841   3.064  16.255  0.5080 -0.2299  1.5175
13822TIP3   OH262880   2.063   3.106  13.657  0.5559 -0.0409  0.1062
13822TIP3    H162881   1.986   3.160  13.674  1.2498  1.2601 -0.7978
13822TIP3    H262882   2.105   3.147  13.582  1.0630 -1.8863 -0.6545
13823TIP3   OH262883   2.385   5.964   5.349  0.2298 -0.0218 -0.8086
13823TIP3    H162884   2.354   5.879   5.378 -0.5843 -0.4074 -2.7617
13823TIP3    H262885   2.472   5.973   5.389 -1.4224  0.1778  2.9792
13824TIP3   OH262886   5.412   0.805   5.010  0.5868  0.3868  0.6575
13824TIP3    H162887   5.345   0.839   5.069  0.4953  0.4704  0.5069
13824TIP3    H262888   5.417   0.870   4.940  1.4060  0.7826  1.0829
13825TIP3   OH262889   5.556   2.123   4.661 -0.6442 -0.6933 -0.2601
13825TIP3    H162890   5.645   2.089   4.655 -0.2675  0.2621 -0.2389
13825TIP3    H262891   5.533   2.116   4.753  0.1793  0.9331  0.0856
13826TIP3   OH262892   2.398   0.834   5.123 -0.3968 -0.4846 -0.3564
13826TIP3    H162893   2.478   0.854   5.074  0.0822 -0.7511  0.3079
13826TIP3    H262894   2.329   0.834   5.057  0.0297  0.5525 -0.8170
13827TIP3   OH262895   6.549   5.244  15.655  0.4461  0.1732 -0.6188
13827TIP3    H162896   6.553   5.173  15.719 -0.0753  0.4711 -0.2570
13827TIP3    H262897   6.559   5.200  15.571 -1.4617 -0.5257 -0.5073
13828TIP3   OH262898   6.304   2.961  14.706  0.0596 -0.1464  0.5306
13828TIP3    H162899   6.304   2.906  14.627  0.3540  0.3917  0.1534
13828TIP3    H262900   6.212   2.986  14.717 -0.0365 -0.4955  0.5596
13829TIP3   OH262901   5.144   4.007   6.416  0.4785  0.1494 -0.0849
13829TIP3    H162902   5.207   4.077   6.431  0.3051  0.7359 -1.9955
13829TIP3    H262903   5.196   3.927   6.414  1.0171  0.5085 -0.4985
13830TIP3   OH262904   4.706   4.054   2.540  0.4978  0.3150 -0.3684
13830TIP3    H162905   4.784   4.102   2.570  0.8634  0.6858 -1.8554
13830TIP3    H262906   4.636   4.118   2.546  0.5096  0.2924  0.0045
13831TIP3   OH262907   1.182   0.399  16.808  0.8526 -0.0813  0.0310
13831TIP3    H162908   1.129   0.387  16.728 -0.4302  2.2383  0.4823
13831TIP3    H262909   1.263   0.438  16.776  0.8133 -0.2423 -0.2762
13832TIP3   OH262910   4.139   2.073   2.882  0.2147  0.3488 -0.2837
13832TIP3    H162911   4.149   2.071   2.786  1.3100 -0.7341 -0.1622
13832TIP3    H262912   4.189   2.150   2.909 -0.6747  1.0622 -0.6361
13833TIP3   OH262913   5.036   1.287   5.239  0.3507 -0.0257 -0.0972
13833TIP3    H162914   5.016   1.248   5.324 -1.4552 -0.2860 -0.6143
13833TIP3    H262915   4.979   1.364   5.234 -1.6456 -1.6041 -2.2396
13834TIP3   OH262916   2.812   5.035  16.873 -0.1821 -0.0099 -0.7579
13834TIP3    H162917   2.834   5.025  16.780  1.0246 -3.3123 -0.1548
13834TIP3    H262918   2.867   4.972  16.918  0.3219  2.5724  2.4104
13835TIP3   OH262919   5.436   6.570   5.123  0.1994  0.1188 -0.2918
13835TIP3    H162920   5.463   6.605   5.038  1.9968  1.1881  0.6813
13835TIP3    H262921   5.435   6.646   5.181 -0.9989 -0.6006  0.6661
13836TIP3   OH262922   2.951   1.004   0.515 -0.2968  0.2749  0.4374
13836TIP3    H162923   3.023   1.044   0.466  0.7849 -1.6881  0.3700
13836TIP3    H262924   2.991   0.977   0.598 -0.6559 -1.7836 -0.0173
13837TIP3   OH262925   4.864   0.722   0.401 -0.2587 -0.0887 -0.3234
13837TIP3    H162926   4.861   0.647   0.461 -2.1394  0.8246  0.7433
13837TIP3    H262927   4.778   0.762   0.408  1.2659  3.1636  0.3375
13838TIP3   OH262928   5.343   2.382  14.555  0.2426 -0.3381 -0.0087
13838TIP3    H162929   5.415   2.432  14.592 -0.5847  1.4527 -0.7528
13838TIP3    H262930   5.311   2.436  14.483  1.1552 -3.2474 -2.7086
13839TIP3   OH262931   3.443   4.729   2.566 -0.2100 -0.3080  0.2304
13839TIP3    H162932   3.396   4.696   2.643  1.3923 -0.5788  1.1061
13839TIP3    H262933   3.441   4.657   2.504  0.0665 -0.7409  0.7188
13840TIP3   OH262934   3.024   3.756   4.970  0.0199  0.3122  0.1280
13840TIP3    H162935   2.960   3.686   4.959  0.1542  0.1151  0.5975
13840TIP3    H262936   3.094   3.716   5.022  0.7873  0.3507 -0.8538
13841TIP3   OH262937   5.092   6.532   1.508  0.8093  0.2356  0.0506
13841TIP3    H162938   5.030   6.493   1.446  1.4466 -3.2244  1.4705
13841TIP3    H262939   5.127   6.609   1.461 -0.6099 -0.7920 -2.8460
13842TIP3   OH262940   0.568   0.017   1.869  0.5418 -0.1596  0.4518
13842TIP3    H162941   0.646   0.034   1.815  0.5605  1.0429  0.8425
13842TIP3    H262942   0.576   0.079   1.941 -1.2525  0.5970  0.0084
13843TIP3   OH262943   4.305   5.043  17.053 -0.2274 -0.4137  0.6530
13843TIP3    H162944   4.240   5.006  16.993 -0.7060  0.3842  0.6845
13843TIP3    H262945   4.351   4.966  17.088 -0.4730 -0.9237 -0.1305
13844TIP3   OH262946   0.907   2.231   0.366  0.0467 -0.1383 -0.3919
13844TIP3    H162947   0.890   2.150   0.317  0.7401 -0.9064  0.6008
13844TIP3    H262948   0.920   2.297   0.299 -0.5984 -0.8411 -1.2242
13845TIP3   OH262949   2.577   1.646   5.666  0.2894 -0.4580 -0.8230
13845TIP3    H162950   2.578   1.712   5.597  1.8818 -0.6735 -1.0230
13845TIP3    H262951   2.593   1.695   5.747 -3.0386  0.0010 -0.3790
13846TIP3   OH262952   5.955   5.363   4.947 -0.6483  0.5475 -0.2651
13846TIP3    H162953   5.909   5.434   4.902 -0.5074  1.6164  1.2245
13846TIP3    H262954   5.904   5.284   4.926 -1.5245  1.2850 -0.9316
13847TIP3   OH262955   6.403   4.894   2.190 -0.0101  0.1987  0.1273
13847TIP3    H162956   6.418   4.868   2.281 -2.1349  0.5300  0.5984
13847TIP3    H262957   6.355   4.976   2.196 -0.5531  0.0047 -1.2905
13848TIP3   OH262958   6.626   4.372   1.517 -0.5608 -0.1762 -0.1433
13848TIP3    H162959   6.562   4.441   1.536 -0.0475 -0.1406  1.5145
13848TIP3    H262960   6.631   4.320   1.597 -0.7330 -1.9915 -1.2791
13849TIP3   OH262961   5.697   4.180   0.857 -0.1239  0.1513  0.1525
13849TIP3    H162962   5.615   4.129   0.859 -0.7067  1.0939  1.1359
13849TIP3    H262963   5.729   4.175   0.947  0.7705  0.0098 -0.1714
13850TIP3   OH262964   5.838   0.328  12.628 -0.2710 -0.5690 -0.2588
13850TIP3    H162965   5.787   0.253  12.598 -0.5220 -1.0955  1.4309
13850TIP3    H262966   5.929   0.298  12.624 -0.4083 -1.1751  0.9584
13851TIP3   OH262967   4.056   3.562   3.415  0.1242  0.1878 -0.7785
13851TIP3    H162968   4.101   3.641   3.445  3.2440 -1.8567  0.1227
13851TIP3    H262969   4.003   3.535   3.490 -0.2939  0.9544 -0.7950
13852TIP3   OH262970   0.341   5.051   0.684 -0.3022  0.3365  0.3708
13852TIP3    H162971   0.247   5.065   0.678 -0.5587 -1.1578  0.6995
13852TIP3    H262972   0.374   5.128   0.731 -1.2338  1.2865 -0.5208
13853TIP3   OH262973   3.619   3.225  13.554  0.5622  0.0130 -0.0896
13853TIP3    H162974   3.655   3.303  13.596  0.1850 -0.8609  1.9647
13853TIP3    H262975   3.598   3.252  13.465  0.7600  2.1613  0.4904
13854TIP3   OH262976   1.736   6.464   5.984  0.2946  0.1018 -0.0826
13854TIP3    H162977   1.677   6.521   6.032  0.9955  0.8165 -0.0630
13854TIP3    H262978   1.742   6.384   6.037  2.2275  1.4487  1.8187
13855TIP3   OH262979   6.223   4.165   2.420 -0.0616  0.5769 -0.0613
13855TIP3    H162980   6.270   4.081   2.427  0.4146  0.9642  1.7160
13855TIP3    H262981   6.292   4.228   2.397  0.0039  0.8688  0.9225
13856TIP3   OH262982   4.258   5.130   3.381  0.3168 -0.0246  0.2191
13856TIP3    H162983   4.221   5.058   3.329  1.0978 -0.9325  0.9227
13856TIP3    H262984   4.181   5.177   3.413 -0.1945 -0.0079 -0.9684
13857TIP3   OH262985   1.840   1.029  16.303  0.1859  0.1656 -0.5683
13857TIP3    H162986   1.784   1.107  16.309  0.5685  0.4854 -1.0700
13857TIP3    H262987   1.919   1.053  16.351 -0.6875 -0.8162  1.4003
13858TIP3   OH262988   4.265   4.054   2.152 -0.2618  0.2023 -0.0613
13858TIP3    H162989   4.314   4.137   2.154  1.1153 -0.5933 -0.0427
13858TIP3    H262990   4.332   3.987   2.141 -1.4437 -0.8665 -0.8281
13859TIP3   OH262991   1.448   1.082  13.730 -0.4931  0.0232  0.8823
13859TIP3    H162992   1.405   1.027  13.664 -2.1723  0.6458  1.4276
13859TIP3    H262993   1.533   1.041  13.744 -0.7995 -1.1009 -0.4141
13860TIP3   OH262994   5.072   5.613   3.460 -0.1518 -0.2232 -0.4226
13860TIP3    H162995   4.983   5.578   3.449 -0.2209 -0.1370 -0.1533
13860TIP3    H262996   5.071   5.696   3.414 -0.0018 -0.5545 -1.0263
13861TIP3   OH262997   5.345   3.078  14.371  0.2599  0.4370 -0.0057
13861TIP3    H162998   5.350   3.172  14.383 -1.8348  0.3451  2.0814
13861TIP3    H262999   5.292   3.066  14.293  0.0590  0.9924  0.0454
13862TIP3   OH263000   5.512   2.701  16.965  0.2206  0.0002 -0.1867
13862TIP3    H163001   5.549   2.736  17.046  0.2245 -0.0631 -0.1597
13862TIP3    H263002   5.586   2.697  16.904  0.0472  0.8234 -0.4550
13863TIP3   OH263003   1.697   5.006  14.104  0.5463  0.2528 -0.4210
13863TIP3    H163004   1.621   5.051  14.067 -1.3071 -0.5258  2.2752
13863TIP3    H263005   1.688   4.916  14.075  1.2487  0.4636 -1.3013
13864TIP3   OH263006   6.239   3.968  11.220 -0.0794 -0.7863 -0.2615
13864TIP3    H163007   6.318   3.933  11.262 -0.7229 -1.5483  0.3483
13864TIP3    H263008   6.233   3.921  11.137  1.7504  1.4485 -1.7089
13865TIP3   OH263009   6.260   6.593  11.694  0.3257  0.1281  0.4838
13865TIP3    H163010   6.188   6.636  11.739 -0.5276 -1.6090  0.8415
13865TIP3    H263011   6.312   6.552  11.763  1.8207  1.5654  0.2514
13866TIP3   OH263012   4.337   2.791   5.157  0.5047 -0.8227 -0.7858
13866TIP3    H163013   4.284   2.842   5.095 -0.9391  0.3266  1.3250
13866TIP3    H263014   4.325   2.700   5.129 -0.3310 -0.3569 -2.0244
13867TIP3   OH263015   1.358   1.417   1.582  0.3070 -0.4248 -0.1993
13867TIP3    H163016   1.265   1.436   1.571  0.6037  0.6570 -0.8848
13867TIP3    H263017   1.391   1.404   1.493  1.2617  1.4116 -0.1494
13868TIP3   OH263018   2.389   2.559   5.825 -0.3554  0.2749 -0.0079
13868TIP3    H163019   2.410   2.586   5.915 -1.0043 -1.1244  0.5882
13868TIP3    H263020   2.470   2.572   5.776 -0.0718  1.3115  0.7278
13869TIP3   OH263021   5.304   6.752   1.760 -0.3273 -0.3468 -0.1426
13869TIP3    H163022   5.235   6.716   1.816  0.8486  0.6316  2.0252
13869TIP3    H263023   5.277   6.730   1.671 -3.1297 -0.4581  0.6875
13870TIP3   OH263024   5.189   0.577  11.979  0.0131  0.0607 -0.2804
13870TIP3    H163025   5.178   0.483  11.990  0.7897  0.0260  0.2516
13870TIP3    H263026   5.116   0.604  11.922 -0.6329 -0.7348  0.1698
13871TIP3   OH263027   6.551   1.495   4.947  0.1967  0.3461  0.3736
13871TIP3    H163028   6.548   1.581   4.906  1.5294  1.1059  1.8248
13871TIP3    H263029   6.459   1.472   4.961 -0.1824  1.3216 -0.4039
13872TIP3   OH263030   5.855   4.189  13.846  0.3432  0.3407  0.3015
13872TIP3    H163031   5.774   4.227  13.880 -1.5257 -0.3150 -3.1600
13872TIP3    H263032   5.867   4.109  13.897 -2.2584 -0.5353 -0.3599
13873TIP3   OH263033   3.862   5.169   3.231 -0.0267  0.1461 -0.2624
13873TIP3    H163034   3.822   5.121   3.304  1.7200 -1.6206 -0.4166
13873TIP3    H263035   3.927   5.225   3.273 -1.6015  1.9167 -0.1461
13874TIP3   OH263036   0.718   1.666   6.101  0.0552  0.2157 -0.4746
13874TIP3    H163037   0.747   1.752   6.131 -1.6219  0.7438 -0.3353
13874TIP3    H263038   0.717   1.612   6.181  0.3101  0.2862 -0.4232
13875TIP3   OH263039   2.191   2.982  13.866  0.6872 -0.7471 -0.2409
13875TIP3    H163040   2.173   3.032  13.786  0.7744 -0.0178  0.1933
13875TIP3    H263041   2.174   2.891  13.842 -3.7655 -0.1467  0.1889
13876TIP3   OH263042   2.744   1.040  13.350  0.3823  0.1493 -0.0523
13876TIP3    H163043   2.712   1.126  13.323  0.4371  0.1855 -0.0032
13876TIP3    H263044   2.806   1.059  13.421 -0.1122  0.0219  0.4124
13877TIP3   OH263045   0.433   0.073  16.227  0.5099 -0.0694 -0.2845
13877TIP3    H163046   0.477   0.086  16.311  2.3552  0.2101 -1.2634
13877TIP3    H263047   0.502   0.041  16.168 -0.8996 -0.9187 -1.5196
13878TIP3   OH263048   1.915   5.846   1.019 -0.8482 -0.3066 -0.4596
13878TIP3    H163049   1.923   5.753   1.039 -0.6629 -0.5581 -1.6434
13878TIP3    H263050   1.828   5.855   0.981 -0.6060 -0.1217 -0.9793
13879TIP3   OH263051   3.851   2.503   0.865  0.5537  0.0594 -0.1314
13879TIP3    H163052   3.800   2.470   0.939 -0.6934 -0.2286 -1.1001
13879TIP3    H263053   3.883   2.589   0.894 -0.5870  0.2968  0.4544
13880TIP3   OH263054   1.641   1.932  11.700 -0.4276 -0.2639  0.2735
13880TIP3    H163055   1.629   1.913  11.793 -1.4206 -0.3556  0.1268
13880TIP3    H263056   1.564   1.895  11.657 -0.4265  0.5851 -0.4808
13881TIP3   OH263057   4.169   1.752   2.150  0.4871 -0.4862 -0.2435
13881TIP3    H163058   4.113   1.805   2.093  1.1008  0.8543  0.3630
13881TIP3    H263059   4.120   1.672   2.165 -0.5941  0.0327 -0.9636
13882TIP3   OH263060   2.927   0.216   3.117 -0.5977  0.5003  0.0780
13882TIP3    H163061   2.958   0.138   3.162  3.4091  1.4296 -0.8414
13882TIP3    H263062   2.847   0.188   3.073 -0.9298 -2.2113  2.2368
13883TIP3   OH263063   1.811   2.460   0.495  0.3025 -0.3583  0.2123
13883TIP3    H163064   1.728   2.413   0.492 -0.1946  0.5424 -0.3471
13883TIP3    H263065   1.828   2.484   0.404 -1.3491  3.7839  0.8533
13884TIP3   OH263066   4.883   2.448   5.791 -0.3793  0.1749  0.0780
13884TIP3    H163067   4.906   2.432   5.700  1.7699  1.0585  0.4106
13884TIP3    H263068   4.790   2.470   5.790 -0.1775  1.0013 -2.0000
13885TIP3   OH263069   0.100   0.515  15.731 -0.0428 -0.2035 -0.3580
13885TIP3    H163070   0.037   0.546  15.796  1.8836  0.5397  1.2168
13885TIP3    H263071   0.072   0.555  15.649 -0.2921  2.0332  0.7749
13886TIP3   OH263072   3.581   0.532   3.755  0.0343  0.6081 -0.1072
13886TIP3    H163073   3.646   0.504   3.690  1.9012  2.0355  1.0835
13886TIP3    H263074   3.529   0.598   3.710 -0.6680 -0.6063 -1.1022
13887TIP3   OH263075   6.488   1.842   1.837  0.0765  0.0810 -0.6013
13887TIP3    H163076   6.399   1.812   1.858 -0.1638  1.0032 -0.2600
13887TIP3    H263077   6.501   1.817   1.746  0.8165 -3.2293  0.3541
13888TIP3   OH263078   1.620   1.613   3.493  0.2629  0.3378 -0.5699
13888TIP3    H163079   1.684   1.682   3.511  0.7743 -0.9794  3.1126
13888TIP3    H263080   1.538   1.646   3.529 -0.2298  0.3068 -1.6358
13889TIP3   OH263081   2.739   3.061  13.454 -0.8315 -0.3595 -0.1852
13889TIP3    H163082   2.712   2.974  13.483 -1.2108 -0.0599  0.3794
13889TIP3    H263083   2.768   3.105  13.534  2.0705 -0.9112 -0.8810
13890TIP3   OH263084   0.046   2.080   5.627  0.2265  0.0227 -0.6186
13890TIP3    H163085   0.062   2.083   5.721 -2.0138 -3.8854  0.0067
13890TIP3    H263086   0.026   2.170   5.603 -1.0160  0.8102  3.0070
13891TIP3   OH263087   0.967   4.179   1.546 -0.3844 -0.4830  0.8372
13891TIP3    H163088   1.024   4.191   1.621  1.8237 -3.2191 -0.3352
13891TIP3    H263089   0.931   4.091   1.556 -0.9334 -0.4574 -0.7291
13892TIP3   OH263090   6.484   5.323   1.609 -0.3356  0.5497  0.8572
13892TIP3    H163091   6.457   5.385   1.541  1.4450  0.8322  0.3977
13892TIP3    H263092   6.484   5.375   1.690 -1.1636  0.5404  0.8687
13893TIP3   OH263093   4.033   1.980   3.205 -0.1310  0.9925  0.4541
13893TIP3    H163094   4.088   1.902   3.199  0.5518  1.4800  0.3574
13893TIP3    H263095   3.986   1.982   3.122  0.0605  0.8374  0.3400
13894TIP3   OH263096   1.525   2.558  14.405  0.2176  0.9021  0.7548
13894TIP3    H163097   1.453   2.513  14.360  0.3970 -1.4514  2.6663
13894TIP3    H263098   1.482   2.602  14.479  0.8398 -1.7204  2.7602
13895TIP3   OH263099   2.269   5.662   5.073 -0.0736  0.7110  0.4162
13895TIP3    H163100   2.224   5.674   5.156  0.0529  0.1255  0.5723
13895TIP3    H263101   2.270   5.749   5.033 -1.1683  0.7693  0.5003
13896TIP3   OH263102   4.023   5.507  11.361 -0.6280 -0.0849 -0.1829
13896TIP3    H163103   4.054   5.553  11.283  2.2887  0.8238  1.4295
13896TIP3    H263104   3.928   5.509  11.354 -0.4518  1.8603 -2.6476
13897TIP3   OH263105   1.349   6.114  11.612 -0.2639 -0.0776  0.1710
13897TIP3    H163106   1.436   6.127  11.573  0.2785  0.3112  1.4694
13897TIP3    H263107   1.358   6.149  11.700 -1.7508 -0.0549  0.3189
13898TIP3   OH263108   3.868   6.059   5.363 -0.1790 -0.2974  0.0850
13898TIP3    H163109   3.906   6.129   5.310  0.3942 -1.1142 -0.5803
13898TIP3    H263110   3.928   6.050   5.437 -0.9186  0.7632  0.8307
13899TIP3   OH263111   0.465   1.355  12.146  0.4500 -0.1376  0.4521
13899TIP3    H163112   0.411   1.297  12.199 -0.6782  2.5901  2.3963
13899TIP3    H263113   0.404   1.396  12.085  1.3736 -1.5254 -1.4677
13900TIP3   OH263114   4.230   6.606  13.787  0.1754 -0.2892 -0.0584
13900TIP3    H163115   4.235   6.512  13.771 -2.0607 -0.7852  1.8681
13900TIP3    H263116   4.312   6.627  13.832  0.2272 -1.5249  0.4483
13901TIP3   OH263117   3.050   3.309  10.648 -0.1356  0.5697  0.0847
13901TIP3    H163118   3.107   3.233  10.633 -0.4414  0.0640  1.4159
13901TIP3    H263119   3.070   3.368  10.575  0.1130 -0.7793 -0.9677
13902TIP3   OH263120   3.534   3.093   0.975 -0.5563  0.1988  0.1089
13902TIP3    H163121   3.589   3.089   0.897  0.4383  1.3092  0.7397
13902TIP3    H263122   3.511   3.186   0.983 -2.5898 -0.2506 -0.1798
13903TIP3   OH263123   4.215   2.293  12.285 -0.0033  0.1941  0.2293
13903TIP3    H163124   4.305   2.262  12.293  0.1199  0.7735  1.1636
13903TIP3    H263125   4.166   2.236  12.345  0.3657  2.3505  2.6558
13904TIP3   OH263126   1.162   3.991  15.548  0.1067 -0.1997  0.3705
13904TIP3    H163127   1.220   4.027  15.616  0.8362 -0.7760  0.0625
13904TIP3    H263128   1.103   4.063  15.527  1.7152  0.9097 -0.4235
13905TIP3   OH263129   2.114   6.752  10.967 -0.2331  0.0443 -0.2703
13905TIP3    H163130   2.068   6.836  10.969  0.2737  0.2964  1.1657
13905TIP3    H263131   2.207   6.774  10.963  0.0077 -0.4067  2.1816
13906TIP3   OH263132   0.035   4.654  15.683  0.0673  0.1259 -0.0732
13906TIP3    H163133  -0.031   4.714  15.648  0.3728  0.4568 -0.0856
13906TIP3    H263134   0.113   4.670  15.629  0.0977 -0.4106 -0.1949
13907TIP3   OH263135   6.102   0.505   1.286 -0.6606 -0.6540  0.4860
13907TIP3    H163136   6.187   0.467   1.261 -1.2391 -1.1169 -0.8308
13907TIP3    H263137   6.070   0.450   1.356 -1.3083 -2.4023 -1.1362
13908TIP3   OH263138   1.585   4.922  13.499 -0.3888 -0.1034 -0.7099
13908TIP3    H163139   1.655   4.862  13.474  0.8681  1.2642 -0.6062
13908TIP3    H263140   1.578   4.983  13.425 -0.7013  0.4361 -0.2448
13909TIP3   OH263141   2.193   6.580  15.442 -0.4507  0.0278  0.1947
13909TIP3    H163142   2.100   6.587  15.423 -0.6977 -4.2794 -0.5913
13909TIP3    H263143   2.197   6.559  15.535 -0.3772 -1.3841 -0.1172
13910TIP3   OH263144   4.694   2.080  11.124 -0.1221  0.1446  0.3961
13910TIP3    H163145   4.684   1.986  11.141 -1.7960  0.0718 -0.8028
13910TIP3    H263146   4.750   2.084  11.047  0.1960  0.1417  0.6289
13911TIP3   OH263147   1.262   3.527   6.045  0.1634  0.2070  0.6141
13911TIP3    H163148   1.171   3.554   6.054  0.1358  0.4181 -0.2884
13911TIP3    H263149   1.267   3.444   6.092 -0.1430  0.9244  1.9591
13912TIP3   OH263150   3.677   4.602  12.219 -0.8103  0.0467 -0.7031
13912TIP3    H163151   3.596   4.649  12.237 -0.1219  0.2783  2.1090
13912TIP3    H263152   3.673   4.525  12.276  1.0026  0.1585 -0.3881
13913TIP3   OH263153   2.188   3.322  17.056  0.0921  0.1837  0.1240
13913TIP3    H163154   2.171   3.228  17.049 -0.7377  0.3807 -0.6414
13913TIP3    H263155   2.263   3.328  17.115  0.4336 -0.9848 -0.1637
13914TIP3   OH263156   6.312   5.109  13.100 -0.0048  0.1224 -0.0872
13914TIP3    H163157   6.400   5.091  13.067  0.2320 -0.8609  1.0674
13914TIP3    H263158   6.283   5.185  13.049  1.7303  0.8165 -0.0748
13915TIP3   OH263159   4.683   5.770   0.794  0.2666 -0.4263 -0.3107
13915TIP3    H163160   4.594   5.802   0.783 -0.3570 -1.7679  0.7662
13915TIP3    H263161   4.675   5.675   0.797  1.8005 -0.5945 -0.7742
13916TIP3   OH263162   5.435   5.246   2.303 -0.0239  0.5087 -0.5266
13916TIP3    H163163   5.517   5.258   2.351 -0.1168  0.7162 -0.4168
13916TIP3    H263164   5.437   5.155   2.274 -0.0774  0.3116  0.0777
13917TIP3   OH263165   5.857   3.470   3.173  0.3190  0.5599 -0.2168
13917TIP3    H163166   5.811   3.415   3.236 -0.5896 -0.1987 -1.5346
13917TIP3    H263167   5.943   3.429   3.165  0.5699  0.8702  0.7926
13918TIP3   OH263168   4.923   0.082  14.332 -0.3213  0.9744 -0.0200
13918TIP3    H163169   4.872   0.160  14.352  1.3815  1.4119  2.7788
13918TIP3    H263170   4.888   0.014  14.390  0.8387  0.7195  0.3948
13919TIP3   OH263171   4.434   1.433  10.816  0.2258  0.1196 -0.1878
13919TIP3    H163172   4.525   1.403  10.825 -0.1468 -0.4624  1.9764
13919TIP3    H263173   4.382   1.353  10.812 -0.4065  0.4314  1.3117
13920TIP3   OH263174   4.119   6.666  11.967 -0.1605 -0.0622  0.2292
13920TIP3    H163175   4.147   6.587  12.013  0.6109 -0.3898 -0.7807
13920TIP3    H263176   4.080   6.634  11.886  0.3769  0.6025 -0.2964
13921TIP3   OH263177   0.183   1.722   1.214  0.4139  0.2032 -0.1192
13921TIP3    H163178   0.139   1.800   1.179  0.2084 -0.0465 -0.4249
13921TIP3    H263179   0.119   1.652   1.204  0.6651 -0.0421 -0.0120
13922TIP3   OH263180   1.075   5.652  10.443 -0.3959 -0.0698 -0.0253
13922TIP3    H163181   1.123   5.714  10.499  0.2171  1.6553 -2.3552
13922TIP3    H263182   0.991   5.695  10.427  0.3147  0.6006 -2.2641
13923TIP3   OH263183   4.936   1.628   1.821  0.2116 -0.4451 -0.2416
13923TIP3    H163184   4.955   1.719   1.798  1.7238 -1.0477 -1.5072
13923TIP3    H263185   5.007   1.603   1.881 -1.3837 -0.1692  1.8077
13924TIP3   OH263186   2.534   6.593  17.031 -0.1944 -0.1825  0.1792
13924TIP3    H163187   2.591   6.627  17.100 -1.0615 -0.9930  1.3216
13924TIP3    H263188   2.487   6.671  16.999 -0.9941 -0.0240  1.6694
13925TIP3   OH263189   2.868   0.940   5.788  0.1174 -0.0208 -0.5285
13925TIP3    H163190   2.838   0.883   5.859  0.1484  0.6029 -0.0176
13925TIP3    H263191   2.940   0.892   5.748 -0.3971 -0.7201 -0.6274
13926TIP3   OH263192   5.766   2.902   4.214 -0.0212  0.6809 -0.5950
13926TIP3    H163193   5.699   2.908   4.146  0.3732  1.2529 -0.9360
13926TIP3    H263194   5.744   2.823   4.263 -2.0850  1.8748  0.4904
13927TIP3   OH263195   6.407   0.376   3.627  0.3391 -0.7519  0.1101
13927TIP3    H163196   6.393   0.282   3.640  0.6483 -0.6518  1.1594
13927TIP3    H263197   6.366   0.394   3.542  1.0167 -2.0050 -0.5111
13928TIP3   OH263198   0.374   3.082  12.039  0.3937 -0.3404 -0.2923
13928TIP3    H163199   0.467   3.069  12.023  0.1226 -1.3993 -1.0387
13928TIP3    H263200   0.331   3.018  11.984 -0.8050  0.4736 -0.3230
13929TIP3   OH263201   0.088   1.867  14.389  0.0075 -0.0510 -0.0312
13929TIP3    H163202   0.062   1.793  14.335 -0.6664  0.5306 -0.5180
13929TIP3    H263203   0.080   1.835  14.479 -1.1502 -0.2901 -0.2125
13930TIP3   OH263204   2.456   0.737   3.424 -0.0431 -0.3469 -0.2575
13930TIP3    H163205   2.412   0.706   3.503  3.8721 -0.0598  2.1740
13930TIP3    H263206   2.427   0.827   3.415  0.4383  0.0271  1.6358
13931TIP3   OH263207   2.678   4.828  15.605 -0.0060  0.1401  0.1196
13931TIP3    H163208   2.722   4.912  15.616  1.3632 -0.6082  0.4682
13931TIP3    H263209   2.677   4.790  15.693 -0.6970 -0.1718 -0.0235
13932TIP3   OH263210   2.279   0.070  15.328 -0.1407  0.6230  0.4066
13932TIP3    H163211   2.283  -0.009  15.381 -1.5283  1.6990  2.1937
13932TIP3    H263212   2.358   0.119  15.351 -0.5339  0.8954  1.2136
13933TIP3   OH263213   4.303   2.018  14.568 -0.6493  0.2647  0.2681
13933TIP3    H163214   4.308   2.066  14.485 -0.3160  1.0225  0.7188
13933TIP3    H263215   4.209   2.016  14.589 -0.5126  2.3867  1.1911
13934TIP3   OH263216   3.993   1.051  14.598  0.1119 -0.2230  0.1551
13934TIP3    H163217   4.030   1.077  14.682  1.6928 -0.9814 -0.2893
13934TIP3    H263218   4.054   1.087  14.533 -0.7813 -0.1394 -0.6448
13935TIP3   OH263219   0.476   0.297  16.937 -0.5752 -0.2763 -0.3255
13935TIP3    H163220   0.485   0.384  16.899 -0.0518 -0.7405 -1.3114
13935TIP3    H263221   0.483   0.310  17.031  0.2511  0.6617 -0.5076
13936TIP3   OH263222   6.673   2.450  12.131 -0.4385  0.8346  0.3511
13936TIP3    H163223   6.768   2.457  12.136 -0.4970  2.8534 -0.8900
13936TIP3    H263224   6.649   2.495  12.050 -2.2211 -2.1180 -0.8321
13937TIP3   OH263225   0.500   6.591  12.336 -0.0363 -0.0546 -0.0498
13937TIP3    H163226   0.475   6.605  12.427 -1.0434  0.0206 -0.3262
13937TIP3    H263227   0.589   6.558  12.340 -0.4072 -0.9658  1.0202
13938TIP3   OH263228   1.141   0.262  12.771 -0.4346  0.0817 -0.1850
13938TIP3    H163229   1.108   0.187  12.819 -1.2451 -0.6720 -1.8647
13938TIP3    H263230   1.232   0.239  12.751 -0.1016  0.3897  0.9356
13939TIP3   OH263231   4.268   1.002  11.532  0.3103 -0.3033  0.5219
13939TIP3    H163232   4.256   0.908  11.546 -0.6740 -0.1975  0.4424
13939TIP3    H263233   4.348   1.024  11.579 -0.0151 -0.9864  1.4088
13940TIP3   OH263234   4.074   6.713  15.300 -0.5384  0.5530  0.0858
13940TIP3    H163235   4.066   6.648  15.230 -0.3334  0.5671  0.0467
13940TIP3    H263236   4.110   6.664  15.374 -1.9386  0.2688  0.5778
13941TIP3   OH263237   4.465   0.567   0.204  0.0220  0.0938 -0.1566
13941TIP3    H163238   4.471   0.598   0.295  1.0792 -0.0356 -0.1686
13941TIP3    H263239   4.409   0.489   0.209  0.5833 -0.2856  0.4979
13942TIP3   OH263240   0.608   2.263   6.571 -0.0442  0.1463 -0.6271
13942TIP3    H163241   0.560   2.216   6.640 -0.7627  0.5431 -0.8577
13942TIP3    H263242   0.682   2.206   6.551 -1.1709 -1.1318 -1.2355
13943TIP3   OH263243   0.399   0.702   0.190  0.1334 -0.3847 -0.2836
13943TIP3    H163244   0.466   0.641   0.159  0.7299  0.4655 -0.6894
13943TIP3    H263245   0.384   0.761   0.116 -0.3032  0.0742  0.1685
13944TIP3   OH263246   2.067   1.001   3.710 -0.0634 -0.0355 -0.0286
13944TIP3    H163247   2.143   0.957   3.745  1.1465  1.8384 -0.2159
13944TIP3    H263248   1.993   0.963   3.757  1.0712 -1.0894  0.9349
13945TIP3   OH263249   2.462   6.246   2.895  0.1004  0.3355 -0.2390
13945TIP3    H163250   2.370   6.270   2.884  0.1656  0.5744 -0.2481
13945TIP3    H263251   2.510   6.310   2.843  0.3136  0.5830  0.2631
13946TIP3   OH263252   5.179   0.189  13.953 -0.1895  0.4084  0.4732
13946TIP3    H163253   5.246   0.237  13.905 -0.6367  1.2091  0.6357
13946TIP3    H263254   5.109   0.175  13.890 -0.3580  0.5838  0.6227
13947TIP3   OH263255   6.555   5.826  11.705 -0.4509  0.0159 -0.3346
13947TIP3    H163256   6.594   5.855  11.787  1.0049 -0.6017 -0.7750
13947TIP3    H263257   6.588   5.887  11.640 -0.6396 -0.1998 -0.6344
13948TIP3   OH263258   1.122   4.637  17.231 -0.3344  0.3911 -0.1387
13948TIP3    H163259   1.078   4.583  17.165  2.0061  1.9017 -3.0632
13948TIP3    H263260   1.117   4.726  17.197  2.1586  1.0259  0.9985
13949TIP3   OH263261   0.670   6.227   5.704 -0.4704  0.2498  0.5446
13949TIP3    H163262   0.726   6.202   5.777  1.3676  1.4298 -0.4419
13949TIP3    H263263   0.729   6.237   5.630 -1.9514  1.6738 -0.4866
13950TIP3   OH263264   3.474   3.297   4.503  0.1240  0.5731  0.9134
13950TIP3    H163265   3.469   3.236   4.429  2.0689  2.1820 -0.5900
13950TIP3    H263266   3.520   3.247   4.570  0.5519 -0.0687  0.1608
13951TIP3   OH263267   5.281   0.205  14.894  0.0650 -0.3260 -0.5622
13951TIP3    H163268   5.229   0.261  14.952 -0.6652 -0.8389 -0.7092
13951TIP3    H263269   5.274   0.246  14.808  0.3105 -0.1207 -0.4820
13952TIP3   OH263270   4.665   0.651  15.620 -0.4494 -0.2518  0.2035
13952TIP3    H163271   4.758   0.668  15.632 -0.1637 -1.1755 -0.6403
13952TIP3    H263272   4.653   0.561  15.650 -0.6323 -0.9270 -1.8198
13953TIP3   OH263273   3.422   0.646   1.128 -0.2984  0.6982 -0.7625
13953TIP3    H163274   3.497   0.587   1.123 -0.9339 -0.3116  1.3950
13953TIP3    H263275   3.460   0.734   1.130  0.7900  0.2147 -0.2229
13954TIP3   OH263276   2.934   0.941   3.285 -0.7069  0.5085 -0.7105
13954TIP3    H163277   3.002   0.879   3.256 -0.3230  1.3676 -1.6608
13954TIP3    H263278   2.940   0.939   3.381 -0.8681 -1.1120 -0.7176
13955TIP3   OH263279   3.619   1.608   3.781  0.2945  0.9221 -0.1001
13955TIP3    H163280   3.526   1.584   3.783  0.0180  1.9364 -0.4409
13955TIP3    H263281   3.663   1.538   3.830 -0.5025 -0.1954 -0.9628
13956TIP3   OH263282   6.570   3.341  14.793  0.2279 -0.3382 -0.0612
13956TIP3    H163283   6.580   3.249  14.771  0.5602 -0.0208 -1.2676
13956TIP3    H263284   6.641   3.385  14.747 -0.7772  0.6993 -0.6692
13957TIP3   OH263285   2.719   1.159   4.370  0.6587  0.3399 -0.6005
13957TIP3    H163286   2.683   1.155   4.459  0.6975  1.3021 -0.5289
13957TIP3    H263287   2.710   1.251   4.345 -1.1166 -0.2702 -2.3366
13958TIP3   OH263288   2.211   0.214  14.882 -0.5483  0.3092  0.2953
13958TIP3    H163289   2.232   0.125  14.854  1.5423  0.4648  1.2415
13958TIP3    H263290   2.191   0.205  14.976 -1.4403  0.6808  0.1466
13959TIP3   OH263291   3.262   6.487  13.499  0.0601  0.6511 -0.3134
13959TIP3    H163292   3.264   6.527  13.586 -2.8318 -0.9782  0.5721
13959TIP3    H263293   3.307   6.404  13.510 -0.0145  0.5935 -0.4422
13960TIP3   OH263294   5.935   3.973   5.569 -0.3050 -0.4032  0.8710
13960TIP3    H163295   5.974   3.902   5.518 -0.2511  0.2851 -0.0482
13960TIP3    H263296   5.842   3.972   5.543  0.0866  1.1593 -0.6674
13961TIP3   OH263297   2.438   6.107   2.592  0.3005 -0.0272 -0.5205
13961TIP3    H163298   2.443   6.023   2.638  0.5196  0.3895  0.2342
13961TIP3    H263299   2.506   6.102   2.525  0.2561 -0.4870 -0.5356
13962TIP3   OH263300   5.731   3.795  16.872  0.5916  0.0033  0.3475
13962TIP3    H163301   5.695   3.809  16.784  1.3950 -1.0506 -0.1539
13962TIP3    H263302   5.657   3.814  16.931  0.2754  1.5307 -0.5007
13963TIP3   OH263303   3.079   2.718  17.011 -0.4693  0.4110  0.0637
13963TIP3    H163304   3.001   2.663  17.001  0.6312 -1.2257  0.2744
13963TIP3    H263305   3.139   2.665  17.063  0.5878  1.8651  0.3411
13964TIP3   OH263306   5.424   6.503   0.871  0.1114  0.0148 -0.8620
13964TIP3    H163307   5.421   6.540   0.783  0.8904  0.4076 -0.7288
13964TIP3    H263308   5.420   6.580   0.929 -0.3003 -0.2372 -0.5515
13965TIP3   OH263309   4.135   3.237  16.818 -0.1131  1.1571  0.0461
13965TIP3    H163310   4.196   3.293  16.865  1.1113  0.3770 -0.6021
13965TIP3    H263311   4.178   3.151  16.814 -2.0691  0.0824  1.2523
13966TIP3   OH263312   0.183   0.146  11.025 -0.4514  0.6540  0.2762
13966TIP3    H163313   0.204   0.200  10.949 -0.7902 -0.3251 -0.5296
13966TIP3    H263314   0.147   0.065  10.988 -2.4676  0.9390  1.5136
13967TIP3   OH263315   2.389   5.686   1.608  0.2209 -0.6576  0.0575
13967TIP3    H163316   2.316   5.661   1.665  0.5534  0.5780  1.0231
13967TIP3    H263317   2.349   5.742   1.542  0.5907  1.5083  1.6380
13968TIP3   OH263318   3.140   6.269   5.742  0.1401  0.2987 -0.2953
13968TIP3    H163319   3.064   6.215   5.765  0.7463  0.0995  1.3766
13968TIP3    H263320   3.153   6.325   5.819  2.2619 -0.3636 -0.1254
13969TIP3   OH263321   3.718   5.677   3.989 -0.1468 -0.1614  0.0092
13969TIP3    H163322   3.714   5.753   3.932 -2.6955 -0.2401  0.0476
13969TIP3    H263323   3.812   5.658   3.996  0.4300  2.0120 -1.2329
13970TIP3   OH263324   0.331   3.674   2.997  0.4106  0.3527 -0.1442
13970TIP3    H163325   0.301   3.736   2.931  0.3713  2.6932  2.0172
13970TIP3    H263326   0.419   3.649   2.968 -0.1635  0.1978 -1.8289
13971TIP3   OH263327   0.231   1.566   2.547 -0.6089 -0.8497  0.0304
13971TIP3    H163328   0.172   1.600   2.615  0.8811 -0.4043  1.1181
13971TIP3    H263329   0.263   1.483   2.582  1.2032  0.0231  0.4912
13972TIP3   OH263330   4.291   3.956  12.466 -0.1786 -0.7164  0.0717
13972TIP3    H163331   4.249   3.927  12.384  0.0128 -1.2028  0.1447
13972TIP3    H263332   4.218   3.981  12.522 -0.4975 -3.2184  0.8360
13973TIP3   OH263333   5.883   1.290   0.730 -0.6630  0.6319 -0.1964
13973TIP3    H163334   5.876   1.245   0.646 -0.4314 -0.2411  0.2484
13973TIP3    H263335   5.942   1.236   0.782 -0.9008  1.0958  0.5757
13974TIP3   OH263336   3.710   5.890  12.245  0.4038 -0.0340  0.1876
13974TIP3    H163337   3.641   5.899  12.310  0.9771  3.1335  0.4186
13974TIP3    H263338   3.781   5.846  12.292 -0.6817 -1.5216  0.4913
13975TIP3   OH263339   2.292   0.374  15.497 -0.2085  0.6061  0.1186
13975TIP3    H163340   2.348   0.343  15.568 -0.6596  0.3199  0.3512
13975TIP3    H263341   2.204   0.346  15.521 -0.5912  1.8449  0.2166
13976TIP3   OH263342   0.428   0.282   4.349  0.0513 -0.1167 -0.2329
13976TIP3    H163343   0.410   0.231   4.428  1.2237  1.3986  1.0471
13976TIP3    H263344   0.487   0.352   4.379  0.7845  0.2667 -2.5156
13977TIP3   OH263345   6.049   3.321  12.927 -0.5208 -0.1660  0.3620
13977TIP3    H163346   6.140   3.293  12.913 -0.2058  0.6940  0.6593
13977TIP3    H263347   6.040   3.327  13.022 -0.8451 -0.1066  0.3275
13978TIP3   OH263348   4.021   4.775  13.103 -0.5811 -0.3988  0.0447
13978TIP3    H163349   4.060   4.710  13.045  1.2188 -1.3950  2.3108
13978TIP3    H263350   4.073   4.771  13.183 -2.0693  2.0011  1.2015
13979TIP3   OH263351   5.642   2.026  16.357  0.2951  0.4975 -0.1952
13979TIP3    H163352   5.551   2.045  16.380  0.0139 -0.3593 -0.5947
13979TIP3    H263353   5.689   2.032  16.440 -0.1428  0.8274  0.0341
13980TIP3   OH263354   0.799   3.935  13.307 -0.6973  0.3946  0.1693
13980TIP3    H163355   0.707   3.916  13.290 -0.4130 -1.5783  0.6604
13980TIP3    H263356   0.847   3.871  13.255  0.4049  1.3265  0.0098
13981TIP3   OH263357   4.460   3.207   4.931 -0.2862  0.3020 -0.1476
13981TIP3    H163358   4.488   3.234   4.843 -0.9818  1.0856 -0.1330
13981TIP3    H263359   4.519   3.135   4.953  1.6955  1.8897 -0.1223
13982TIP3   OH263360   6.101   6.513   2.953 -0.5154  0.4361 -0.3202
13982TIP3    H163361   6.130   6.546   2.867 -0.3812  0.4401 -0.2735
13982TIP3    H263362   6.182   6.484   2.996 -0.3655  1.9756  0.4668
13983TIP3   OH263363   3.951   1.884  13.417  0.3982 -0.1608 -0.0302
13983TIP3    H163364   3.906   1.863  13.335  1.1794 -2.1486  0.0092
13983TIP3    H263365   4.044   1.883  13.394  0.4945  3.5313 -0.0313
13984TIP3   OH263366   1.961   3.160  15.227  0.3263 -0.6243  0.2815
13984TIP3    H163367   1.937   3.171  15.135  1.5237  0.4349  0.0822
13984TIP3    H263368   1.898   3.215  15.275 -0.0337 -0.8498  0.0721
13985TIP3   OH263369   3.731   4.984   2.411  0.5809 -0.1562  0.2849
13985TIP3    H163370   3.718   4.931   2.490 -0.6840 -1.3168 -0.6855
13985TIP3    H263371   3.794   5.051   2.438  0.5294 -0.8177  2.1493
13986TIP3   OH263372   0.306   4.892  16.110  0.0970  0.2706 -0.3628
13986TIP3    H163373   0.260   4.884  16.027  0.1062  1.3673 -0.4784
13986TIP3    H263374   0.254   4.954  16.161  0.7811  0.5823 -0.0342
13987TIP3   OH263375   3.219   0.201  14.235 -0.6458  0.3118  0.0841
13987TIP3    H163376   3.193   0.252  14.159  2.0240  0.1891 -0.9677
13987TIP3    H263377   3.308   0.231  14.255 -0.8062 -0.6112  2.3317
13988TIP3   OH263378   0.140   3.644  17.057 -0.3887 -0.2135  0.0827
13988TIP3    H163379   0.099   3.627  16.973 -1.0994 -0.6643  0.5225
13988TIP3    H263380   0.175   3.733  17.049 -1.9408  0.3837 -0.0932
13989TIP3   OH263381   3.876   4.208   2.178  0.2892  0.1567 -0.2599
13989TIP3    H163382   3.913   4.272   2.239 -1.4768  0.7441  0.2356
13989TIP3    H263383   3.929   4.215   2.099  1.2399  0.9489  0.4484
13990TIP3   OH263384   4.459   0.332  13.591  0.5616 -0.2020 -0.1758
13990TIP3    H163385   4.422   0.246  13.573  0.7774 -0.7158  1.7795
13990TIP3    H263386   4.548   0.328  13.558  0.7584 -0.9226  0.4522
13991TIP3   OH263387   6.398   1.587  16.332  0.3845  0.4213 -0.4120
13991TIP3    H163388   6.363   1.651  16.270 -0.4195 -0.5540 -0.9623
13991TIP3    H263389   6.462   1.537  16.281 -2.0152 -1.9780 -1.1336
13992TIP3   OH263390   3.077   3.716   5.917 -0.3394 -0.1044 -0.5637
13992TIP3    H163391   3.015   3.782   5.886 -0.8070  0.0004  0.5446
13992TIP3    H263392   3.022   3.649   5.959  0.3101  0.1839  0.7888
13993TIP3   OH263393   5.578   0.410  14.981 -0.2072  0.3526  0.3785
13993TIP3    H163394   5.533   0.474  14.925 -2.0161 -0.8204  0.4433
13993TIP3    H263395   5.565   0.327  14.936  0.7924 -0.1973  1.0987
13994TIP3   OH263396   5.022   5.903   0.813 -0.4383  0.1772  0.2658
13994TIP3    H163397   5.055   5.983   0.853  2.1431 -0.8671  0.3417
13994TIP3    H263398   5.036   5.915   0.719  3.8918 -1.7511  0.5274
13995TIP3   OH263399   1.277   6.373  16.959 -0.1302  0.0881 -0.3505
13995TIP3    H163400   1.297   6.377  16.866 -2.7394  1.6184 -0.8937
13995TIP3    H263401   1.184   6.394  16.965  0.7644  3.7157  2.8992
13996TIP3   OH263402   6.452   0.829  13.525 -0.4690 -0.4384  0.0509
13996TIP3    H163403   6.535   0.780  13.525 -0.2235 -0.0487  1.9911
13996TIP3    H263404   6.401   0.791  13.596  0.0544  2.6243  2.1646
13997TIP3   OH263405   1.287   4.797  12.982  0.1951 -0.0233  0.2655
13997TIP3    H163406   1.340   4.772  13.058  1.2108 -0.4750 -0.5789
13997TIP3    H263407   1.201   4.760  12.999  0.3918 -0.0298  1.2487
13998TIP3   OH263408   4.245   3.514  11.780 -0.3313  0.0991 -0.2693
13998TIP3    H163409   4.178   3.446  11.769  0.1172 -0.2993 -0.5792
13998TIP3    H263410   4.319   3.482  11.728  0.1853  0.4215  0.2760
13999TIP3   OH263411   0.838   1.606   1.337  0.2663  0.2624  0.1568
13999TIP3    H163412   0.840   1.663   1.260  0.9531  1.7014  1.2322
13999TIP3    H263413   0.802   1.524   1.304 -0.9673  1.3820 -1.3574
14000TIP3   OH263414   0.073   2.497   0.097 -0.4874  0.2089 -0.1655
14000TIP3    H163415   0.096   2.534   0.182  2.3880 -1.2107 -0.2604
14000TIP3    H263416   0.030   2.413   0.118 -0.8631  0.4138 -0.1055
14001TIP3   OH263417   1.333   2.466   3.078  0.1147  0.5413 -0.1934
14001TIP3    H163418   1.256   2.455   3.022  0.2294  1.7769 -0.6234
14001TIP3    H263419   1.305   2.438   3.165 -0.7089  0.6362 -0.4254
14002TIP3   OH263420   0.368   6.751   2.193 -0.0341  0.0338  0.2437
14002TIP3    H163421   0.323   6.815   2.136  0.9226  0.6220  0.1442
14002TIP3    H263422   0.327   6.763   2.278  0.6229  1.2687  0.3869
14003TIP3   OH263423   2.043   2.269   4.568 -0.1230 -0.4688  0.4678
14003TIP3    H163424   2.008   2.321   4.640  0.5390  1.5880 -0.6680
14003TIP3    H263425   1.973   2.268   4.503  0.5938  0.7257 -0.3472
14004TIP3   OH263426   5.275   4.189  14.751  0.3305  0.2155  0.5825
14004TIP3    H163427   5.366   4.177  14.777  0.7167  1.0956 -0.3252
14004TIP3    H263428   5.266   4.283  14.736 -0.9951  0.2653  1.6076
14005TIP3   OH263429   5.177   1.922  13.254 -0.3809 -0.2987 -0.0395
14005TIP3    H163430   5.164   1.829  13.240 -1.4809 -0.4673  1.8419
14005TIP3    H263431   5.090   1.955  13.278 -0.0297  1.2357 -0.8070
14006TIP3   OH263432   3.585   2.234  12.517 -1.1247  0.1941 -0.5820
14006TIP3    H163433   3.562   2.181  12.593 -3.8955  0.4385 -1.2156
14006TIP3    H263434   3.510   2.291  12.503  1.0695  3.1264 -0.9793
14007TIP3   OH263435   5.260   4.823  14.084 -0.7332  0.5567  0.3438
14007TIP3    H163436   5.225   4.768  14.154 -1.0668 -0.0715 -0.3112
14007TIP3    H263437   5.220   4.789  14.004  1.6312 -0.4454 -0.4770
14008TIP3   OH263438   2.955   5.491  13.946  0.6481  0.2692  0.4543
14008TIP3    H163439   2.973   5.397  13.941 -0.5508  0.0889 -0.8922
14008TIP3    H263440   2.940   5.508  14.039  0.2093 -1.0139  0.6276
14009TIP3   OH263441   3.310   4.393  13.674 -0.4171  0.0148  0.1094
14009TIP3    H163442   3.396   4.361  13.701 -0.1553  0.5515 -0.0855
14009TIP3    H263443   3.310   4.486  13.697 -1.6022 -0.3595  1.7440
14010TIP3   OH263444   5.162   3.187   4.168  1.1093 -0.1513 -0.3359
14010TIP3    H163445   5.183   3.281   4.166 -0.0165  0.1102 -0.4729
14010TIP3    H263446   5.131   3.172   4.257  1.0632 -0.3422 -0.3856
14011TIP3   OH263447   4.134   6.679  14.963  0.5559  0.2653 -0.1033
14011TIP3    H163448   4.218   6.654  14.925  1.0756 -0.2219  1.3278
14011TIP3    H263449   4.148   6.768  14.996  0.7080 -0.0299  0.6566
14012TIP3   OH263450   5.465   3.397   0.601  0.2276  0.1441 -0.3871
14012TIP3    H163451   5.456   3.395   0.696 -1.3021 -0.0984 -0.5245
14012TIP3    H263452   5.493   3.487   0.582 -1.6549  0.8649  0.1312
14013TIP3   OH263453   3.384   4.799  11.362 -0.2677 -0.0736  0.0938
14013TIP3    H163454   3.362   4.882  11.321  3.2661  0.1191 -1.6129
14013TIP3    H263455   3.342   4.733  11.306  1.3859  0.3657 -1.7188
14014TIP3   OH263456   3.407   1.068   1.554 -0.6622 -0.0765 -0.1473
14014TIP3    H163457   3.400   0.975   1.533  0.6086 -0.1484 -0.2900
14014TIP3    H263458   3.339   1.110   1.502 -0.3918 -0.7748 -1.0728
14015TIP3   OH263459   1.881   1.231  15.595 -0.4341  0.2759 -0.3708
14015TIP3    H163460   1.975   1.240  15.583 -0.6135  1.6236 -0.9374
14015TIP3    H263461   1.843   1.255  15.510 -1.2622 -0.6174 -0.2587
14016TIP3   OH263462   5.374   5.642   3.723 -0.3041  0.0894 -0.3794
14016TIP3    H163463   5.464   5.618   3.745 -0.6205 -0.1562  0.6668
14016TIP3    H263464   5.380   5.734   3.696 -0.3080  1.2802  3.4406
14017TIP3   OH263465   5.397   4.889   1.498  0.4043 -0.5739 -0.2839
14017TIP3    H163466   5.433   4.931   1.576 -1.1055  2.3143 -1.0428
14017TIP3    H263467   5.468   4.834   1.465  1.9562  0.2138  1.6354
14018TIP3   OH263468   0.081   3.660  13.998  0.6479  0.4267 -0.1631
14018TIP3    H163469   0.082   3.587  13.935  0.2239 -0.0624  0.3897
14018TIP3    H263470   0.111   3.735  13.947 -1.2594  0.3946 -1.3882
14019TIP3   OH263471   0.997   0.717   2.980  0.8299  0.5692  0.0324
14019TIP3    H163472   1.064   0.714   2.912  0.8755 -0.1145  0.0956
14019TIP3    H263473   0.995   0.808   3.009  0.0305  1.1074 -1.6461
14020TIP3   OH263474   1.930   5.792   4.822 -0.3351 -0.2676 -0.2479
14020TIP3    H163475   1.934   5.820   4.914 -3.2998  0.3099 -0.2482
14020TIP3    H263476   1.964   5.867   4.773 -3.7960  1.6746  0.0885
14021TIP3   OH263477   0.373   0.589   3.157 -0.0576  0.4430 -0.4656
14021TIP3    H163478   0.386   0.511   3.211 -1.7559  0.6868  0.3050
14021TIP3    H263479   0.459   0.630   3.154  1.2172 -2.1565 -1.9997
14022TIP3   OH263480   6.176   5.913   4.451  0.1950 -0.1705 -0.3325
14022TIP3    H163481   6.186   5.926   4.546 -0.7615  0.7807 -0.3453
14022TIP3    H263482   6.237   5.843   4.430  1.6304  0.7288  0.7126
14023TIP3   OH263483   0.920   0.416  12.699  0.3271  0.0535 -0.0562
14023TIP3    H163484   0.944   0.433  12.608 -3.9703  1.7818 -1.0129
14023TIP3    H263485   0.969   0.338  12.723  0.2620 -1.4671 -4.4506
14024TIP3   OH263486   1.309   2.980  12.870 -0.6260 -0.1229 -0.8611
14024TIP3    H163487   1.220   2.946  12.882 -0.9783  1.0834  0.0392
14024TIP3    H263488   1.306   3.067  12.908  0.7495  0.2236 -1.5343
14025TIP3   OH263489   0.405   4.680  10.242 -0.3323 -0.5109  0.6085
14025TIP3    H163490   0.474   4.650  10.300 -0.0789 -2.5027 -0.6458
14025TIP3    H263491   0.334   4.616  10.254 -0.5695 -0.5106 -0.6926
14026TIP3   OH263492   6.303   6.724  12.342  0.6427  0.5342  0.7284
14026TIP3    H163493   6.397   6.723  12.327  0.5797 -1.9826  0.3653
14026TIP3    H263494   6.292   6.688  12.430 -0.0750 -0.8736  0.0795
14027TIP3   OH263495   5.014   3.963   5.560  0.5330  0.4823  0.1305
14027TIP3    H163496   5.000   3.936   5.651  1.1490  2.2540  0.7714
14027TIP3    H263497   4.947   4.030   5.544  1.4241  1.2980 -0.2177
14028TIP3   OH263498   5.584   0.226  14.304 -0.3836 -0.1055 -0.0427
14028TIP3    H163499   5.556   0.139  14.335 -0.1432  0.5251  2.0500
14028TIP3    H263500   5.517   0.285  14.339  1.1540  0.9023  1.2211
14029TIP3   OH263501   4.836   0.550   1.583  0.1191  0.4212  0.4304
14029TIP3    H163502   4.912   0.494   1.598 -1.2683 -1.4300  0.8947
14029TIP3    H263503   4.817   0.588   1.669 -1.0075 -1.1919  0.9320
14030TIP3   OH263504   2.907   2.147  15.540 -0.1219  0.0994  0.3231
14030TIP3    H163505   2.962   2.070  15.524  1.9712  1.7917 -0.7505
14030TIP3    H263506   2.949   2.191  15.614 -0.0181  1.4052 -0.5070
14031TIP3   OH263507   6.073   5.537  15.276  0.8608 -0.1210 -0.2741
14031TIP3    H163508   6.030   5.459  15.241  0.0859  0.7274 -1.2429
14031TIP3    H263509   6.146   5.553  15.215 -0.5528  1.4184 -1.6052
14032TIP3   OH263510   3.020   4.398  14.199 -0.0560  0.3248  0.0790
14032TIP3    H163511   3.115   4.405  14.187 -0.4310  1.7268 -2.5593
14032TIP3    H263512   2.994   4.326  14.141 -0.6137  0.0423  0.6812
14033TIP3   OH263513   0.703   5.773  10.582  0.2923  0.5582  0.0693
14033TIP3    H163514   0.726   5.756  10.491  1.6537  0.6923  0.3705
14033TIP3    H263515   0.784   5.756  10.630 -0.0002  1.9025  1.0714
14034TIP3   OH263516   1.161   0.481   0.854  0.5221 -0.5690  0.2570
14034TIP3    H163517   1.100   0.412   0.881  0.3789  0.0600  1.5711
14034TIP3    H263518   1.104   0.550   0.820  0.6159 -0.7619 -0.2894
14035TIP3   OH263519   4.805   3.137  17.042  0.3215 -0.1574 -0.2816
14035TIP3    H163520   4.866   3.082  16.993  0.4483 -0.4825  0.2388
14035TIP3    H263521   4.806   3.102  17.130  1.0609  1.2159  0.2708
14036TIP3   OH263522   6.292   4.438   3.290  0.3015 -0.0746 -0.3865
14036TIP3    H163523   6.214   4.442   3.346  1.4136  0.1507  1.1937
14036TIP3    H263524   6.281   4.359   3.239  0.1485 -1.3410  1.5382
14037TIP3   OH263525   3.738   1.806  10.807  0.4845  0.3505 -0.4849
14037TIP3    H163526   3.703   1.894  10.792  1.3338  0.6238 -0.9151
14037TIP3    H263527   3.821   1.821  10.852  1.0784 -0.1888 -1.3807
14038TIP3   OH263528   4.912   1.125  15.465  0.1353 -0.0636 -0.2406
14038TIP3    H163529   4.886   1.217  15.466  0.2734  0.0071 -1.7059
14038TIP3    H263530   4.836   1.079  15.429  1.1057 -0.1450 -2.2777
14039TIP3   OH263531   6.070   2.144   6.274  0.6907 -0.2057  0.3164
14039TIP3    H163532   6.018   2.066   6.256  0.9614 -0.5751  1.1169
14039TIP3    H263533   6.014   2.198   6.329 -0.1844  0.9770 -1.7217
14040TIP3   OH263534   1.820   5.749   5.180  0.4083  0.5281  0.3305
14040TIP3    H163535   1.804   5.673   5.125 -1.3768  0.7119  0.5875
14040TIP3    H263536   1.806   5.718   5.269 -1.9379  1.5489  0.3353
14041TIP3   OH263537   1.445   6.024   4.567 -0.5450 -0.5466 -0.0586
14041TIP3    H163538   1.501   6.073   4.507 -1.4595  0.1123 -0.3745
14041TIP3    H263539   1.377   5.986   4.511 -1.2992 -0.0743  0.5286
14042TIP3   OH263540   3.358   0.690   3.790 -0.3976 -0.3055 -0.1627
14042TIP3    H163541   3.415   0.732   3.854 -0.1889  0.4105 -0.8169
14042TIP3    H263542   3.270   0.717   3.813 -0.4770 -1.3617  0.8122
14043TIP3   OH263543   6.002   3.870  16.946  0.1520  0.1637  0.2345
14043TIP3    H163544   6.064   3.814  16.898 -1.8313 -0.6295 -1.4463
14043TIP3    H263545   5.916   3.832  16.928 -0.9842  2.1514  1.3138
14044TIP3   OH263546   5.803   3.563  13.456  0.7997 -0.0232  0.5238
14044TIP3    H163547   5.711   3.535  13.450  1.0399 -0.6967 -0.0229
14044TIP3    H263548   5.820   3.568  13.550  0.5572 -1.0744  0.6284
14045TIP3   OH263549   3.025   5.585   0.208  0.5248  0.2011  0.5107
14045TIP3    H163550   3.002   5.637   0.131  1.0875  0.9498  0.8416
14045TIP3    H263551   3.105   5.625   0.241  0.9213 -0.8373  0.8189
14046TIP3   OH263552   0.678   3.839  16.184 -0.1490 -0.5390 -0.3523
14046TIP3    H163553   0.724   3.911  16.140  0.1551 -0.2701  0.3903
14046TIP3    H263554   0.745   3.796  16.237 -0.7377 -0.1259  0.7595
14047TIP3   OH263555   4.033   1.171   4.036  0.2059 -0.1140 -0.3846
14047TIP3    H163556   3.984   1.109   4.090  0.1419  0.5598  0.3510
14047TIP3    H263557   4.087   1.117   3.979  0.4937 -0.8384  0.5682
14048TIP3   OH263558   4.802   2.869  14.033  0.6176  0.3173 -0.2286
14048TIP3    H163559   4.733   2.932  14.053  1.1081  0.2977  1.6433
14048TIP3    H263560   4.867   2.882  14.102  0.6728 -2.3022  0.2712
14049TIP3   OH263561   3.697   4.183   6.160  0.2246  0.3825 -0.1004
14049TIP3    H163562   3.734   4.219   6.079  1.0225  0.8018  0.4460
14049TIP3    H263563   3.612   4.226   6.168  0.9939  1.8578  0.3295
14050TIP3   OH263564   5.963   5.533   3.876  0.3346 -0.3222 -0.0903
14050TIP3    H163565   5.992   5.619   3.848  0.6988 -0.2645  0.4592
14050TIP3    H263566   6.018   5.471   3.828 -0.8748 -0.2869 -1.5575
14051TIP3   OH263567   6.533   4.086  15.690  0.6545  0.2418 -0.1775
14051TIP3    H163568   6.450   4.124  15.717 -1.0147 -2.5826 -1.1600
14051TIP3    H263569   6.585   4.082  15.771 -0.2333  1.8309  0.4847
14052TIP3   OH263570   1.053   1.543  11.732 -1.1144 -0.3109 -0.3598
14052TIP3    H163571   0.985   1.610  11.724 -1.2783 -0.3925  0.2850
14052TIP3    H263572   1.018   1.468  11.683 -1.7732 -0.5643  0.4884
14053TIP3   OH263573   2.477   2.124  16.903 -0.1212 -0.0122  0.6596
14053TIP3    H163574   2.558   2.074  16.913 -0.0480  0.1152  0.6967
14053TIP3    H263575   2.485   2.196  16.965  0.9740  1.6384 -1.3647
14054TIP3   OH263576   3.737   2.697   4.124  0.6726 -0.8302  0.6051
14054TIP3    H163577   3.737   2.778   4.072 -0.3279 -0.0977  1.6989
14054TIP3    H263578   3.678   2.638   4.077 -1.8046  0.5267  1.8893
14055TIP3   OH263579   6.652   4.652   0.482  0.3400 -0.8333  0.3787
14055TIP3    H163580   6.662   4.558   0.492  1.9097 -0.6814  0.4111
14055TIP3    H263581   6.723   4.690   0.533  0.2815  0.3395 -0.3654
14056TIP3   OH263582   2.678   5.900  16.604  0.5220 -0.6040  0.1818
14056TIP3    H163583   2.707   5.880  16.515  1.1852  0.3109  0.1880
14056TIP3    H263584   2.734   5.846  16.661  1.4968  0.3551  0.1420
14057TIP3   OH263585   1.689   0.128  14.621 -0.7338  0.4936  0.1321
14057TIP3    H163586   1.676   0.034  14.637 -0.2538  0.2397 -0.9525
14057TIP3    H263587   1.784   0.138  14.611 -0.7854  1.0988  0.2146
14058TIP3   OH263588   6.342   3.567   0.090  0.0266  0.3469 -0.3651
14058TIP3    H163589   6.394   3.515   0.028 -0.3968 -0.5556  0.0213
14058TIP3    H263590   6.252   3.536   0.077 -0.3992  1.7659 -0.8990
14059TIP3   OH263591   2.117   5.498   3.702  0.4784 -0.1095  0.1869
14059TIP3    H163592   2.212   5.504   3.711  0.4987  0.1683 -0.2226
14059TIP3    H263593   2.084   5.557   3.770  0.5852 -0.5920  0.6676
14060TIP3   OH263594   4.761   3.949  16.389  0.0635  0.6931 -0.0263
14060TIP3    H163595   4.853   3.937  16.362  0.5575  2.4412  0.8268
14060TIP3    H263596   4.727   3.860  16.395  2.1785 -0.0989  1.1770
14061TIP3   OH263597   2.874   1.935  11.783  0.0802 -0.4349 -0.1024
14061TIP3    H163598   2.913   1.980  11.708 -1.0809 -0.3079 -0.6381
14061TIP3    H263599   2.936   1.950  11.855  1.4265 -0.9466 -1.1427
14062TIP3   OH263600   5.489   1.742  16.411  0.1527  0.6008  0.3737
14062TIP3    H163601   5.486   1.780  16.499 -1.2926  0.7962  0.2628
14062TIP3    H263602   5.581   1.744  16.387  0.7510 -0.7286  2.4288
14063TIP3   OH263603   4.125   2.828   4.045 -0.0153  0.2099 -0.0248
14063TIP3    H163604   4.196   2.885   4.017  0.2281  0.1158  0.4041
14063TIP3    H263605   4.100   2.860   4.131  1.5594 -1.6566  1.1664
14064TIP3   OH263606   5.390   1.485  16.450  0.4220 -0.1293 -0.4862
14064TIP3    H163607   5.438   1.566  16.428 -1.7763  1.7812  1.4918
14064TIP3    H263608   5.299   1.506  16.432 -0.2441 -2.0199  0.6061
14065TIP3   OH263609   5.051   4.307  15.330  0.0568 -0.2679 -0.0956
14065TIP3    H163610   4.986   4.236  15.333 -0.0496 -0.1267  1.4223
14065TIP3    H263611   5.067   4.328  15.422  0.7614  1.0749 -0.5171
14066TIP3   OH263612   0.549   5.609  16.920  0.3373 -0.0456 -0.5445
14066TIP3    H163613   0.557   5.704  16.913  0.2437 -0.0018 -0.1034
14066TIP3    H263614   0.493   5.595  16.997 -0.3367 -0.4410 -1.1049
14067TIP3   OH263615   2.329   5.055  10.586 -0.5555  0.2900  0.7947
14067TIP3    H163616   2.328   4.961  10.600 -0.2359  0.1440 -0.1549
14067TIP3    H263617   2.243   5.085  10.614 -1.4130 -0.5735 -0.8893
14068TIP3   OH263618   4.014   5.807   0.574 -0.7239 -0.0481  0.2259
14068TIP3    H163619   3.940   5.747   0.582 -0.9256  0.3852  1.7427
14068TIP3    H263620   4.064   5.774   0.499 -1.9027 -0.9270 -0.1894
14069TIP3   OH263621   4.071   6.155  11.027 -0.0666  0.2301  0.0636
14069TIP3    H163622   4.021   6.223  10.982 -0.6781  0.1351  0.5985
14069TIP3    H263623   4.162   6.186  11.025 -0.0650  0.1850 -1.3242
14070TIP3   OH263624   1.484   5.564  16.470 -0.0749 -0.6238  0.5080
14070TIP3    H163625   1.548   5.632  16.451  0.3644 -1.4952 -1.1896
14070TIP3    H263626   1.515   5.522  16.550  2.0122 -1.6675 -0.8176
14071TIP3   OH263627   2.301   6.373  12.318 -0.1768 -0.3135  0.0490
14071TIP3    H163628   2.328   6.297  12.370  1.3136  0.0017 -0.2330
14071TIP3    H263629   2.271   6.336  12.235  0.4927 -0.6069 -0.0676
14072TIP3   OH263630   4.709   5.099  12.594  0.2496  0.1541 -0.1715
14072TIP3    H163631   4.749   5.184  12.579  1.5492 -0.2024  1.1358
14072TIP3    H263632   4.744   5.070  12.678  0.7085 -2.1487 -1.0974
14073TIP3   OH263633   4.205   1.822  12.628  0.0308  0.3656 -0.2082
14073TIP3    H163634   4.170   1.737  12.602 -0.7370  1.1700 -1.8613
14073TIP3    H263635   4.183   1.829  12.721 -1.7710 -0.3274 -0.5702
14074TIP3   OH263636   1.818   5.281   3.394  0.8997  0.4071  0.0691
14074TIP3    H163637   1.858   5.358   3.434 -0.2331 -0.0474  2.1269
14074TIP3    H263638   1.732   5.312   3.364  0.1914 -0.2162  1.4656
14075TIP3   OH263639   6.064   6.404   4.389  0.4533  0.4004 -0.4675
14075TIP3    H163640   6.060   6.333   4.326  0.2956  0.4726 -0.5400
14075TIP3    H263641   6.083   6.482   4.337  0.6513  0.4074 -0.3855
14076TIP3   OH263642   2.844   2.758   5.917 -0.1466  0.2599 -0.0332
14076TIP3    H163643   2.764   2.806   5.939  0.7542  1.6031  0.3877
14076TIP3    H263644   2.867   2.711   5.998 -1.9457 -2.2900 -0.9277
14077TIP3   OH263645   5.790   5.454  11.951  0.5603  0.0724  0.1139
14077TIP3    H163646   5.764   5.455  12.043 -0.5052  1.7546 -0.1676
14077TIP3    H263647   5.709   5.475  11.903  1.4833  0.9773 -1.0887
14078TIP3   OH263648   5.397   2.497   1.931 -0.3836  0.7363  0.2018
14078TIP3    H163649   5.415   2.451   1.849 -2.1398 -0.0370  0.2251
14078TIP3    H263650   5.472   2.478   1.986  0.3837  0.4985 -0.9036
14079TIP3   OH263651   2.310   1.792  13.174 -0.6079 -0.0566  0.0800
14079TIP3    H163652   2.368   1.813  13.247  1.0579  1.3475 -1.6094
14079TIP3    H263653   2.256   1.871  13.163 -0.7962 -0.2324 -0.2542
14080TIP3   OH263654   2.980   0.254   1.353  0.3985 -0.1161  0.3294
14080TIP3    H163655   3.050   0.314   1.380 -1.3540  1.4858  1.4694
14080TIP3    H263656   3.024   0.171   1.338  2.2360  0.1976  3.4390
14081TIP3   OH263657   0.993   4.777  12.248  0.4769 -0.1761  0.8827
14081TIP3    H163658   1.011   4.870  12.235 -0.6265  0.1375  1.5003
14081TIP3    H263659   1.078   4.734  12.238  0.5694  0.5953 -2.0667
14082TIP3   OH263660   5.615   5.911   2.528 -0.0672  0.6583 -1.1873
14082TIP3    H163661   5.688   5.851   2.543  0.1860  0.6638 -2.3802
14082TIP3    H263662   5.549   5.884   2.591 -0.8034 -2.2859 -3.1075
14083TIP3   OH263663   1.945   3.822  12.387 -0.5899  0.0685  0.1722
14083TIP3    H163664   1.942   3.765  12.464 -1.7275 -3.1286 -2.1531
14083TIP3    H263665   1.859   3.864  12.384 -0.5987  0.0789  0.5527
14084TIP3   OH263666   5.667   3.395  12.842 -0.3665  0.6286  0.0337
14084TIP3    H163667   5.640   3.369  12.754  0.3418 -1.9392  0.5295
14084TIP3    H263668   5.700   3.484  12.831 -1.7897  0.9578 -1.9847
14085TIP3   OH263669   3.743   5.377   3.488 -0.1470 -0.0294 -0.0928
14085TIP3    H163670   3.794   5.412   3.416 -1.1840 -0.2697 -0.9654
14085TIP3    H263671   3.680   5.447   3.509  0.8336  0.4548  1.2836
14086TIP3   OH263672   3.942   6.661  14.186  0.3629  0.2615 -0.3063
14086TIP3    H163673   3.856   6.704  14.192  1.3345  2.0446  1.1978
14086TIP3    H263674   3.957   6.627  14.274  0.1655 -2.1509 -1.1712
14087TIP3   OH263675   0.673   6.158   0.148  0.2724 -0.5793 -0.2050
14087TIP3    H163676   0.754   6.156   0.199  1.0611 -1.8761 -1.4678
14087TIP3    H263677   0.605   6.178   0.212  1.4966 -0.2359  1.0063
14088TIP3   OH263678   1.319   0.470  13.964 -0.4558  0.2151 -0.3671
14088TIP3    H163679   1.334   0.476  14.059 -3.1263  0.3471  0.0854
14088TIP3    H263680   1.377   0.536  13.926  0.3282  0.4556  1.2285
14089TIP3   OH263681   2.508   2.358  11.094  0.0650 -0.3686  0.5404
14089TIP3    H163682   2.469   2.282  11.138 -0.2323 -0.6614 -0.2244
14089TIP3    H263683   2.602   2.345  11.104 -0.0116  0.7559  3.1057
14090TIP3   OH263684   6.318   6.259  13.392 -0.5360  0.3253  0.1864
14090TIP3    H163685   6.233   6.299  13.410 -0.7977 -0.1705  0.0851
14090TIP3    H263686   6.330   6.270  13.297 -0.7048 -0.0156  0.1240
14091TIP3   OH263687   4.245   6.086  15.726  0.6270  1.0379 -0.3034
14091TIP3    H163688   4.326   6.040  15.705 -0.2034 -0.3567 -0.5500
14091TIP3    H263689   4.230   6.066  15.818  0.1934  0.7153 -0.4448
14092TIP3   OH263690   6.602   0.551   2.452 -0.3098  0.0761 -0.2737
14092TIP3    H163691   6.686   0.574   2.412 -0.9372  0.0494 -1.6442
14092TIP3    H263692   6.544   0.534   2.377 -1.8436  1.2020  0.6482
14093TIP3   OH263693   3.703   0.506  13.939  0.4737 -0.4803 -0.3315
14093TIP3    H163694   3.620   0.525  13.983  1.3586  2.3203  0.1989
14093TIP3    H263695   3.680   0.442  13.872 -1.6380 -1.6647  1.4815
14094TIP3   OH263696   2.914   4.664   5.194  0.4737  0.0359 -0.3500
14094TIP3    H163697   2.869   4.630   5.117  0.3633 -0.6062 -0.0015
14094TIP3    H263698   2.999   4.620   5.193  0.7301  0.5324 -0.4767
14095TIP3   OH263699   6.400   0.005   0.226  0.4494 -0.1874  0.1126
14095TIP3    H163700   6.336  -0.032   0.287 -0.1867  0.3371 -0.2255
14095TIP3    H263701   6.480   0.014   0.277 -0.3680  1.2395  1.1702
14096TIP3   OH263702   6.292   0.778  12.102 -0.0682  0.1152 -0.2236
14096TIP3    H163703   6.282   0.721  12.178 -1.8500 -1.0521 -1.3063
14096TIP3    H263704   6.369   0.744  12.056 -0.9865 -1.2975 -0.7431
14097TIP3   OH263705   4.001   1.295  17.001  0.6534 -0.3868  0.1837
14097TIP3    H163706   3.937   1.353  17.043  2.5423  2.2862 -0.4779
14097TIP3    H263707   4.052   1.260  17.074 -1.4906 -2.5533  0.7190
14098TIP3   OH263708   5.402   0.971  16.646 -0.3003 -0.0358 -0.1035
14098TIP3    H163709   5.421   1.065  16.639 -0.6410  0.0025 -0.5290
14098TIP3    H263710   5.454   0.942  16.721  0.6582  0.2712 -0.6285
14099TIP3   OH263711   2.210   0.208   0.573  0.0905 -0.1534 -0.2986
14099TIP3    H163712   2.141   0.187   0.510  1.0432  1.3387 -1.8593
14099TIP3    H263713   2.200   0.302   0.590  0.3948 -0.3630  1.1031
14100TIP3   OH263714   1.718   4.268   4.341  0.5724 -0.4708  0.7001
14100TIP3    H163715   1.680   4.181   4.330  2.7815 -1.3603 -0.2002
14100TIP3    H263716   1.785   4.274   4.272  1.0911  1.5681  1.3418
14101TIP3   OH263717   4.956   6.492  13.270 -0.6784 -0.1037 -0.2606
14101TIP3    H163718   4.994   6.422  13.217 -0.4241  1.5223 -2.3251
14101TIP3    H263719   4.864   6.496  13.242 -0.8579 -0.0685  0.3354
14102TIP3   OH263720   2.780   2.277  11.159  0.7571  0.5651 -0.0767
14102TIP3    H163721   2.749   2.204  11.105 -2.2074  2.3796 -0.9460
14102TIP3    H263722   2.753   2.254  11.248  1.6208 -0.2958 -0.0192
14103TIP3   OH263723   2.064   1.222  10.621 -0.2672  0.0927  0.0194
14103TIP3    H163724   2.023   1.141  10.590 -0.9355 -0.1427  1.4780
14103TIP3    H263725   2.121   1.194  10.693 -0.1886  0.8767  0.2636
14104TIP3   OH263726   0.063   0.335  12.220  0.0082 -0.7137  0.6563
14104TIP3    H163727   0.156   0.317  12.224  0.7511  2.7868  0.8597
14104TIP3    H263728   0.043   0.341  12.127  0.3786  0.3605  0.6445
14105TIP3   OH263729   2.801   2.590  16.759 -0.1616 -0.2413  1.0402
14105TIP3    H163730   2.877   2.532  16.760 -0.7308 -0.9958  0.9645
14105TIP3    H263731   2.759   2.573  16.675  0.0181  0.7501  0.7455
14106TIP3   OH263732   4.156   3.388   2.233 -0.0829  0.3843  1.3950
14106TIP3    H163733   4.114   3.319   2.181  0.6085  0.1572  1.1421
14106TIP3    H263734   4.091   3.459   2.236 -1.2542 -0.6907  2.5692
14107TIP3   OH263735   5.469   2.834   3.068  0.0447  0.3622  0.8989
14107TIP3    H163736   5.516   2.918   3.074  0.6447  0.2730 -1.6730
14107TIP3    H263737   5.536   2.768   3.088  0.3767  0.3721 -0.1245
14108TIP3   OH263738   5.008   0.538   4.328 -0.6886  0.4896 -0.6315
14108TIP3    H163739   5.088   0.502   4.289 -0.9302  0.8533 -1.4579
14108TIP3    H263740   5.022   0.530   4.423 -0.5373 -1.3419 -0.7975
14109TIP3   OH263741   4.938   2.771   2.464 -0.5662 -0.9237  0.5299
14109TIP3    H163742   4.945   2.742   2.555 -1.1836  1.6894  1.4468
14109TIP3    H263743   4.858   2.730   2.432 -1.0589 -0.7835  1.5698
14110TIP3   OH263744   4.027   3.490  13.029  0.0989  0.1758 -0.2712
14110TIP3    H163745   4.006   3.500  13.122  1.5533  1.0143 -0.0145
14110TIP3    H263746   4.011   3.398  13.010  1.3952 -0.3829  1.2344
14111TIP3   OH263747   5.462   0.620  14.837  0.0482 -0.5112  0.1447
14111TIP3    H163748   5.441   0.677  14.911  3.1503 -0.7107  1.2348
14111TIP3    H263749   5.520   0.672  14.782 -0.1663 -1.2768 -0.8174
14112TIP3   OH263750   2.462   0.898  12.673  0.9384  0.2536  0.3705
14112TIP3    H163751   2.550   0.872  12.700  1.2489 -0.2381 -1.0684
14112TIP3    H263752   2.407   0.879  12.749  1.4888 -2.7622  0.1000
14113TIP3   OH263753   2.635   0.495   6.327  0.1242  0.0766  0.2807
14113TIP3    H163754   2.670   0.584   6.322  0.0208  0.1098  0.1612
14113TIP3    H263755   2.654   0.456   6.242 -1.7673  0.6960 -0.4372
14114TIP3   OH263756   2.122   2.137   3.733  0.1538 -0.5480  0.0269
14114TIP3    H163757   2.121   2.226   3.767  1.3060  0.0584 -1.4527
14114TIP3    H263758   2.043   2.096   3.769 -1.3918  1.6410 -0.7729
14115TIP3   OH263759   0.803   5.358   1.579  0.1863 -0.1719 -0.1981
14115TIP3    H163760   0.881   5.403   1.612  1.6921 -1.3596 -2.0333
14115TIP3    H263761   0.754   5.335   1.658  1.1367  1.5290  0.9394
14116TIP3   OH263762   6.579   4.853  15.106 -0.0312  0.2228  0.2708
14116TIP3    H163763   6.495   4.893  15.127 -0.3027  0.1228 -0.6164
14116TIP3    H263764   6.602   4.889  15.020  1.0763  0.6477  0.7332
14117TIP3   OH263765   1.720   5.978   3.863 -0.0292 -0.1064  0.5216
14117TIP3    H163766   1.685   5.903   3.910  0.4688 -0.0332  1.0096
14117TIP3    H263767   1.777   6.022   3.926 -1.8183  1.7912  0.8838
14118TIP3   OH263768   3.527   6.677  13.026 -0.0326  0.9116 -0.6051
14118TIP3    H163769   3.587   6.683  13.101  0.4769  0.0660 -0.9380
14118TIP3    H263770   3.445   6.713  13.059  0.5919  1.9110 -0.0798
14119TIP3   OH263771   3.246   1.389   3.632 -0.2138  0.3271 -0.0587
14119TIP3    H163772   3.269   1.363   3.543 -0.9113  1.4902 -0.6038
14119TIP3    H263773   3.281   1.320   3.688  0.8669 -0.0488 -1.1804
14120TIP3   OH263774   3.204   4.176   2.600 -0.5057  0.3557  0.1029
14120TIP3    H163775   3.208   4.089   2.561 -2.0538 -0.2169  1.1748
14120TIP3    H263776   3.111   4.191   2.617  0.0795  0.6382  3.3684
14121TIP3   OH263777   5.796   3.549   5.970  0.6682  0.7127 -0.4064
14121TIP3    H163778   5.715   3.520   6.012  1.0295  0.9618  0.4579
14121TIP3    H263779   5.866   3.515   6.026  1.1552  0.8093 -0.9559
14122TIP3   OH263780   2.210   2.022  14.381  0.0092 -0.0082 -0.6168
14122TIP3    H163781   2.217   2.075  14.460  2.0590  0.2910 -0.9735
14122TIP3    H263782   2.171   1.940  14.410 -0.4540  0.5945  0.4698
14123TIP3   OH263783   5.623   6.521  17.053  0.2337 -0.0394  0.3135
14123TIP3    H163784   5.631   6.563  17.138 -0.3355 -0.3136  0.5051
14123TIP3    H263785   5.685   6.448  17.056  1.2412  0.7959 -0.0324
14124TIP3   OH263786   1.783   0.260  15.428 -0.1130 -0.5106 -0.1773
14124TIP3    H163787   1.829   0.334  15.387  1.0137 -0.6712  0.7634
14124TIP3    H263788   1.729   0.301  15.496 -0.9675 -0.3731 -0.9305
14125TIP3   OH263789   5.433   4.163  11.144 -0.1673 -0.3466 -0.3634
14125TIP3    H163790   5.355   4.108  11.136  0.3032 -0.7430 -2.4741
14125TIP3    H263791   5.424   4.228  11.075  1.7895 -0.9413 -1.2237
14126TIP3   OH263792   2.702   5.363   4.223  0.7128  0.0745  0.0131
14126TIP3    H163793   2.703   5.458   4.225 -0.1837  0.0799  1.2927
14126TIP3    H263794   2.744   5.339   4.140  0.6899  1.5750 -0.4340
14127TIP3   OH263795   6.242   6.208  14.596  0.3164  0.4255  0.1062
14127TIP3    H163796   6.243   6.205  14.500  0.9465  1.5163  0.0775
14127TIP3    H263797   6.207   6.122  14.622  1.2187 -0.3042 -1.0665
14128TIP3   OH263798   5.157   6.157   4.258  0.0619 -0.4993  0.4090
14128TIP3    H163799   5.197   6.076   4.290  2.3657 -0.3203 -1.7833
14128TIP3    H263800   5.081   6.129   4.208  0.4894 -1.2989  0.2003
14129TIP3   OH263801   0.149   6.692  10.596 -0.1420  0.1082  0.5803
14129TIP3    H163802   0.129   6.734  10.512 -1.5684  0.7811  1.2310
14129TIP3    H263803   0.162   6.765  10.657  3.3470 -0.3311  0.4421
14130TIP3   OH263804   3.870   1.009  10.915 -0.4302  0.1614 -0.4419
14130TIP3    H163805   3.942   1.058  10.876  0.4037 -0.2384  0.5526
14130TIP3    H263806   3.864   1.043  11.005 -0.8162 -0.5003 -0.2106
14131TIP3   OH263807   1.717   4.747  10.697  0.1558  0.2379  0.4997
14131TIP3    H163808   1.628   4.715  10.677 -0.2664  2.0555 -0.6211
14131TIP3    H263809   1.770   4.667  10.702 -1.5007 -0.8674  1.0526
14132TIP3   OH263810   5.563   1.899  17.192  0.4961  0.5274  0.2600
14132TIP3    H163811   5.531   1.909  17.282  0.6642  1.7270  0.1846
14132TIP3    H263812   5.643   1.846  17.201 -0.8370 -1.5014  0.5615
14133TIP3   OH263813   0.072   6.287  15.639 -0.5171 -0.2516 -0.4292
14133TIP3    H163814   0.111   6.217  15.585 -0.6598 -0.1531 -0.6607
14133TIP3    H263815  -0.019   6.259  15.652 -0.6660  0.0552 -0.8008
14134TIP3   OH263816   6.518   4.268   0.758 -0.1901 -0.5966 -0.2498
14134TIP3    H163817   6.431   4.245   0.726 -0.8067  1.3141  0.0125
14134TIP3    H263818   6.543   4.194   0.814 -1.4635 -1.3533 -0.6604
14135TIP3   OH263819   1.242   5.269  10.520 -0.4231  0.2279  0.0460
14135TIP3    H163820   1.186   5.276  10.598 -0.2679  2.8665 -0.0571
14135TIP3    H263821   1.317   5.217  10.549 -0.9339  0.1810  1.3138
14136TIP3   OH263822   3.207   4.747  14.488  0.4361  0.3775  0.2033
14136TIP3    H163823   3.118   4.714  14.502  0.2162  0.4504 -0.9479
14136TIP3    H263824   3.196   4.841  14.476  0.5657  0.2775 -0.7543
14137TIP3   OH263825   5.906   3.646  16.372  0.1872 -0.2180 -0.1205
14137TIP3    H163826   5.895   3.575  16.436  0.8751  1.3616  1.8165
14137TIP3    H263827   5.992   3.630  16.333  0.4917 -0.2828  0.5560
14138TIP3   OH263828   5.387   3.943   0.225 -0.4840 -0.1923 -0.2717
14138TIP3    H163829   5.481   3.950   0.209 -0.6896 -0.5549 -1.7400
14138TIP3    H263830   5.350   4.024   0.189 -0.8489 -0.5603 -0.7386
14139TIP3   OH263831   2.861   6.329  14.227  0.3229  0.3284  0.7215
14139TIP3    H163832   2.886   6.319  14.319 -1.7117 -1.5090  1.1434
14139TIP3    H263833   2.867   6.240  14.191 -2.4394  0.3195  0.1003
14140TIP3   OH263834   3.890   3.002  16.803  0.1693 -0.3559  0.0423
14140TIP3    H163835   3.972   3.025  16.759  1.2886 -1.9117  1.2424
14140TIP3    H263836   3.877   3.071  16.868  0.7916 -0.3426  0.1572
14141TIP3   OH263837   2.356   5.616   1.984  0.8107  0.0760 -0.2117
14141TIP3    H163838   2.352   5.521   1.997 -0.9228  0.3350  1.3397
14141TIP3    H263839   2.450   5.635   1.978  1.3125 -1.4402  1.9936
14142TIP3   OH263840   3.697   1.278  17.113 -0.1291  0.4246  0.3882
14142TIP3    H163841   3.648   1.203  17.080 -3.5235  1.8904  1.8560
14142TIP3    H263842   3.732   1.248  17.197  2.6429 -1.0384 -1.2370
14143TIP3   OH263843   4.317   0.787  15.243  0.9989 -0.1223  0.2546
14143TIP3    H163844   4.405   0.815  15.217  0.9978 -0.3920 -0.0425
14143TIP3    H263845   4.279   0.751  15.163  0.2630  0.9024  0.1327
14144TIP3   OH263846   3.160   2.879  14.189 -0.0660 -0.3092 -0.7427
14144TIP3    H163847   3.185   2.967  14.218 -0.9539 -0.7900  1.5221
14144TIP3    H263848   3.097   2.894  14.118 -0.1787  0.8912 -0.3950
14145TIP3   OH263849   4.615   6.097  13.683 -0.2096  0.2919  0.5686
14145TIP3    H163850   4.574   6.063  13.763  0.0526  0.3838  0.7424
14145TIP3    H263851   4.673   6.027  13.655 -1.7900 -0.5613 -0.6698
14146TIP3   OH263852   3.754   6.763  11.672 -0.3092 -0.7656 -0.0478
14146TIP3    H163853   3.777   6.856  11.663  1.5384 -1.2503 -0.5248
14146TIP3    H263854   3.725   6.754  11.763 -0.8697  0.3514 -0.1060
14147TIP3   OH263855   3.647   0.755   1.827 -0.2158 -0.2579 -0.5301
14147TIP3    H163856   3.687   0.828   1.779 -0.4323  0.6002  0.5654
14147TIP3    H263857   3.661   0.679   1.771  3.0440 -0.0061 -0.1698
14148TIP3   OH263858   3.712   6.143  14.055  0.2765  0.4741  0.0620
14148TIP3    H163859   3.808   6.146  14.048  0.3038 -1.9045 -1.3696
14148TIP3    H263860   3.694   6.064  14.107 -0.9055  0.6370 -0.0797
14149TIP3   OH263861   3.684   0.128  15.036  0.3167  0.2111 -0.2295
14149TIP3    H163862   3.678   0.062  15.105  1.0448 -0.6842 -1.0081
14149TIP3    H263863   3.742   0.195  15.073  0.9520 -0.4110 -0.0726
14150TIP3   OH263864   5.486   3.683   3.152 -0.2638 -0.1422  0.0044
14150TIP3    H163865   5.517   3.673   3.242 -1.1817 -0.7032  0.2748
14150TIP3    H263866   5.546   3.631   3.099 -0.3550 -0.6953  0.4392
14151TIP3   OH263867   1.116   2.429  15.847  0.0569 -0.4897 -0.1697
14151TIP3    H163868   1.079   2.511  15.879 -2.7322 -0.9659 -1.9314
14151TIP3    H263869   1.210   2.445  15.842 -0.2381  1.9632  1.2834
14152TIP3   OH263870   4.238   5.938   2.128  0.7815  0.3700  0.8775
14152TIP3    H163871   4.306   5.888   2.173  1.1926  0.5601  0.4744
14152TIP3    H263872   4.269   6.029   2.132  0.4182  0.4913  0.9312
14153TIP3   OH263873   2.333   0.311   3.288  0.5175  0.0072  0.1060
14153TIP3    H163874   2.411   0.357   3.320 -0.5847  0.6457  1.9341
14153TIP3    H263875   2.301   0.367   3.217  0.4442  0.9355  0.8541
14154TIP3   OH263876   1.978   4.883   2.835 -0.2283 -0.0797  0.2673
14154TIP3    H163877   2.031   4.932   2.772 -0.3933 -0.3552 -0.0809
14154TIP3    H263878   1.902   4.853   2.786 -0.5831  0.0896  0.7063
14155TIP3   OH263879   3.961   0.757  13.522 -0.2030 -1.0239 -0.1939
14155TIP3    H163880   3.952   0.666  13.552  0.6683 -1.5408 -1.4403
14155TIP3    H263881   4.054   0.777  13.533 -0.3795 -0.3073  0.0067
14156TIP3   OH263882   0.127   5.275   2.419  0.1387 -0.0891  0.0018
14156TIP3    H163883   0.075   5.263   2.340 -1.1011  1.5920  0.5329
14156TIP3    H263884   0.113   5.194   2.469 -0.1436 -0.5917 -0.8807
14157TIP3   OH263885   4.194   2.381  14.592  0.3874 -0.9544  0.2555
14157TIP3    H163886   4.148   2.326  14.529  0.1157 -0.0951 -0.3097
14157TIP3    H263887   4.197   2.329  14.672 -1.7232 -0.9752  0.3475
14158TIP3   OH263888   6.106   0.933  16.670  0.4245 -0.6644 -0.5039
14158TIP3    H163889   6.118   0.866  16.738 -0.5310  0.2805  0.6248
14158TIP3    H263890   6.134   1.015  16.712  0.4676 -0.1768 -1.4779
14159TIP3   OH263891   0.998   1.196  13.420  0.3036 -0.4597  0.6066
14159TIP3    H163892   0.977   1.282  13.457 -1.0393 -0.4981 -0.0275
14159TIP3    H263893   1.094   1.196  13.411  0.1915  1.6568 -0.9698
14160TIP3   OH263894   0.962   3.466   5.696  0.1909  0.4214 -0.4471
14160TIP3    H163895   0.998   3.414   5.768  0.4563  0.8270 -0.2859
14160TIP3    H263896   0.918   3.539   5.739 -1.9062 -0.7286 -0.5866
14161TIP3   OH263897   3.510   0.861  11.779  0.0613  0.7023 -0.3573
14161TIP3    H163898   3.589   0.850  11.726 -0.4326 -0.9893 -0.8032
14161TIP3    H263899   3.473   0.944  11.750  1.3612  1.2211 -0.5627
14162TIP3   OH263900   0.756   4.752  11.045  0.2124  0.3823 -0.3617
14162TIP3    H163901   0.741   4.717  10.958 -0.6021  1.2469 -0.5860
14162TIP3    H263902   0.688   4.712  11.099  0.5508  0.0500 -0.1832
14163TIP3   OH263903   6.659   2.646   1.880  0.0135  0.5688 -0.6998
14163TIP3    H163904   6.679   2.738   1.900  0.4919  0.8499 -2.3462
14163TIP3    H263905   6.577   2.650   1.831 -0.3202  0.0479 -0.1845
14164TIP3   OH263906   6.422   1.585  12.315 -0.3816  0.0547  0.3232
14164TIP3    H163907   6.515   1.609  12.316 -0.8251  1.9546 -1.6861
14164TIP3    H263908   6.422   1.494  12.283  0.9946 -1.4059  4.1015
14165TIP3   OH263909   4.442   3.892  11.160  0.2711  0.0867  0.3254
14165TIP3    H163910   4.532   3.911  11.135  0.5144  0.0171  1.1653
14165TIP3    H263911   4.408   3.974  11.194 -0.2892  0.3693 -0.8695
14166TIP3   OH263912   5.567   3.555  11.957  0.0977 -0.0457  0.1608
14166TIP3    H163913   5.614   3.632  11.924 -0.2121 -0.2401 -0.7364
14166TIP3    H263914   5.562   3.496  11.883 -2.2926  0.3243 -0.0040
14167TIP3   OH263915   3.308   0.675  16.693  0.1176 -0.1091  0.9088
14167TIP3    H163916   3.272   0.763  16.700 -0.5279 -0.2182 -0.7182
14167TIP3    H263917   3.297   0.652  16.601  0.5299 -1.7848  1.2553
14168TIP3   OH263918   3.806   3.814   4.263 -0.3413  0.2491  0.4830
14168TIP3    H163919   3.738   3.791   4.326  0.2151 -2.1089  0.2671
14168TIP3    H263920   3.769   3.887   4.213 -1.8513  0.3662  1.7456
14169TIP3   OH263921   4.766   6.749   1.261 -0.4492  0.7040 -0.4595
14169TIP3    H163922   4.767   6.827   1.205 -0.2646  1.1066  0.0971
14169TIP3    H263923   4.816   6.775   1.339 -0.6487  0.1303 -0.1386
14170TIP3   OH263924   4.770   1.448   5.863  0.2100 -0.5744  0.4527
14170TIP3    H163925   4.831   1.404   5.922 -0.9620 -3.4985 -0.4305
14170TIP3    H263926   4.742   1.380   5.802 -1.7675  1.3997 -0.9275
14171TIP3   OH263927   0.755   1.140   0.569  0.1597  0.3121  0.2480
14171TIP3    H163928   0.813   1.081   0.520 -0.9779  1.8656 -3.1586
14171TIP3    H263929   0.778   1.227   0.537  0.2463  1.5370  3.5225
14172TIP3   OH263930   0.233   1.642  13.575 -0.0005 -0.3291 -0.5121
14172TIP3    H163931   0.316   1.605  13.605 -0.0412 -0.9650 -1.1884
14172TIP3    H263932   0.255   1.733  13.552  0.3442 -0.2747  0.0179
14173TIP3   OH263933   2.018   3.586  11.984  0.0384 -0.4155 -0.1151
14173TIP3    H163934   2.012   3.574  12.079  0.4386 -0.6117 -0.1126
14173TIP3    H263935   1.968   3.666  11.967  0.1097 -0.2812  0.2849
14174TIP3   OH263936   1.730   4.501   1.794  0.1611 -0.5176  0.4720
14174TIP3    H163937   1.716   4.408   1.780 -1.2247 -0.2176 -0.1912
14174TIP3    H263938   1.722   4.541   1.708 -0.6073  0.3781  0.9461
14175TIP3   OH263939   2.757   5.537  17.215  0.2503  0.1256  0.3282
14175TIP3    H163940   2.783   5.628  17.196  0.7740 -0.1084 -0.0839
14175TIP3    H263941   2.751   5.495  17.129  0.4967 -0.3649  0.5507
14176TIP3   OH263942   3.830   4.097   0.262 -0.0934 -0.6393  0.0754
14176TIP3    H163943   3.877   4.135   0.188 -2.8514 -1.0554 -1.9420
14176TIP3    H263944   3.811   4.008   0.235 -0.1445 -1.1543  1.7702
14177TIP3   OH263945   2.073   2.669  13.972  0.3201 -0.1517 -0.4994
14177TIP3    H163946   2.152   2.673  14.026 -0.0252  1.1130 -0.0560
14177TIP3    H263947   2.105   2.681  13.882  0.6260  0.4734 -0.3115
14178TIP3   OH263948   4.521   0.486   4.973  0.4373  0.2102 -0.0501
14178TIP3    H163949   4.545   0.457   4.885 -0.3381 -0.0153 -0.1948
14178TIP3    H263950   4.434   0.524   4.962  0.2786  0.0480  0.6437
14179TIP3   OH263951   3.323   5.238   5.829 -0.1209  0.3556 -0.5400
14179TIP3    H163952   3.338   5.238   5.734  0.0543 -0.4513 -0.5155
14179TIP3    H263953   3.298   5.328   5.849 -1.9385  0.1238 -1.6451
14180TIP3   OH263954   4.653   2.696   2.426  0.0439  0.5438  0.5570
14180TIP3    H163955   4.607   2.694   2.510  0.9534  0.2017  1.0573
14180TIP3    H263956   4.689   2.608   2.416 -1.8233 -0.0479 -1.1983
14181TIP3   OH263957   3.877   4.834  16.144 -0.2000  0.7586  0.3272
14181TIP3    H163958   3.905   4.805  16.230 -1.0575 -1.5546 -0.1106
14181TIP3    H263959   3.909   4.766  16.084  0.7666  2.5457 -1.2330
14182TIP3   OH263960   4.450   4.348   0.586 -0.0058  0.2038 -0.0639
14182TIP3    H163961   4.363   4.323   0.618 -0.7112  1.5443 -0.8793
14182TIP3    H263962   4.454   4.313   0.497  0.5254 -0.3713  0.1868
14183TIP3   OH263963   0.008   5.727   2.357 -0.0488 -0.2904 -0.4515
14183TIP3    H163964  -0.000   5.770   2.272  0.9177  3.5298  1.2620
14183TIP3    H263965  -0.032   5.788   2.419  3.1593 -0.8872  2.3911
14184TIP3   OH263966   4.410   1.528  14.367 -0.5103 -0.0842 -0.0859
14184TIP3    H163967   4.362   1.483  14.297 -0.0567 -1.1368  0.2793
14184TIP3    H263968   4.474   1.582  14.320 -2.0205  1.3568 -0.5820
14185TIP3   OH263969   3.468   6.035   1.368  0.5795 -0.1724 -0.3823
14185TIP3    H163970   3.442   5.944   1.381  2.1029 -0.5118  0.3951
14185TIP3    H263971   3.385   6.082   1.358 -0.2480 -1.5312 -0.0790
14186TIP3   OH263972   5.509   0.438  14.604 -0.1874 -0.7096  0.2873
14186TIP3    H163973   5.566   0.374  14.647 -0.0899 -0.8065  0.0140
14186TIP3    H263974   5.530   0.521  14.648  1.3921 -0.4289 -0.9559
14187TIP3   OH263975   4.918   0.913  16.413 -0.6546 -0.6779 -0.5821
14187TIP3    H163976   5.013   0.915  16.428 -0.7707 -3.1062  0.7232
14187TIP3    H263977   4.891   1.004  16.423  1.2564 -0.2351  0.9581
14188TIP3   OH263978   1.116   1.606  12.442 -0.3002  0.5436 -0.2466
14188TIP3    H163979   1.021   1.605  12.458 -1.0845  1.5990 -4.2427
14188TIP3    H263980   1.130   1.684  12.388  2.5830 -0.4770 -1.0705
14189TIP3   OH263981   5.505   4.965   3.400  0.7875  0.2738  0.1726
14189TIP3    H163982   5.481   4.947   3.309 -0.8355 -2.2710  1.0615
14189TIP3    H263983   5.423   4.957   3.449  2.1287 -1.2507  2.2573
14190TIP3   OH263984   6.535   4.702  15.866  0.1391 -0.1990  0.0468
14190TIP3    H163985   6.536   4.796  15.886 -0.3718 -0.0321 -0.7038
14190TIP3    H263986   6.446   4.685  15.835 -0.9096 -1.6955  3.7124
14191TIP3   OH263987   5.095   6.393   4.790  0.0723  0.1718  0.0928
14191TIP3    H163988   5.138   6.478   4.779  1.3787 -0.6705 -1.4861
14191TIP3    H263989   5.076   6.363   4.701 -1.0095 -0.8877  0.6551
14192TIP3   OH263990   4.881   0.328   5.276 -0.0765  0.5910 -1.0547
14192TIP3    H163991   4.787   0.335   5.260 -0.2418  1.8435  0.3860
14192TIP3    H263992   4.910   0.419   5.289  1.3381  0.2209 -1.5718
14193TIP3   OH263993   5.470   4.813  15.429  0.2886 -0.2774  0.1931
14193TIP3    H163994   5.400   4.778  15.484  0.6595 -0.4579  0.5566
14193TIP3    H263995   5.463   4.908  15.438  0.4678 -0.3123  0.7040
14194TIP3   OH263996   1.285   5.695   1.179  0.2317 -0.6193 -0.3180
14194TIP3    H163997   1.360   5.658   1.133  0.7585  0.2903 -0.2094
14194TIP3    H263998   1.213   5.692   1.115  0.3695 -1.4496 -0.4339
14195TIP3   OH263999   0.704   0.482  14.203  0.4246  0.4450 -0.4199
14195TIP3    H164000   0.646   0.498  14.129  1.1707  1.4837 -0.8004
14195TIP3    H264001   0.756   0.562  14.210  0.7063  0.1582  0.9154
14196TIP3   OH264002   2.261   5.977   4.535  0.3013 -0.0242 -0.0916
14196TIP3    H164003   2.275   5.965   4.442 -0.2470  1.1312 -0.3429
14196TIP3    H264004   2.348   5.977   4.574  0.4962 -1.0929 -0.5182
14197TIP3   OH264005   2.128   5.123  15.444  0.5359  0.1290  0.2584
14197TIP3    H164006   2.055   5.163  15.397  2.5111 -0.6250 -3.6413
14197TIP3    H264007   2.087   5.083  15.521 -2.4165  3.8281  0.7758
14198TIP3   OH264008   0.119   5.702  13.362 -0.5081  0.2263 -0.4809
14198TIP3    H164009   0.029   5.733  13.369 -0.7971 -1.0811  2.1789
14198TIP3    H264010   0.166   5.753  13.428  0.6224  0.5147 -1.4864
14199TIP3   OH264011   2.252   4.816   1.295 -0.4373  0.6665 -0.9388
14199TIP3    H164012   2.313   4.780   1.359 -2.4337  0.2984  0.7922
14199TIP3    H264013   2.248   4.750   1.226 -0.0420  0.0129 -0.3408
14200TIP3   OH264014   3.768   3.924   1.397  0.2923  0.1740 -0.9616
14200TIP3    H164015   3.716   4.003   1.379  1.1570  0.2036 -3.4603
14200TIP3    H264016   3.797   3.935   1.488  0.1711  2.5930 -1.1809
14201TIP3   OH264017   3.140   2.585  11.130  0.0247  0.4410  0.1307
14201TIP3    H164018   3.147   2.656  11.194 -1.7289  2.2584 -1.5896
14201TIP3    H264019   3.145   2.630  11.045 -1.4689 -1.4418 -0.9908
14202TIP3   OH264020   1.021   0.128  13.648 -0.1058  0.3858  0.1634
14202TIP3    H164021   1.044   0.148  13.739  0.8670 -0.5008  0.1253
14202TIP3    H264022   0.992   0.212  13.611 -2.9460  0.2822  1.9740
14203TIP3   OH264023   2.554   6.590   4.457  0.0735  0.0147  0.3485
14203TIP3    H164024   2.624   6.654   4.445  0.8913 -1.1175 -1.1487
14203TIP3    H264025   2.571   6.553   4.544  2.2244 -1.2628 -0.5749
14204TIP3   OH264026   6.045   1.712  13.833 -0.0041 -0.2204  0.3360
14204TIP3    H164027   6.103   1.676  13.900 -1.2057 -1.5183  0.7012
14204TIP3    H264028   6.104   1.746  13.766  1.1990 -1.7672  0.5659
14205TIP3   OH264029   5.203   2.732  13.763  0.4232 -0.1088  0.1840
14205TIP3    H164030   5.206   2.672  13.689  0.0616  0.0500  0.0411
14205TIP3    H264031   5.122   2.711  13.808 -0.3827  1.1856 -0.6392
14206TIP3   OH264032   2.472   2.922   2.746 -0.1654  1.0686 -0.2188
14206TIP3    H164033   2.446   2.830   2.742 -1.2457  1.3725 -0.4266
14206TIP3    H264034   2.545   2.924   2.808 -0.2383  0.0927 -0.1011
14207TIP3   OH264035   5.711   4.703  12.730 -0.6309 -0.1185 -0.4899
14207TIP3    H164036   5.754   4.773  12.681 -1.1580  0.0378 -0.7364
14207TIP3    H264037   5.674   4.646  12.662 -0.9508 -0.1624 -0.2807
14208TIP3   OH264038   4.230   3.309   3.123  0.0496 -0.3215 -0.3115
14208TIP3    H164039   4.156   3.259   3.089  0.1505 -0.1318 -0.8082
14208TIP3    H264040   4.197   3.399   3.129 -0.4820 -0.6288  1.6092
14209TIP3   OH264041   3.038   0.257   2.814 -0.4870  0.7518 -0.1249
14209TIP3    H164042   2.959   0.219   2.852  0.6475  0.7803  2.3439
14209TIP3    H264043   3.009   0.291   2.729 -2.5053 -1.5813 -0.4265
14210TIP3   OH264044   5.557   0.204  15.766 -0.0222 -0.2481  0.4822
14210TIP3    H164045   5.580   0.295  15.749 -1.5135 -0.1778 -1.3348
14210TIP3    H264046   5.501   0.208  15.844  1.5952  0.1356  1.6576
14211TIP3   OH264047   6.529   5.780   0.586  0.2558  0.6540  0.0520
14211TIP3    H164048   6.443   5.766   0.548  1.1033  0.6556 -1.9129
14211TIP3    H264049   6.559   5.862   0.547  0.8254  1.0641  1.3335
14212TIP3   OH264050   1.584   1.898  12.433  0.1202 -0.6898 -0.3679
14212TIP3    H164051   1.521   1.928  12.499 -0.7975 -1.1286 -1.0330
14212TIP3    H264052   1.663   1.878  12.483 -0.1040  0.3194  0.4191
14213TIP3   OH264053   1.359   6.516   0.166 -0.1206  0.2516  0.1494
14213TIP3    H164054   1.424   6.532   0.234  0.8401 -0.0697 -0.6899
14213TIP3    H264055   1.341   6.422   0.171 -1.5107  0.5524  1.2500
14214TIP3   OH264056   1.897   1.576   4.409 -0.4049 -0.4669  0.0418
14214TIP3    H164057   1.933   1.663   4.426 -1.2278  0.9493 -4.6806
14214TIP3    H264058   1.974   1.520   4.395  0.1567  0.8563 -2.5343
14215TIP3   OH264059   4.919   2.741  11.654  0.2065  0.5405  0.2171
14215TIP3    H164060   5.014   2.745  11.658  0.2511  0.4424 -0.8108
14215TIP3    H264061   4.892   2.826  11.619 -0.2365  1.5448  2.8189
14216TIP3   OH264062   3.945   6.320  13.536 -0.2355 -0.0463 -0.4063
14216TIP3    H164063   4.000   6.398  13.546 -0.5545  0.2663 -1.0960
14216TIP3    H264064   4.006   6.251  13.508  0.0046  0.0067 -0.0236
14217TIP3   OH264065   5.575   4.400   0.525  0.0796  0.0521 -0.4401
14217TIP3    H164066   5.661   4.432   0.497  0.1340 -0.0101 -0.3424
14217TIP3    H264067   5.585   4.305   0.530 -0.2148 -0.0209 -1.1861
14218TIP3   OH264068   1.700   6.511  17.037 -0.1628 -0.2577  0.3501
14218TIP3    H164069   1.753   6.566  17.094 -0.1991 -1.2238  1.3286
14218TIP3    H264070   1.613   6.509  17.079 -0.4560 -0.1956 -0.2451
14219TIP3   OH264071   2.566   2.522   5.389 -0.2355  0.0711  0.0612
14219TIP3    H164072   2.595   2.490   5.304  2.8760 -0.4958  1.2630
14219TIP3    H264073   2.604   2.460   5.452 -1.4932  1.1421  1.9252
14220TIP3   OH264074   3.732   3.546   2.639 -0.9076  0.4799 -0.6646
14220TIP3    H164075   3.727   3.544   2.543 -0.9871  1.5332 -0.6804
14220TIP3    H264076   3.813   3.593   2.658 -1.2599  0.9076 -0.2098
14221TIP3   OH264077   4.562   2.340   3.123  0.0944  0.1584  0.2601
14221TIP3    H164078   4.562   2.385   3.039 -0.5269  0.5852  0.4867
14221TIP3    H264079   4.595   2.405   3.185 -0.9385  0.3464  0.6118
14222TIP3   OH264080   6.676   5.123   1.661  0.1104 -0.4179  0.3763
14222TIP3    H164081   6.727   5.161   1.733 -0.5835 -0.8821  1.1098
14222TIP3    H264082   6.601   5.181   1.651 -0.0063 -0.5826  0.2917
14223TIP3   OH264083   4.948   2.685   3.903 -0.0671  0.3255  0.2468
14223TIP3    H164084   4.932   2.770   3.944  0.4264  1.3194 -1.6097
14223TIP3    H264085   4.938   2.700   3.809  0.9306 -1.4642 -0.1727
14224TIP3   OH264086   1.294   5.641  13.464  0.2490  0.4348  0.3421
14224TIP3    H164087   1.227   5.621  13.399 -0.0393 -1.0027  1.0606
14224TIP3    H264088   1.361   5.690  13.415 -0.3514  0.0946 -0.8388
14225TIP3   OH264089   4.691   2.304  16.807 -0.3361  0.2070 -0.1616
14225TIP3    H164090   4.651   2.359  16.740 -0.0659  0.2146 -0.3166
14225TIP3    H264091   4.715   2.364  16.878  1.3739  0.5266 -0.9807
14226TIP3   OH264092   1.151   2.661   1.563  0.5635 -0.0300 -0.0657
14226TIP3    H164093   1.081   2.726   1.550  0.3706  0.0827  1.4336
14226TIP3    H264094   1.106   2.577   1.562  0.3650  0.0538  1.0912
14227TIP3   OH264095   6.407   4.563   1.156 -0.3949 -0.3270  0.5375
14227TIP3    H164096   6.399   4.630   1.088 -1.7102 -0.4617  0.5490
14227TIP3    H264097   6.479   4.594   1.211 -1.2951  1.3538  0.8287
14228TIP3   OH264098   1.480   4.409  12.801  0.3955  0.3688  0.1628
14228TIP3    H164099   1.412   4.409  12.868 -1.3911 -2.4200 -1.5485
14228TIP3    H264100   1.481   4.498  12.767 -1.6899  0.7179  0.9709
14229TIP3   OH264101   0.981   4.010   5.221  0.0650  0.9222 -0.1575
14229TIP3    H164102   0.936   3.945   5.275  1.3681 -0.7734 -1.0492
14229TIP3    H264103   0.916   4.037   5.157  0.7285 -2.7627 -2.5077
14230TIP3   OH264104   4.248   0.496   4.637 -0.8355  0.0931  0.2105
14230TIP3    H164105   4.307   0.429   4.602 -1.0185 -0.5013  1.0400
14230TIP3    H264106   4.169   0.488   4.584 -0.3041  0.6668 -0.6831
14231TIP3   OH264107   0.058   2.838  11.599  0.5096  0.2031 -0.2649
14231TIP3    H164108  -0.021   2.893  11.598  0.5052  0.1909 -0.5160
14231TIP3    H264109   0.078   2.827  11.692 -1.1210 -1.6954 -0.0970
14232TIP3   OH264110   6.445   3.578   1.319  0.2369  0.6101 -0.7577
14232TIP3    H164111   6.511   3.583   1.250  0.8019  1.0265 -0.1930
14232TIP3    H264112   6.488   3.530   1.390 -0.6549 -0.6197 -1.0386
14233TIP3   OH264113   3.622   5.350  14.104  0.3325 -0.5428  0.5239
14233TIP3    H164114   3.597   5.367  14.013 -0.1828 -0.7477  0.6273
14233TIP3    H264115   3.547   5.379  14.156  0.4534 -0.8259  0.8595
14234TIP3   OH264116   2.455   4.445   1.707 -0.4451 -0.4187  0.0182
14234TIP3    H164117   2.518   4.440   1.778 -0.5782 -0.7464  0.1148
14234TIP3    H264118   2.498   4.402   1.633  0.8576  2.4568 -0.9796
14235TIP3   OH264119   2.271   2.669  13.066 -0.0306 -0.1407  0.3583
14235TIP3    H164120   2.362   2.669  13.037  0.1849 -0.9742  1.0196
14235TIP3    H264121   2.269   2.730  13.140  0.4912 -1.8833  1.8450
14236TIP3   OH264122   4.524   0.794   4.996 -0.0032 -0.2702 -0.5297
14236TIP3    H164123   4.509   0.786   4.902 -0.1391  1.9484 -0.7165
14236TIP3    H264124   4.452   0.745   5.036 -1.3515  0.8401 -1.5553
14237TIP3   OH264125   4.316   3.984  14.578 -0.2064  0.1755  0.0089
14237TIP3    H164126   4.411   3.977  14.572 -0.3112 -1.5632  0.0231
14237TIP3    H264127   4.300   4.024  14.663  0.4715 -1.4385  0.9166
14238TIP3   OH264128   1.689   6.641  14.702  0.6365 -0.6070  0.1357
14238TIP3    H164129   1.665   6.557  14.741  1.2323 -0.4791  0.7919
14238TIP3    H264130   1.783   6.650  14.719  0.4831  0.4240  0.5413
14239TIP3   OH264131   4.059   0.349   4.494  0.2471  0.0085  0.0028
14239TIP3    H164132   4.011   0.319   4.416  1.0180  0.5901 -0.7042
14239TIP3    H264133   4.018   0.301   4.567 -1.3048  0.3761 -0.5937
14240TIP3   OH264134   3.355   2.436  12.738  0.4896  0.2578  0.0434
14240TIP3    H164135   3.331   2.528  12.738  1.9361  0.6626 -2.6286
14240TIP3    H264136   3.325   2.403  12.654  1.1863 -1.3971  0.4218
14241TIP3   OH264137   1.616   3.202  13.157 -0.6260 -0.3473  0.5412
14241TIP3    H164138   1.614   3.181  13.064  0.0134  1.0357  0.2001
14241TIP3    H264139   1.630   3.296  13.160 -0.0453 -0.4632  2.0456
14242TIP3   OH264140   5.578   1.334  15.617  0.1823  0.2948  0.4763
14242TIP3    H164141   5.536   1.392  15.553  0.8085  2.4080  1.9285
14242TIP3    H264142   5.521   1.338  15.693  0.9948  0.1374  1.0969
14243TIP3   OH264143   5.433   1.187   5.046 -0.0127  0.0925  0.0786
14243TIP3    H164144   5.474   1.220   4.967  0.9848 -0.4427  0.3542
14243TIP3    H264145   5.402   1.265   5.092  1.3656  0.5746  0.2178
14244TIP3   OH264146   3.758   6.671   0.349 -0.3641  0.0336 -0.4376
14244TIP3    H164147   3.727   6.587   0.384 -0.8898 -0.0386 -1.0476
14244TIP3    H264148   3.678   6.721   0.333  0.0161  1.5172  1.9708
14245TIP3   OH264149   1.149   3.726   5.393 -0.4093 -0.4521 -0.2915
14245TIP3    H164150   1.207   3.729   5.470  0.7063 -1.7933 -1.0437
14245TIP3    H264151   1.163   3.638   5.357 -2.1997 -0.4346 -1.0576
14246TIP3   OH264152   1.018   3.151  13.956 -0.0758 -0.1923  0.5920
14246TIP3    H164153   1.107   3.149  13.922 -0.3062 -1.6910  0.0563
14246TIP3    H264154   1.027   3.130  14.049  0.1762  0.1073  0.6337
14247TIP3   OH264155   2.977   2.718  15.703  0.0753 -0.0902 -0.1103
14247TIP3    H164156   2.997   2.625  15.715  1.0891  0.0009 -1.0664
14247TIP3    H264157   2.983   2.733  15.609  0.0217  0.9694  0.0434
14248TIP3   OH264158   1.170   6.344   4.901 -0.2077 -0.3547 -0.0293
14248TIP3    H164159   1.185   6.287   4.826 -0.7330 -0.0225 -0.3846
14248TIP3    H264160   1.254   6.388   4.915  0.5326 -2.0279  0.9276
14249TIP3   OH264161   0.032   0.326  11.946 -0.2656  0.4583 -0.8815
14249TIP3    H164162  -0.027   0.275  11.891 -0.9886  1.0408 -0.6415
14249TIP3    H264163   0.031   0.414  11.909 -0.7177  0.8430  0.0212
14250TIP3   OH264164   2.952   0.105  14.865  0.1206 -0.3568  0.1118
14250TIP3    H164165   2.863   0.132  14.888 -0.4629 -1.8226 -0.3680
14250TIP3    H264166   2.949   0.090  14.771  0.6453 -1.2082  0.2244
14251TIP3   OH264167   3.662   3.625  15.626 -0.2440  1.1961  0.2655
14251TIP3    H164168   3.616   3.682  15.565  2.2900  3.7776  0.6547
14251TIP3    H264169   3.752   3.659  15.627  1.2509 -2.5457  0.8451
14252TIP3   OH264170   3.909   1.270   2.717  0.1158  0.5807  0.5573
14252TIP3    H164171   3.894   1.228   2.801  0.6581  2.7179  1.7483
14252TIP3    H264172   3.841   1.336   2.710 -1.0109 -0.7289 -1.5084
14253TIP3   OH264173   0.011   2.236  12.428 -0.3595  0.0191  0.2704
14253TIP3    H164174   0.021   2.328  12.453  1.4540 -0.0954  0.0283
14253TIP3    H264175   0.012   2.188  12.510 -2.6131  0.2863  0.4988
14254TIP3   OH264176   3.223   5.039  12.502 -0.4478 -0.1154  0.0362
14254TIP3    H164177   3.289   4.971  12.494  0.0456  0.1110  1.9638
14254TIP3    H264178   3.243   5.082  12.585 -1.3568  1.7264 -0.6751
14255TIP3   OH264179   0.451   5.368  16.628  0.7612  0.2745 -0.0365
14255TIP3    H164180   0.533   5.333  16.593 -0.3269 -1.9235 -0.5496
14255TIP3    H264181   0.415   5.421  16.557  0.7083 -0.5597 -0.6463
14256TIP3   OH264182   2.022   5.771   4.416  0.6800  0.0989 -0.1490
14256TIP3    H164183   2.091   5.806   4.360  0.9038 -1.7043 -1.0510
14256TIP3    H264184   2.064   5.755   4.500  0.8433  0.9374 -0.0702
14257TIP3   OH264185   4.877   1.069  14.625  0.2176  0.3006 -0.6494
14257TIP3    H164186   4.948   1.010  14.601 -0.4035 -0.4943 -0.5350
14257TIP3    H264187   4.818   1.067  14.549  0.3850  1.0673 -0.8021
14258TIP3   OH264188   2.604   4.423   3.604  0.2415  0.1126  0.1617
14258TIP3    H164189   2.606   4.333   3.635 -1.0872  0.3793  1.0473
14258TIP3    H264190   2.696   4.447   3.594  0.5945 -1.4657 -0.4744
14259TIP3   OH264191   0.870   3.768  16.792  0.4827 -0.2109  0.0331
14259TIP3    H164192   0.857   3.756  16.698  1.4994 -2.2073  0.1257
14259TIP3    H264193   0.916   3.852  16.799 -1.8293  1.1838 -1.0545
14260TIP3   OH264194   6.262   0.869  11.096 -0.8977 -0.4022 -0.0800
14260TIP3    H164195   6.200   0.831  11.158 -0.2756  0.4465  1.0773
14260TIP3    H264196   6.330   0.802  11.086 -1.5269 -0.9713 -0.6807
14261TIP3   OH264197   0.078   2.657   4.415  0.5059  0.7444 -0.4474
14261TIP3    H164198   0.025   2.609   4.352 -0.4626 -0.2369  1.0697
14261TIP3    H264199   0.165   2.660   4.377 -0.2076  0.7637 -2.1217
14262TIP3   OH264200   4.085   4.352  16.968  0.2335  0.3253 -1.0161
14262TIP3    H164201   4.037   4.398  17.037  2.3692 -0.2109  0.8731
14262TIP3    H264202   4.024   4.284  16.938  0.7454 -2.3218  3.4210
14263TIP3   OH264203   2.635   3.967   4.160 -0.0835  0.4692 -0.2278
14263TIP3    H164204   2.704   4.032   4.156  0.5178 -0.1273  0.3063
14263TIP3    H264205   2.573   4.002   4.224  0.7576  0.0383  0.8445
14264TIP3   OH264206   2.024   6.113   3.531 -0.4986 -0.0254 -0.1146
14264TIP3    H164207   1.947   6.164   3.556 -0.5288 -0.6025  1.0023
14264TIP3    H264208   2.089   6.178   3.506 -0.9350  0.5134  0.1529
14265TIP3   OH264209   0.051   6.657   2.516  0.3628  0.3916 -0.3227
14265TIP3    H164210   0.010   6.579   2.554 -2.6270  2.2811  0.4163
14265TIP3    H264211   0.051   6.641   2.421  1.0790 -1.0936 -0.0864
14266TIP3   OH264212   6.490   2.787  12.307  0.0115  0.0730 -0.9274
14266TIP3    H164213   6.421   2.736  12.264 -0.1827  1.5169 -2.4068
14266TIP3    H264214   6.447   2.827  12.383 -0.4898  0.0469 -1.1941
14267TIP3   OH264215   1.935   0.213  12.139 -0.1415  0.0896 -0.0972
14267TIP3    H164216   1.994   0.138  12.129 -0.0696 -0.3426  2.9775
14267TIP3    H264217   1.994   0.289  12.145 -0.0006 -0.0600  0.4884
14268TIP3   OH264218   4.364   3.527   2.621 -0.4512 -0.0970 -0.0343
14268TIP3    H164219   4.270   3.514   2.611 -0.8615  0.8932  2.1535
14268TIP3    H264220   4.374   3.621   2.635  0.5129 -0.5798  2.8542
14269TIP3   OH264221   3.358   1.132   0.001  0.0614 -0.1329  0.3234
14269TIP3    H164222   3.385   1.188   0.074 -1.0789  0.8799 -0.0164
14269TIP3    H264223   3.419   1.153  -0.069 -1.0176  1.4923 -0.1549
14270TIP3   OH264224   0.218   2.510  12.823 -0.5628 -0.3628 -0.0071
14270TIP3    H164225   0.122   2.506  12.824 -0.6011 -3.1666 -4.0069
14270TIP3    H264226   0.245   2.440  12.883 -0.9978 -0.2642  0.3088
14271TIP3   OH264227   4.972   1.873   4.994 -0.5124 -0.3676  0.1362
14271TIP3    H164228   4.877   1.880   4.996 -0.3696  1.7234  1.7670
14271TIP3    H264229   4.996   1.845   5.082  0.4855  1.5962  0.5347
14272TIP3   OH264230   1.361   1.006   1.250 -0.3777 -0.0665 -0.2284
14272TIP3    H164231   1.324   1.086   1.213 -1.6170  0.8249  2.8011
14272TIP3    H264232   1.337   0.938   1.188 -1.3269  1.5278 -1.6702
14273TIP3   OH264233   4.060   0.235  13.498 -0.0981  0.3260 -0.7519
14273TIP3    H164234   4.092   0.318  13.533 -1.1092  1.9442 -3.4998
14273TIP3    H264235   4.098   0.169  13.556  5.6535  2.2508 -1.9500
14274TIP3   OH264236   5.198   2.496  16.254 -0.0093  0.6785  0.5134
14274TIP3    H164237   5.120   2.459  16.212  0.3254 -0.4514  0.8830
14274TIP3    H264238   5.223   2.569  16.197 -0.0693 -0.2938 -0.7820
14275TIP3   OH264239   1.209   4.428  11.090 -0.3984 -0.2241  0.2417
14275TIP3    H164240   1.147   4.364  11.055 -0.7963  0.2155  0.1255
14275TIP3    H264241   1.248   4.385  11.166  0.0981 -0.9893 -0.4466
14276TIP3   OH264242   5.774   1.473   1.132  0.2698 -0.3209 -0.0359
14276TIP3    H164243   5.761   1.394   1.080 -1.1659 -0.7769  0.9622
14276TIP3    H264244   5.685   1.501   1.154  0.8327  0.2566  1.5661
14277TIP3   OH264245   4.400   4.322   1.738 -0.1546 -0.2466  0.1115
14277TIP3    H164246   4.369   4.340   1.827 -0.5125 -0.4651  0.0279
14277TIP3    H264247   4.477   4.379   1.728 -1.7764  1.8951 -0.4399
14278TIP3   OH264248   4.402   5.811  15.497 -0.3627  0.4530  0.0848
14278TIP3    H164249   4.330   5.874  15.497 -0.4248  0.4117 -1.2766
14278TIP3    H264250   4.416   5.791  15.404  1.3773  0.4178  0.3386
14279TIP3   OH264251   1.954   0.446  15.307  0.4431 -0.3008 -0.2353
14279TIP3    H164252   1.880   0.495  15.270 -0.2458 -1.5788 -0.5546
14279TIP3    H264253   2.020   0.513  15.324 -1.7738  1.3021  2.6000
14280TIP3   OH264254   6.662   3.489   4.335  0.0972 -0.3109 -0.2857
14280TIP3    H164255   6.726   3.480   4.406 -0.6017 -0.8237  0.2901
14280TIP3    H264256   6.577   3.491   4.380 -0.3029  0.1873 -1.0517
14281TIP3   OH264257   1.692   6.694  16.439  0.4685 -0.0657 -0.6040
14281TIP3    H164258   1.685   6.638  16.516  0.3298  0.0161 -0.5565
14281TIP3    H264259   1.607   6.687  16.396  0.2949  0.4504 -0.3567
14282TIP3   OH264260   0.672   1.439  10.644  0.0681 -0.3207 -1.1641
14282TIP3    H164261   0.587   1.415  10.606 -0.7446  0.7134 -0.0293
14282TIP3    H264262   0.691   1.369  10.706 -0.7151  0.2435 -0.2772
14283TIP3   OH264263   5.743   3.655  12.879  0.1742 -0.7154 -0.6201
14283TIP3    H164264   5.734   3.729  12.939 -1.1064  0.4726 -2.2394
14283TIP3    H264265   5.836   3.653  12.857  0.8542 -1.8190  2.1756
14284TIP3   OH264266   1.027   1.093  14.015  0.1288 -0.3274 -0.0834
14284TIP3    H164267   1.035   1.070  13.922  1.0956 -0.7841  0.1036
14284TIP3    H264268   1.083   1.170  14.025 -2.1372  1.4012 -0.4440
14285TIP3   OH264269   4.102   5.318   1.347  0.2138  0.7683  0.4960
14285TIP3    H164270   4.113   5.235   1.303 -2.4023  0.6846 -0.0833
14285TIP3    H264271   4.028   5.359   1.303  0.1599  2.4946  2.1235
14286TIP3   OH264272   2.811   4.737   0.832 -0.0458 -0.0047  0.3444
14286TIP3    H164273   2.860   4.656   0.850 -0.0695 -0.1154 -0.0832
14286TIP3    H264274   2.878   4.806   0.833  0.6609 -0.5177 -3.2522
14287TIP3   OH264275   2.913   5.114   3.672 -0.0688 -0.4785 -0.3776
14287TIP3    H164276   2.983   5.093   3.610  0.4259  2.6290 -0.9876
14287TIP3    H264277   2.841   5.146   3.618 -0.0677  1.1193  0.5075
14288TIP3   OH264278   0.069   0.719   4.984 -0.4328 -0.1247 -0.0090
14288TIP3    H164279   0.103   0.663   5.054  0.3024  0.6337  0.2443
14288TIP3    H264280   0.147   0.751   4.939 -0.9065 -0.6009 -1.1758
14289TIP3   OH264281   0.637   5.989  11.870 -0.2852 -0.1509 -0.5649
14289TIP3    H164282   0.647   6.055  11.801 -1.7305  0.6198 -0.0722
14289TIP3    H264283   0.640   5.906  11.824 -1.6800  0.3704 -1.6522
14290TIP3   OH264284   0.210   1.087   2.633 -0.2903  0.0014  0.1534
14290TIP3    H164285   0.220   1.097   2.538  0.9376 -1.3676  0.1162
14290TIP3    H264286   0.286   1.131   2.670 -1.6930  2.1110  0.6181
14291TIP3   OH264287   0.738   0.688   2.616 -0.0422  0.0217 -0.2071
14291TIP3    H164288   0.644   0.695   2.600 -0.5046 -0.5468  2.0473
14291TIP3    H264289   0.756   0.753   2.683  0.9965 -0.5507  0.0752
14292TIP3   OH264290   0.385   2.456   4.845 -0.1647 -0.0415  0.6538
14292TIP3    H164291   0.313   2.427   4.902 -0.1682 -1.2599  0.0385
14292TIP3    H264292   0.441   2.379   4.836  1.2290  0.9008  1.1212
14293TIP3   OH264293   1.853   5.544  16.519 -0.0774 -0.4646  0.0490
14293TIP3    H164294   1.852   5.449  16.506  0.0260 -0.6678  1.4666
14293TIP3    H264295   1.930   5.561  16.572 -0.1942  0.3982 -0.0443
14294TIP3   OH264296   4.321   4.873  14.850 -0.8863 -0.5967  0.0998
14294TIP3    H164297   4.327   4.935  14.777  2.2394  1.2217  1.7777
14294TIP3    H264298   4.310   4.788  14.808  2.0849  0.2560 -2.6168
14295TIP3   OH264299   6.004   0.244   6.109  0.0478  0.1760 -0.4314
14295TIP3    H164300   5.945   0.259   6.183  1.2985  0.5921  0.4925
14295TIP3    H264301   5.984   0.315   6.048 -1.5623 -0.6317 -0.8875
14296TIP3   OH264302   3.523   4.907  12.814  0.1341  0.5663 -0.4054
14296TIP3    H164303   3.565   4.976  12.866 -2.7175  1.2905  1.0020
14296TIP3    H264304   3.438   4.943  12.791 -0.8528 -1.9664 -0.8183
14297TIP3   OH264305   0.809   3.478   4.257  0.1662 -0.4678 -0.0247
14297TIP3    H164306   0.890   3.518   4.225  0.0597  1.5742  2.0934
14297TIP3    H264307   0.741   3.511   4.197  0.3004  1.4107  0.8274
14298TIP3   OH264308   4.907   0.947   2.489 -0.5534  0.5828 -0.1274
14298TIP3    H164309   4.947   0.892   2.556  0.2974 -0.9672 -1.8747
14298TIP3    H264310   4.814   0.923   2.492 -0.3326 -0.3054 -0.2714
14299TIP3   OH264311   1.304   5.694  14.894  0.1667 -0.3792  0.5342
14299TIP3    H164312   1.384   5.712  14.942 -0.1766 -0.2294  1.0624
14299TIP3    H264313   1.332   5.649  14.815  1.1048  2.7282 -0.9985
14300TIP3   OH264314   5.790   0.041  14.985 -0.1425 -0.3744  0.1295
14300TIP3    H164315   5.883   0.064  14.977 -0.4361  0.3662 -1.3191
14300TIP3    H264316   5.766   0.068  15.074  1.4684 -2.2079  1.1670
14301TIP3   OH264317   1.294   1.819  16.111 -0.0729  0.1843 -0.0378
14301TIP3    H164318   1.261   1.733  16.136  1.3131 -0.9615 -1.9407
14301TIP3    H264319   1.388   1.816  16.131  0.4773  0.2975 -2.3552
14302TIP3   OH264320   0.960   3.397   2.676 -0.7982 -0.2239  0.3064
14302TIP3    H164321   0.971   3.411   2.770  0.0118 -0.5304  0.2630
14302TIP3    H264322   0.872   3.428   2.657 -0.3855  1.3268  0.8827
14303TIP3   OH264323   1.427   2.115  12.012 -0.4094 -0.7587  0.1937
14303TIP3    H164324   1.499   2.053  12.003 -1.2719 -1.5358 -1.6303
14303TIP3    H264325   1.430   2.167  11.932 -0.6956  0.4879  0.9822
14304TIP3   OH264326   4.788   3.645   0.071 -0.7306 -0.2511 -0.2293
14304TIP3    H164327   4.711   3.673   0.022 -1.4688 -0.4711  0.7957
14304TIP3    H264328   4.756   3.577   0.129  0.0096  0.3974  0.9532
14305TIP3   OH264329   0.004   0.973  11.035  0.2152  0.2299  0.5168
14305TIP3    H164330  -0.000   1.064  11.004  2.5194  0.1476 -0.1037
14305TIP3    H264331  -0.022   0.920  10.960 -3.1313  0.4321  1.4718
14306TIP3   OH264332   3.127   2.437   5.965 -0.2900  0.3865 -0.1593
14306TIP3    H164333   3.192   2.507   5.965  0.9325 -0.6707  1.7565
14306TIP3    H264334   3.112   2.420   6.058 -0.4859 -1.9330 -0.5922
14307TIP3   OH264335   3.640   2.381   4.401 -1.0413 -0.2600 -0.6447
14307TIP3    H164336   3.711   2.423   4.449 -2.8193  1.9692  0.1200
14307TIP3    H264337   3.683   2.311   4.352  1.3907 -0.1312  1.1994
14308TIP3   OH264338   5.740   6.758   0.319  0.2979 -0.3564 -0.3207
14308TIP3    H164339   5.744   6.690   0.386 -0.3988 -0.7688 -0.6897
14308TIP3    H264340   5.649   6.759   0.291  0.0749  1.4185  0.3749
14309TIP3   OH264341   5.752   5.067   4.727 -0.0737 -0.1683  0.5307
14309TIP3    H164342   5.733   5.032   4.814  0.2341  1.7025  1.3645
14309TIP3    H264343   5.679   5.125   4.708 -1.4349 -2.4722 -1.5611
14310TIP3   OH264344   6.267   1.328   2.943 -0.3061  0.1723  0.6439
14310TIP3    H164345   6.190   1.303   2.995 -1.3150 -0.6104 -1.1498
14310TIP3    H264346   6.239   1.313   2.852  1.1297  2.2335 -0.1589
14311TIP3   OH264347   2.149   6.278  13.920 -0.2461  0.2070 -0.2304
14311TIP3    H164348   2.212   6.262  13.849 -0.8316 -0.6308 -0.5667
14311TIP3    H264349   2.068   6.302  13.875 -0.9080 -1.3077  0.1055
14312TIP3   OH264350   5.953   1.364  13.408 -0.5905 -0.4260 -0.2056
14312TIP3    H164351   5.897   1.370  13.486  1.3440  1.1068  1.1248
14312TIP3    H264352   5.901   1.402  13.338 -1.5119  0.2871  0.8413
14313TIP3   OH264353   6.582   2.808   5.667  0.0464  0.3009 -0.5151
14313TIP3    H164354   6.632   2.883   5.698  0.0748  0.0335  0.0968
14313TIP3    H264355   6.569   2.824   5.574 -0.9086  1.6257 -0.1741
14314TIP3   OH264356   2.796   6.780   1.687 -0.6180  0.0216 -0.3405
14314TIP3    H164357   2.805   6.713   1.756  1.7727 -0.4768 -1.0810
14314TIP3    H264358   2.843   6.743   1.612 -1.5891  1.3825 -1.6363
14315TIP3   OH264359   5.539   6.285   0.945  0.7546 -0.3740 -0.0293
14315TIP3    H164360   5.474   6.215   0.950  1.1022 -0.5337  2.8063
14315TIP3    H264361   5.489   6.364   0.924  0.1513 -1.1580 -1.5818
14316TIP3   OH264362   2.395   2.741   0.140  0.1167  0.3102 -0.0987
14316TIP3    H164363   2.468   2.792   0.103  1.7752 -1.3314  0.8132
14316TIP3    H264364   2.434   2.656   0.161 -2.4015 -1.0751 -0.8455
14317TIP3   OH264365   3.735   4.366  15.542 -0.5964  0.5694 -0.4396
14317TIP3    H164366   3.680   4.391  15.468 -0.1934  2.0653 -0.2516
14317TIP3    H264367   3.724   4.437  15.605 -0.4063 -0.3577  0.6642
14318TIP3   OH264368   1.641   0.114   1.839 -0.2902 -0.7692 -0.3462
14318TIP3    H164369   1.697   0.151   1.908 -0.2139 -1.5237  0.0032
14318TIP3    H264370   1.601   0.191   1.797 -0.5782 -0.3142  0.7410
14319TIP3   OH264371   1.170   2.441   3.607 -0.3357  0.0342  0.2844
14319TIP3    H164372   1.192   2.451   3.514  0.1438  0.7225  0.4616
14319TIP3    H264373   1.091   2.387   3.608  0.6930 -1.4999 -0.4368
14320TIP3   OH264374   1.408   2.602  10.381  0.5336 -0.0577 -0.1887
14320TIP3    H164375   1.499   2.584  10.405  0.5085  1.5226  1.1810
14320TIP3    H264376   1.357   2.539  10.431  0.8598 -1.0363 -1.0617
14321TIP3   OH264377   6.550   4.458  16.868 -0.0458  0.2506  0.1832
14321TIP3    H164378   6.564   4.517  16.943 -1.9570  0.7181  0.1901
14321TIP3    H264379   6.588   4.375  16.896 -0.8123  0.3969  1.7107
14322TIP3   OH264380   4.516   6.479  16.804  0.9162  0.0053  0.1632
14322TIP3    H164381   4.529   6.555  16.747 -1.8852  0.2069 -0.2700
14322TIP3    H264382   4.558   6.407  16.759  3.7012  1.2654  0.6058
14323TIP3   OH264383   5.490   2.167  16.672 -0.1520 -0.4031 -0.0655
14323TIP3    H164384   5.466   2.204  16.587  0.6854  0.2169 -0.0401
14323TIP3    H264385   5.503   2.074  16.654 -0.3822 -0.3504 -0.5270
14324TIP3   OH264386   5.616   5.132  12.925 -0.4541 -0.3736  0.2284
14324TIP3    H164387   5.620   5.077  13.003  0.6601  0.3346  0.6788
14324TIP3    H264388   5.607   5.221  12.959 -1.5818 -0.1979 -0.4874
14325TIP3   OH264389   1.696   1.196  12.313  0.3308 -0.3921  0.0023
14325TIP3    H164390   1.651   1.229  12.390 -1.0622  0.0205 -0.9721
14325TIP3    H264391   1.750   1.124  12.346  0.2197  0.1690  1.4540
14326TIP3   OH264392   3.784   1.222  12.302  0.0987  0.0125 -0.1665
14326TIP3    H164393   3.775   1.215  12.398 -2.5052  1.3773 -0.2734
14326TIP3    H264394   3.878   1.233  12.288  0.5063  0.0517  2.2553
14327TIP3   OH264395   1.406   4.484  14.113 -0.2527 -0.2570 -0.0737
14327TIP3    H164396   1.420   4.492  14.019  0.0866  0.2946  0.0207
14327TIP3    H264397   1.493   4.469  14.150 -0.3196 -0.0000  0.1953
14328TIP3   OH264398   2.977   5.992  16.548  0.9596  0.8744  0.2833
14328TIP3    H164399   2.924   6.030  16.619 -0.9314  0.4792 -0.9055
14328TIP3    H264400   2.953   5.900  16.547 -0.4846  1.2459 -2.1268
14329TIP3   OH264401   3.338   5.733  16.441 -0.3826  0.2332  0.5864
14329TIP3    H164402   3.278   5.730  16.367 -0.8122  1.0573  0.8889
14329TIP3    H264403   3.417   5.775  16.407  0.3596 -1.6280 -0.0304
14330TIP3   OH264404   2.276   5.124  14.160 -0.5589  0.3465  0.6566
14330TIP3    H164405   2.215   5.173  14.105  0.3581  0.3807 -0.3674
14330TIP3    H264406   2.346   5.097  14.100 -0.0205 -0.4565  1.6162
14331TIP3   OH264407   1.232   4.220  16.775  0.6460  0.3962  0.3763
14331TIP3    H164408   1.220   4.311  16.749 -0.1913  0.1211 -0.2610
14331TIP3    H264409   1.229   4.172  16.692 -0.1113 -0.3166  0.8086
14332TIP3   OH264410   1.495   4.252   3.693  0.1099 -0.4244 -0.0267
14332TIP3    H164411   1.501   4.284   3.783  1.6100 -0.2294 -0.1798
14332TIP3    H264412   1.440   4.316   3.648  1.3197  0.8028  0.1870
14333TIP3   OH264413   5.115   1.082   4.727 -0.0909 -0.5603 -0.2002
14333TIP3    H164414   5.104   1.105   4.635 -2.0116 -0.1469  0.1112
14333TIP3    H264415   5.114   1.166   4.773  2.0154 -0.6776  0.1217
14334TIP3   OH264416   5.573   2.652   5.575 -0.1467  0.8272  0.1828
14334TIP3    H164417   5.539   2.620   5.491  2.0188  0.3738 -0.5580
14334TIP3    H264418   5.652   2.702   5.552  0.8932  0.0812  2.0127
14335TIP3   OH264419   4.425   3.154  15.114  0.9006 -0.0939  0.4132
14335TIP3    H164420   4.446   3.235  15.160 -0.3093 -0.6813  2.0520
14335TIP3    H264421   4.509   3.123  15.080  1.5284  1.3062  0.6614
14336TIP3   OH264422   3.763   2.492   6.243  0.1910 -0.9054 -0.4827
14336TIP3    H164423   3.780   2.438   6.321  1.4899 -0.7162 -0.6119
14336TIP3    H264424   3.850   2.504   6.204 -0.6714 -2.3761 -2.8991
14337TIP3   OH264425   0.425   6.773  15.153  0.5897  0.0526  0.0170
14337TIP3    H164426   0.469   6.857  15.144 -0.1507  0.2170 -2.3526
14337TIP3    H264427   0.384   6.757  15.068  0.6986 -2.7075  0.4130
14338TIP3   OH264428   0.044   3.277  16.835  0.0959 -0.2927  0.4965
14338TIP3    H164429  -0.025   3.294  16.771  0.9774  0.5086 -0.2394
14338TIP3    H264430   0.044   3.354  16.891 -0.1298 -0.6426  0.9884
14339TIP3   OH264431   0.101   4.122   1.433 -0.5488  0.5922 -0.2318
14339TIP3    H164432   0.039   4.059   1.469  1.5167 -1.3905  0.0131
14339TIP3    H264433   0.094   4.111   1.338  0.2653 -0.5228 -0.1788
14340TIP3   OH264434   4.941   3.681  16.860 -0.3817  0.8536 -0.3333
14340TIP3    H164435   4.900   3.762  16.891  3.6390  2.1439  2.0255
14340TIP3    H264436   4.953   3.629  16.939  0.3314 -0.4768 -1.3084
14341TIP3   OH264437   2.308   4.688   5.678  0.1288 -0.7846  0.2394
14341TIP3    H164438   2.376   4.699   5.611  0.5067  0.6686  0.8525
14341TIP3    H264439   2.284   4.595   5.672  2.2431 -1.3467  0.0818
14342TIP3   OH264440   4.475   1.370   0.842  0.2184  0.5199 -0.1671
14342TIP3    H164441   4.490   1.415   0.925  1.7322  0.3002 -0.3065
14342TIP3    H264442   4.381   1.352   0.841 -0.0179  1.6247  0.9312
14343TIP3   OH264443   0.545   0.540  15.942 -0.3930 -0.0432  0.2311
14343TIP3    H164444   0.478   0.587  15.891  0.1234 -0.3270 -0.7194
14343TIP3    H264445   0.605   0.609  15.971 -1.7509  0.3812  2.1363
14344TIP3   OH264446   5.263   0.345   1.903 -0.0418 -0.1415  0.2566
14344TIP3    H164447   5.267   0.310   1.814 -1.3279  0.3581 -0.0136
14344TIP3    H264448   5.265   0.440   1.891 -1.3518 -0.0487  0.6803
14345TIP3   OH264449   3.315   3.236  12.971  0.1016  0.1231  0.1854
14345TIP3    H164450   3.326   3.314  13.026 -1.0715  1.0024 -0.8103
14345TIP3    H264451   3.221   3.222  12.969 -0.0656  1.3490 -3.3197
14346TIP3   OH264452   3.163   4.872   2.019  0.2153  0.0514  0.1804
14346TIP3    H164453   3.078   4.913   2.030 -0.7543 -1.9757  0.5975
14346TIP3    H264454   3.177   4.871   1.924 -0.1121  0.6170  0.1235
14347TIP3   OH264455   1.827   5.188  16.728  0.0273  0.1187 -0.9267
14347TIP3    H164456   1.779   5.240  16.793  0.8743  0.3193 -0.4531
14347TIP3    H264457   1.786   5.102  16.731 -1.9167  0.9457 -2.2692
14348TIP3   OH264458   5.781   0.067  14.530  0.1411 -0.6887 -0.1180
14348TIP3    H164459   5.696   0.036  14.499  0.8727  0.5672 -3.5895
14348TIP3    H264460   5.812  -0.003  14.587 -2.0317 -2.3637 -0.9098
14349TIP3   OH264461   5.308   6.384  16.267  0.1765 -0.1828  0.1416
14349TIP3    H164462   5.346   6.381  16.179 -2.2567 -0.6040 -0.9594
14349TIP3    H264463   5.382   6.396  16.325  1.9958 -1.3076 -1.8726
14350TIP3   OH264464   3.644   4.022  14.083 -0.3907 -0.2087 -0.3455
14350TIP3    H164465   3.585   3.949  14.065 -0.2473  0.3710 -3.4895
14350TIP3    H264466   3.729   3.992  14.051 -0.1769  1.0111 -0.9837
14351TIP3   OH264467   0.056   3.587   0.280  0.3645  0.2793 -0.5274
14351TIP3    H164468   0.063   3.670   0.233  1.6228 -0.7466 -2.2466
14351TIP3    H264469   0.138   3.580   0.329 -0.0498  0.3774  0.1881
14352TIP3   OH264470   0.337   0.952  14.237 -0.5270  0.0652  0.2264
14352TIP3    H164471   0.253   0.924  14.274 -1.4025  1.7594 -0.4145
14352TIP3    H264472   0.385   0.988  14.311 -0.2950 -1.0002  0.6152
14353TIP3   OH264473   2.820   0.257   4.371  0.9295  0.1512 -0.6858
14353TIP3    H164474   2.776   0.269   4.455  1.4671  0.3551 -0.4267
14353TIP3    H264475   2.795   0.169   4.343  0.4869  0.2063 -0.4678
14354TIP3   OH264476   1.080   2.078  15.448  0.3095  0.0294  0.1462
14354TIP3    H164477   1.002   2.106  15.399 -0.4061  0.9881  1.7621
14354TIP3    H264478   1.063   2.109  15.538  2.8700  0.8599  0.3716
14355TIP3   OH264479   0.807   5.391  12.859 -0.4740  0.5427 -0.9224
14355TIP3    H164480   0.722   5.408  12.818 -1.1854  0.7193  0.5907
14355TIP3    H264481   0.829   5.302  12.832 -1.7538  0.0226 -0.2902
14356TIP3   OH264482   6.000   4.069  16.755 -0.9489 -0.5957 -0.6797
14356TIP3    H164483   5.998   4.002  16.686  0.4456 -1.4280  0.0574
14356TIP3    H264484   6.003   4.019  16.836  0.6468  0.3449 -0.1338
14357TIP3   OH264485   5.808   5.337   5.929 -0.4659 -0.0367 -0.1023
14357TIP3    H164486   5.849   5.251   5.935  1.7808  1.1475  3.0727
14357TIP3    H264487   5.822   5.364   5.838 -1.3652 -3.0429 -1.1838
14358TIP3   OH264488   2.502   1.920  15.213  0.3481 -0.5562  0.0119
14358TIP3    H164489   2.469   2.007  15.190 -0.7728 -0.8436  0.5338
14358TIP3    H264490   2.570   1.903  15.147 -0.7129 -0.0722 -1.2363
14359TIP3   OH264491   2.653   5.662   0.523  0.1692 -0.2006  0.2088
14359TIP3    H164492   2.679   5.754   0.534  0.1186 -0.1371 -0.1671
14359TIP3    H264493   2.732   5.620   0.490 -0.2472  0.0333 -1.1361
14360TIP3   OH264494   0.675   0.734   5.956  0.4617  0.3959 -0.2280
14360TIP3    H164495   0.721   0.767   5.879 -0.1260  1.8544  0.0378
14360TIP3    H264496   0.689   0.639   5.953  0.6456  0.4595 -1.9923
14361TIP3   OH264497   6.364   6.482  11.923 -0.1664  0.3389 -0.1002
14361TIP3    H164498   6.391   6.419  11.991  1.2147  1.8377  0.7745
14361TIP3    H264499   6.396   6.566  11.954  0.5663  1.0551 -2.6784
14362TIP3   OH264500   2.119   1.410  12.001  0.0670 -0.0349  0.0218
14362TIP3    H164501   2.069   1.348  11.948 -0.4557  0.7735 -0.4417
14362TIP3    H264502   2.080   1.405  12.088  1.9866 -2.5811  0.8059
14363TIP3   OH264503   1.590   3.666  16.300  0.0619 -0.1542  0.3870
14363TIP3    H164504   1.552   3.578  16.292  0.2584 -0.4880  2.6016
14363TIP3    H264505   1.553   3.700  16.381  1.7437  0.9056  0.7400
14364TIP3   OH264506   5.881   5.445   4.256 -0.6134  0.2525 -0.2997
14364TIP3    H164507   5.816   5.514   4.238 -0.9605 -0.0962 -0.3862
14364TIP3    H264508   5.875   5.387   4.180  0.1116  0.4541 -0.5149
14365TIP3   OH264509   6.340   1.811   4.342  0.2688  0.1941  0.2369
14365TIP3    H164510   6.423   1.817   4.296 -0.6341 -0.6261 -1.5375
14365TIP3    H264511   6.320   1.717   4.344 -1.6863  0.5523 -1.3194
14366TIP3   OH264512   1.125   0.403   3.838 -0.0961 -0.2398  0.2472
14366TIP3    H164513   1.098   0.418   3.748 -2.7062 -2.7201  0.5522
14366TIP3    H264514   1.219   0.422   3.839 -0.5190  2.2704 -2.3732
14367TIP3   OH264515   5.683   4.963  12.130 -0.4721  0.0647 -0.2370
14367TIP3    H164516   5.727   5.048  12.123  0.4503 -0.6231 -3.5345
14367TIP3    H264517   5.737   4.914  12.192  0.4205  1.0291 -0.2275
14368TIP3   OH264518   0.230   6.250   1.475 -0.0411 -0.1047  0.5179
14368TIP3    H164519   0.177   6.282   1.402  0.9130 -0.0129 -0.1462
14368TIP3    H264520   0.205   6.304   1.550 -2.6423 -1.6271  0.8312
14369TIP3   OH264521   4.441   5.923   3.449  0.5746  0.5276 -0.0273
14369TIP3    H164522   4.531   5.893   3.459  0.4093  0.0767  0.1400
14369TIP3    H264523   4.419   5.959   3.535  1.6304  3.5516 -0.9588
14370TIP3   OH264524   2.905   0.174  16.287 -0.4062  0.2959  0.4189
14370TIP3    H164525   2.815   0.191  16.314 -0.8341 -0.8135 -0.2425
14370TIP3    H264526   2.932   0.097  16.338  0.0212  0.3835  0.3303
14371TIP3   OH264527   5.657   0.493  14.081  0.1248  0.2714 -0.0943
14371TIP3    H164528   5.598   0.564  14.108  1.2306  1.7018 -1.3511
14371TIP3    H264529   5.691   0.458  14.164 -0.8215  0.8380  0.5545
14372TIP3   OH264530   4.243   4.474  14.641  0.2529  0.1038  0.0349
14372TIP3    H164531   4.162   4.487  14.592  1.0024 -0.4118 -1.3800
14372TIP3    H264532   4.286   4.400  14.597  1.5505  0.4633  0.6678
14373TIP3   OH264533   3.507   4.418   3.588  0.2496  0.3066 -0.4081
14373TIP3    H164534   3.510   4.394   3.495 -0.6661 -1.0911 -0.0810
14373TIP3    H264535   3.594   4.395   3.621  0.6762  1.0692 -0.9618
14374TIP3   OH264536   3.743   6.178  13.426  0.7141 -0.2106 -0.0956
14374TIP3    H164537   3.670   6.179  13.488  0.0600  1.9067 -0.8533
14374TIP3    H264538   3.817   6.213  13.475  0.3014  1.0551 -0.3443
14375TIP3   OH264539   5.227   5.575   2.943  0.1143 -0.2876  0.6222
14375TIP3    H164540   5.240   5.617   3.028  2.5044  0.3434 -0.0098
14375TIP3    H264541   5.213   5.647   2.882 -3.5142 -0.8207  0.7400
14376TIP3   OH264542   0.196   4.391   3.435  0.3574 -0.4773  0.7563
14376TIP3    H164543   0.256   4.381   3.509  0.0590  0.4835  1.1413
14376TIP3    H264544   0.111   4.411   3.476  0.2623  0.3886  0.1488
14377TIP3   OH264545   1.111   3.425  12.798  0.4095  0.2124  0.0123
14377TIP3    H164546   1.055   3.354  12.830  2.4449  0.2624  3.9078
14377TIP3    H264547   1.049   3.493  12.770 -1.5133 -0.9908  1.2054
14378TIP3   OH264548   6.316   4.104  13.529  0.5572  0.0968  0.2707
14378TIP3    H164549   6.252   4.147  13.586  0.0703  0.9471 -0.9299
14378TIP3    H264550   6.336   4.168  13.461 -0.7661 -1.8051 -1.9771
14379TIP3   OH264551   3.404   3.372  12.273  0.3061 -0.3129  0.1280
14379TIP3    H164552   3.369   3.329  12.194  1.0002 -0.1853 -0.2472
14379TIP3    H264553   3.409   3.465  12.249  0.1361 -0.2166  0.4615
14380TIP3   OH264554   0.552   0.334  11.586  0.1225  0.1810 -0.2387
14380TIP3    H164555   0.474   0.380  11.556 -0.6186 -0.1244  1.2087
14380TIP3    H264556   0.580   0.283  11.510 -0.1538  1.5297 -1.2581
14381TIP3   OH264557   4.618   1.371   0.513 -0.3966 -0.1549 -0.7542
14381TIP3    H164558   4.640   1.403   0.600 -3.4432  0.4537 -0.1675
14381TIP3    H264559   4.672   1.425   0.454  1.3069 -0.2402  0.6808
14382TIP3   OH264560   0.037   4.291  16.277  0.2095  0.1387  0.3668
14382TIP3    H164561   0.004   4.277  16.188  0.7500  1.4928 -0.0571
14382TIP3    H264562   0.131   4.280  16.270  0.2307  0.0210  0.8219
14383TIP3   OH264563   6.098   0.186  12.182  0.2518  0.4560 -0.3613
14383TIP3    H164564   6.087   0.152  12.271 -0.9191  0.2427 -0.5785
14383TIP3    H264565   6.028   0.144  12.131  1.2029  0.2039 -1.4908
14384TIP3   OH264566   0.153   2.456   1.092 -0.2470  0.6617  0.2784
14384TIP3    H164567   0.227   2.507   1.059  0.7031  0.0549  1.4170
14384TIP3    H264568   0.121   2.506   1.167 -0.0643  0.1904  0.6720
14385TIP3   OH264569   4.221   2.365  15.697  0.0678  0.5307 -0.0595
14385TIP3    H164570   4.219   2.335  15.788 -0.5525  0.0139 -0.2405
14385TIP3    H264571   4.211   2.460  15.703 -2.0769  0.3123  0.3254
14386TIP3   OH264572   6.702   6.255   3.182 -0.0184 -0.2741 -0.1224
14386TIP3    H164573   6.670   6.328   3.233 -0.4141 -0.6087  0.1113
14386TIP3    H264574   6.782   6.287   3.141 -2.6406  1.9283 -3.8987
14387TIP3   OH264575   0.659   4.116  14.047 -0.2496  0.4579  0.6349
14387TIP3    H164576   0.733   4.071  14.006  0.4929  0.8856  1.4857
14387TIP3    H264577   0.595   4.047  14.064  0.8683 -0.2954  1.8945
14388TIP3   OH264578   3.128   5.834   5.394  0.4753  0.4578  0.4909
14388TIP3    H164579   3.112   5.757   5.338 -0.9641  0.0652  1.4314
14388TIP3    H264580   3.202   5.878   5.352  1.2361 -1.3653 -0.1412
14389TIP3   OH264581   0.346   0.803   5.558  0.7758  0.2564 -1.1046
14389TIP3    H164582   0.270   0.790   5.501  0.5154 -1.8974 -0.2911
14389TIP3    H264583   0.309   0.808   5.646  1.6786 -2.4483 -0.5280
14390TIP3   OH264584   2.631   4.971   1.789  0.0816 -0.0245 -0.4456
14390TIP3    H164585   2.571   4.908   1.829  0.4237  0.4576  0.8503
14390TIP3    H264586   2.717   4.930   1.794  0.1048 -0.0304 -0.8475
14391TIP3   OH264587   3.610   2.580   3.897 -0.3309 -0.1902 -0.2012
14391TIP3    H164588   3.568   2.650   3.846  0.4109  0.5889  0.2463
14391TIP3    H264589   3.538   2.521   3.919 -0.7618 -0.2182 -1.6214
14392TIP3   OH264590   0.004   5.650   1.125 -0.7587 -0.3982 -0.1663
14392TIP3    H164591  -0.067   5.601   1.083 -1.0357  0.0164 -0.1845
14392TIP3    H264592   0.004   5.735   1.080 -0.6375 -0.1863  0.2341
14393TIP3   OH264593   6.484   5.997  12.189 -0.7375 -0.1459  0.5704
14393TIP3    H164594   6.447   5.913  12.163  0.9961 -0.6278 -0.4428
14393TIP3    H264595   6.454   6.058  12.122 -0.5592 -0.3156  0.3352
14394TIP3   OH264596   5.832   2.479  11.581  0.4290  0.4123  0.3237
14394TIP3    H164597   5.861   2.530  11.505 -1.5073  3.7416  1.7054
14394TIP3    H264598   5.912   2.455  11.627  1.5002  0.1764 -1.6257
14395TIP3   OH264599   6.016   5.832  10.701 -0.4416 -0.5069  0.6135
14395TIP3    H164600   6.028   5.905  10.762 -1.5718 -0.2654  0.5460
14395TIP3    H264601   6.104   5.816  10.667 -0.0369  0.2632  1.2626
14396TIP3   OH264602   4.471   4.158   5.982 -0.4024 -0.3618  0.8713
14396TIP3    H164603   4.517   4.203   6.052  1.2130 -1.6778  0.6817
14396TIP3    H264604   4.529   4.086   5.957 -1.2657 -0.3531 -1.3190
14397TIP3   OH264605   0.317   1.458  15.685  0.2066  0.3502 -0.2523
14397TIP3    H164606   0.410   1.474  15.672  0.4145 -0.3999  0.2902
14397TIP3    H264607   0.274   1.529  15.638  1.0649  1.1842  0.2021
14398TIP3   OH264608   0.004   2.063  13.176  0.5602 -0.3030 -0.1205
14398TIP3    H164609  -0.037   2.103  13.253 -2.9492  0.1252 -2.1083
14398TIP3    H264610  -0.057   1.995  13.149  2.9943 -2.1910 -1.0771
14399TIP3   OH264611   1.625   3.999   1.189  0.4745 -0.2834  0.5128
14399TIP3    H164612   1.577   3.955   1.259 -0.5563 -0.8425 -0.5277
14399TIP3    H264613   1.673   3.929   1.146  1.5900  0.1539  1.0300
14400TIP3   OH264614   6.471   6.318   0.621  0.1206 -0.2636 -0.4123
14400TIP3    H164615   6.486   6.231   0.583 -1.3255 -1.9170  2.6582
14400TIP3    H264616   6.385   6.344   0.586 -1.2376 -1.8074  1.6629
14401TIP3   OH264617   4.632   3.041  14.152  0.1085  0.2324  0.2711
14401TIP3    H164618   4.690   3.052  14.227  0.9599  0.2846 -0.3777
14401TIP3    H264619   4.572   2.972  14.178  0.6063  0.0198  0.8801
14402TIP3   OH264620   2.965   0.866  14.446  0.0590 -0.0142  0.2022
14402TIP3    H164621   2.871   0.883  14.435  0.6348  2.8898 -0.5625
14402TIP3    H264622   2.996   0.845  14.358  0.4645  0.8871  0.1274
14403TIP3   OH264623   4.493   6.356   2.905 -0.1692 -0.8595  0.2553
14403TIP3    H164624   4.399   6.341   2.900 -0.3178 -0.4687  1.6744
14403TIP3    H264625   4.525   6.291   2.967  0.4964 -0.9672 -0.1945
14404TIP3   OH264626   1.547   1.842   3.316  0.0740 -0.2786 -0.1119
14404TIP3    H164627   1.499   1.847   3.399  1.9709 -2.8706  1.2389
14404TIP3    H264628   1.626   1.895   3.332  0.5217 -0.9219 -0.2048
14405TIP3   OH264629   4.239   0.365  11.263  0.3671 -0.2565  0.0393
14405TIP3    H164630   4.201   0.453  11.261  1.6605  0.2884 -0.8875
14405TIP3    H264631   4.241   0.337  11.172 -1.1094 -1.7351  0.4351
14406TIP3   OH264632   1.897   5.831   0.071 -0.0736  0.7572  0.0971
14406TIP3    H164633   1.961   5.838   0.142 -0.4442 -0.4444  0.5646
14406TIP3    H264634   1.896   5.738   0.049 -0.1992  1.0753 -1.2742
14407TIP3   OH264635   5.790   3.629  13.733  0.3239 -0.8180 -0.0151
14407TIP3    H164636   5.882   3.648  13.750  0.4241  0.6375 -1.9390
14407TIP3    H264637   5.742   3.691  13.786  0.5392  0.6320 -1.4742
14408TIP3   OH264638   4.485   0.793   5.464  0.0717  0.1286  0.0264
14408TIP3    H164639   4.505   0.765   5.554 -0.0116  0.0554  0.0227
14408TIP3    H264640   4.544   0.867   5.449 -0.0289  0.2463  0.2009
14409TIP3   OH264641   1.911   2.676  13.678  0.1703  0.5656 -0.6624
14409TIP3    H164642   1.902   2.695  13.584  0.5572  2.1643 -0.3871
14409TIP3    H264643   1.996   2.714  13.702  0.7166 -1.0707  0.0383
14410TIP3   OH264644   0.872   2.059  14.749 -0.0502 -0.3114 -0.2184
14410TIP3    H164645   0.962   2.072  14.780  0.2218  1.5001 -1.6961
14410TIP3    H264646   0.818   2.093  14.820  0.5443  2.3115 -0.9624
14411TIP3   OH264647   4.078   3.793  15.309  0.1647  0.0231 -0.1848
14411TIP3    H164648   4.113   3.716  15.355  0.0399 -1.2090 -2.0882
14411TIP3    H264649   3.992   3.764  15.277 -0.1079  1.1413 -0.4742
14412TIP3   OH264650   2.713   6.549  12.093  0.3513 -0.0780 -0.3349
14412TIP3    H164651   2.638   6.547  12.152  1.5343 -0.7763  1.1864
14412TIP3    H264652   2.774   6.486  12.130  1.3065 -0.2271 -2.0916
14413TIP3   OH264653   0.902   5.291   4.475  0.3606 -0.0233  0.4142
14413TIP3    H164654   0.897   5.204   4.514  0.6038 -1.1909 -2.0430
14413TIP3    H264655   0.943   5.345   4.542  0.2531 -1.8162  1.9703
14414TIP3   OH264656   6.165   3.899  14.558 -0.4013 -0.0382 -0.6349
14414TIP3    H164657   6.072   3.919  14.574 -0.5468 -2.0326  1.1762
14414TIP3    H264658   6.195   3.859  14.639  2.1271  0.7621 -1.1516
14415TIP3   OH264659   0.680   5.019  13.208 -0.3730 -0.6149  0.4478
14415TIP3    H164660   0.702   4.936  13.164 -0.1737 -0.2320 -0.1829
14415TIP3    H264661   0.762   5.068  13.208 -0.3791 -0.5993  1.2417
14416TIP3   OH264662   4.144   2.496  11.058  0.1515  0.0952 -0.2318
14416TIP3    H164663   4.172   2.510  11.148  0.4018 -1.1520 -0.1074
14416TIP3    H264664   4.189   2.564  11.008 -0.3178  1.0478  0.6360
14417TIP3   OH264665   1.734   0.639  15.238 -0.0497 -0.4887 -0.1979
14417TIP3    H164666   1.772   0.720  15.272  1.2290 -0.6688 -1.1884
14417TIP3    H264667   1.668   0.668  15.174 -0.5373 -0.2118  0.4244
14418TIP3   OH264668   5.770   6.269  12.926  0.1352 -0.2437  0.4825
14418TIP3    H164669   5.796   6.177  12.938  0.0028 -0.0987  1.9760
14418TIP3    H264670   5.675   6.269  12.939  0.0484  0.0148 -0.1307
14419TIP3   OH264671   5.279   5.250   3.716 -0.3598  0.6104 -0.2400
14419TIP3    H164672   5.224   5.328   3.721 -1.7455 -0.4071  0.8807
14419TIP3    H264673   5.354   5.270   3.770 -0.1785  1.5760 -0.8410
14420TIP3   OH264674   5.686   2.517   1.075 -0.0470 -0.1011  0.1595
14420TIP3    H164675   5.691   2.607   1.045 -0.1377 -0.9628 -2.5556
14420TIP3    H264676   5.778   2.489   1.085  0.0060 -0.3009 -0.8706
14421TIP3   OH264677   1.620   0.296  12.588  0.6690  0.4650  0.6751
14421TIP3    H164678   1.603   0.379  12.543 -0.9853 -0.5999 -0.7807
14421TIP3    H264679   1.646   0.236  12.518  2.4734 -0.0901  1.7988
14422TIP3   OH264680   6.655   1.002  16.047 -0.3567  0.3515  0.2934
14422TIP3    H164681   6.564   0.985  16.072 -0.2170 -1.7672 -0.5784
14422TIP3    H264682   6.671   0.943  15.974  1.7088  0.7938  0.3773
14423TIP3   OH264683   2.677   6.625  11.835  0.5825 -0.0846 -0.4932
14423TIP3    H164684   2.701   6.602  11.925 -0.7849 -3.3094 -0.8764
14423TIP3    H264685   2.586   6.654  11.841 -0.7484 -3.8503 -1.2631
14424TIP3   OH264686   3.823   5.223   5.173  0.4123  0.0072  0.0869
14424TIP3    H164687   3.907   5.191   5.141  0.6409  0.0185  0.6706
14424TIP3    H264688   3.765   5.219   5.097  0.0333 -3.2522  0.4909
14425TIP3   OH264689   5.890   2.617   4.274 -0.1234  0.0693  0.4446
14425TIP3    H164690   5.959   2.629   4.208  0.5219 -0.9700  0.9140
14425TIP3    H264691   5.924   2.658   4.353 -0.4072  0.2953  0.4505
14426TIP3   OH264692   4.134   3.562  16.937  0.9068 -0.2616 -0.0783
14426TIP3    H164693   4.161   3.521  16.855  2.9120 -2.2656  1.5254
14426TIP3    H264694   4.151   3.655  16.924  0.8048 -0.4967 -2.0627
14427TIP3   OH264695   6.474   6.066   5.806  0.0085 -0.3396 -0.0977
14427TIP3    H164696   6.379   6.078   5.816  0.1541 -0.0368  1.0549
14427TIP3    H264697   6.511   6.105   5.885  1.0618 -0.9138 -0.2982
14428TIP3   OH264698   5.859   1.938  12.264 -0.6215 -0.4581 -0.0286
14428TIP3    H164699   5.895   1.942  12.353 -1.6090 -1.2782  0.4139
14428TIP3    H264700   5.936   1.929  12.207 -0.0524 -0.9588  0.8129
14429TIP3   OH264701   3.584   2.707  14.669  0.1362  0.0953 -0.3548
14429TIP3    H164702   3.535   2.772  14.620 -0.6517 -0.3158 -0.1131
14429TIP3    H264703   3.553   2.623  14.637  0.6428 -0.1727 -0.1661
14430TIP3   OH264704   5.789   1.046  12.396 -0.6778  0.0661  0.1161
14430TIP3    H164705   5.825   0.970  12.351 -1.1690  0.0281 -0.2204
14430TIP3    H264706   5.853   1.067  12.464  1.2834  1.6367 -2.1579
14431TIP3   OH264707   4.528   1.067  11.669  0.2117 -0.3462 -0.8417
14431TIP3    H164708   4.550   1.045  11.759  0.1670 -1.1139 -1.0178
14431TIP3    H264709   4.598   1.029  11.617 -0.4562 -1.0634 -1.2365
14432TIP3   OH264710   0.854   1.246  14.173 -0.3387  0.0257 -0.1443
14432TIP3    H164711   0.781   1.286  14.125 -0.1409  0.5305 -0.0319
14432TIP3    H264712   0.894   1.186  14.110  0.0810  0.8836 -0.7113
14433TIP3   OH264713   1.292   0.816  16.540  0.5853  0.1733 -0.4253
14433TIP3    H164714   1.205   0.793  16.509 -0.4374  0.9560  1.7056
14433TIP3    H264715   1.340   0.843  16.462 -0.8709 -0.9038 -1.7080
14434TIP3   OH264716   1.802   2.173  14.856 -0.0771  0.5232  0.4877
14434TIP3    H164717   1.866   2.105  14.835 -0.3758  0.2168  0.5724
14434TIP3    H264718   1.855   2.251  14.872  0.5503 -0.5990  4.2438
14435TIP3   OH264719   1.722   0.048   2.758 -0.0029 -0.2250  0.0246
14435TIP3    H164720   1.699   0.055   2.850  0.2499 -0.7725  0.1335
14435TIP3    H264721   1.647   0.004   2.718 -0.9429  1.7200 -0.3842
14436TIP3   OH264722   1.983   1.430   1.342 -0.3889 -0.1506 -0.0077
14436TIP3    H164723   2.066   1.461   1.306 -0.2672 -0.6251 -0.1361
14436TIP3    H264724   1.996   1.433   1.437 -0.8489  1.4814  0.0172
14437TIP3   OH264725   5.551   1.606  15.957  0.6262 -0.0979 -0.5837
14437TIP3    H164726   5.575   1.587  16.048  1.4318  0.0042 -0.7729
14437TIP3    H264727   5.537   1.520  15.917  0.2689 -0.1431 -0.3696
14438TIP3   OH264728   5.337   6.248  13.389  0.2560  0.0653  0.5506
14438TIP3    H164729   5.420   6.253  13.435  0.8242  0.3392 -0.4993
14438TIP3    H264730   5.291   6.329  13.414 -0.0602 -0.4787  1.7935
14439TIP3   OH264731   4.573   1.344   4.032 -0.3670  0.2530  0.5504
14439TIP3    H164732   4.655   1.331   4.079 -1.0171 -0.6369  1.4829
14439TIP3    H264733   4.547   1.257   4.004 -1.3977  0.4082  0.9838
14440TIP3   OH264734   4.831   6.423  11.252 -0.0708  0.5524  0.5703
14440TIP3    H164735   4.856   6.488  11.186  2.0337  0.2088  0.9988
14440TIP3    H264736   4.865   6.459  11.334  0.3431 -0.6646  0.9392
14441TIP3   OH264737   1.519   2.036  16.207  0.2492 -0.0043 -0.4887
14441TIP3    H164738   1.573   2.069  16.278 -0.1861  2.3119 -1.1944
14441TIP3    H264739   1.543   1.944  16.199  2.2752  0.3865  0.8240
14442TIP3   OH264740   5.133   5.342  16.457 -0.2847  0.2046 -0.2840
14442TIP3    H164741   5.047   5.349  16.498 -0.0023 -0.9595  0.5186
14442TIP3    H264742   5.148   5.248  16.448  1.6502  0.3480  1.1895
14443TIP3   OH264743   3.214   4.949  16.586  0.0634 -0.5247 -0.2082
14443TIP3    H164744   3.187   4.881  16.525 -1.7318  0.5757 -0.6790
14443TIP3    H264745   3.291   4.990  16.545 -1.2311  0.3251 -1.8215
14444TIP3   OH264746   1.174   0.180   2.851 -0.3740 -0.1390  0.0133
14444TIP3    H164747   1.261   0.218   2.861 -1.0484  0.8628  2.4113
14444TIP3    H264748   1.151   0.198   2.760  0.9334  1.7742  0.0235
14445TIP3   OH264749   0.507   5.742   6.705 -0.0978 -0.0203 -0.1446
14445TIP3    H164750   0.527   5.712   6.616 -0.7250  1.4717 -0.7980
14445TIP3    H264751   0.592   5.771   6.740  0.0989 -0.3262 -0.3671
14446TIP3   OH264752   3.672   6.072   1.189 -0.0413  0.1351  0.7921
14446TIP3    H164753   3.602   6.039   1.245 -0.7018 -0.1927 -0.2015
14446TIP3    H264754   3.626   6.114   1.116  0.7544 -2.1120 -1.0711
14447TIP3   OH264755   0.521   0.410   1.839  0.0217 -0.3569 -0.6848
14447TIP3    H164756   0.480   0.409   1.753 -3.2906 -1.1524  0.8015
14447TIP3    H264757   0.557   0.498   1.848 -0.3475  0.0073 -2.5276
14448TIP3   OH264758   1.095   1.683   4.204 -0.2278 -0.4492 -0.0682
14448TIP3    H164759   1.026   1.697   4.269  1.4344  1.6906  1.2823
14448TIP3    H264760   1.155   1.622   4.245  0.0049 -0.3223 -0.2180
14449TIP3   OH264761   1.865   0.254   2.643 -0.0760  0.5720 -0.0098
14449TIP3    H164762   1.870   0.235   2.550  0.2734 -1.2913  0.3572
14449TIP3    H264763   1.802   0.190   2.677 -1.0169  1.9240  0.8701
14450TIP3   OH264764   4.277   3.277   5.607  0.1744  0.1189 -0.0606
14450TIP3    H164765   4.357   3.255   5.561  0.9434 -0.3314  1.4651
14450TIP3    H264766   4.207   3.263   5.543  1.3604  1.1074 -1.5829
14451TIP3   OH264767   2.237   6.763  16.211 -0.6850 -0.8587 -0.7242
14451TIP3    H164768   2.239   6.843  16.263 -0.5456  0.9074 -3.3390
14451TIP3    H264769   2.173   6.707  16.255 -1.7453  1.2056  0.4230
14452TIP3   OH264770   4.193   0.892  11.269  0.0728  0.3388  0.3454
14452TIP3    H164771   4.148   0.970  11.238 -1.2771  0.1957  1.8842
14452TIP3    H264772   4.149   0.869  11.351  1.1337 -1.4272  0.4606
14453TIP3   OH264773   6.351   4.375   2.321  0.0614  0.2998  0.0776
14453TIP3    H164774   6.338   4.458   2.275  1.0683  1.3113  1.5651
14453TIP3    H264775   6.446   4.369   2.333 -0.1396 -0.1707  1.5745
14454TIP3   OH264776   4.887   4.671   0.103  0.0986  0.5630  0.2081
14454TIP3    H164777   4.823   4.735   0.070  1.7471  1.5832 -1.0636
14454TIP3    H264778   4.903   4.699   0.193 -1.8913 -0.2155  0.8164
14455TIP3   OH264779   5.239   1.197   3.879 -0.1399  0.7453  0.3009
14455TIP3    H164780   5.147   1.222   3.877 -0.1298  0.6983 -1.3806
14455TIP3    H264781   5.287   1.280   3.881 -0.1851  0.7915 -0.6214
14456TIP3   OH264782   5.131   5.934   0.539 -0.1723 -0.0606 -0.1660
14456TIP3    H164783   5.199   5.890   0.489 -0.3813  0.6746 -1.1003
14456TIP3    H264784   5.049   5.903   0.501 -0.3286  0.5785 -0.3459
14457TIP3   OH264785   0.766   5.820  16.590  0.1017 -0.2625 -0.4409
14457TIP3    H164786   0.796   5.844  16.503  0.6953  1.1995  0.1324
14457TIP3    H264787   0.834   5.762  16.625  0.3603 -0.0391 -0.5771
14458TIP3   OH264788   6.496   6.736  14.980  0.6009  0.4860  0.3412
14458TIP3    H164789   6.445   6.788  14.917  2.0112  2.3008  0.6348
14458TIP3    H264790   6.448   6.743  15.062  0.4992  0.8929  0.2481
14459TIP3   OH264791   1.553   6.088   2.086 -0.4174  0.5094 -0.7150
14459TIP3    H164792   1.482   6.043   2.131  0.0024 -1.6398 -2.1459
14459TIP3    H264793   1.630   6.073   2.142 -0.6163  0.9231 -0.3232
14460TIP3   OH264794   6.428   5.047  10.618  0.1098  0.0331  0.2336
14460TIP3    H164795   6.339   5.067  10.647  0.4633  0.8101  0.7934
14460TIP3    H264796   6.460   4.982  10.681  0.2571  0.4156  0.5510
14461TIP3   OH264797   3.574   3.943  13.408 -0.1237  0.1960 -0.7858
14461TIP3    H164798   3.503   3.964  13.469  1.2106  0.3587  0.7466
14461TIP3    H264799   3.574   3.847  13.404 -0.6470  0.2033 -1.0716
14462TIP3   OH264800   6.660   2.599  11.530  0.1370  0.8900 -0.1381
14462TIP3    H164801   6.746   2.597  11.572 -0.0642 -0.4970  0.2360
14462TIP3    H264802   6.678   2.594  11.437  0.3810 -2.3598  0.0444
14463TIP3   OH264803   1.443   6.246  12.517 -0.2681  0.0913  0.2578
14463TIP3    H164804   1.512   6.310  12.504  0.0757 -0.3044  0.1037
14463TIP3    H264805   1.367   6.283  12.472  0.0222  0.2317 -0.1262
14464TIP3   OH264806   1.847   0.974  13.189  0.2343 -0.7651  0.2200
14464TIP3    H164807   1.802   0.943  13.110 -0.5998  0.7427  0.0893
14464TIP3    H264808   1.933   0.932  13.185  0.3235 -0.4736 -1.6540
14465TIP3   OH264809   2.101   3.130  10.329 -0.2938  0.0181 -0.0437
14465TIP3    H164810   2.061   3.061  10.382  0.7244  0.4601  1.3152
14465TIP3    H264811   2.048   3.208  10.345 -0.3091  0.0181 -0.0945
14466TIP3   OH264812   0.799   2.413   3.301  0.2623 -0.5054  1.0097
14466TIP3    H164813   0.784   2.440   3.391 -0.5871 -0.1056  0.7520
14466TIP3    H264814   0.719   2.368   3.275  0.4367 -0.4757  0.4011
14467TIP3   OH264815   4.459   0.370  14.557  0.4711 -0.3797  0.9360
14467TIP3    H164816   4.465   0.416  14.473  2.0216 -0.5763  0.9247
14467TIP3    H264817   4.396   0.421  14.607 -0.1332  0.0000 -0.1771
14468TIP3   OH264818   3.909   1.353  12.969  0.2167  0.5788 -0.1769
14468TIP3    H164819   3.840   1.287  12.958  0.8320 -0.0155 -0.4702
14468TIP3    H264820   3.879   1.427  12.916 -0.1564  0.2884 -0.3778
14469TIP3   OH264821   3.402   4.106  13.587 -0.1950 -0.0858 -0.9022
14469TIP3    H164822   3.374   4.172  13.650 -2.3277 -2.0201  0.2285
14469TIP3    H264823   3.465   4.052  13.634 -0.7486 -0.6904 -0.8444
14470TIP3   OH264824   0.448   3.918  12.319  0.8849 -0.0121  0.4908
14470TIP3    H164825   0.422   3.992  12.374  0.1213  0.2616 -0.2237
14470TIP3    H264826   0.467   3.848  12.380 -0.9722 -0.0346  1.0658
14471TIP3   OH264827   4.980   4.860   6.124 -0.1464  0.1204  0.4431
14471TIP3    H164828   4.949   4.881   6.212  0.4861 -0.0399  0.7021
14471TIP3    H264829   4.960   4.767   6.113  1.3941 -0.3105  1.1005
14472TIP3   OH264830   2.521   6.628   0.393  0.1834 -0.0377 -0.3728
14472TIP3    H164831   2.490   6.685   0.324  2.0195 -0.4586 -1.5766
14472TIP3    H264832   2.563   6.686   0.456  2.5180 -0.0613 -1.8525
14473TIP3   OH264833   4.839   3.615   2.678 -0.6406  0.6291 -0.7887
14473TIP3    H164834   4.910   3.619   2.741 -2.9767  1.3560  1.8714
14473TIP3    H264835   4.859   3.537   2.625  0.3896 -1.1131  2.0521
14474TIP3   OH264836   2.768   4.536   4.984  0.0223 -0.1186  0.3323
14474TIP3    H164837   2.722   4.557   4.902  0.9881  0.8884  0.0339
14474TIP3    H264838   2.832   4.469   4.959 -1.0843 -1.3268  0.6945
14475TIP3   OH264839   3.215   2.659  15.921 -0.5283 -0.2733  0.1504
14475TIP3    H164840   3.251   2.643  16.008  0.1414 -0.4929 -0.1601
14475TIP3    H264841   3.161   2.583  15.903 -0.0837 -0.5782  0.0828
14476TIP3   OH264842   0.344   3.158  13.894  0.1882  0.5391  0.6227
14476TIP3    H164843   0.277   3.091  13.884 -1.3170  2.3059 -1.5702
14476TIP3    H264844   0.377   3.172  13.805  0.2993  2.8577  1.0137
14477TIP3   OH264845   5.661   5.748   3.516 -0.2138 -0.1360 -0.0929
14477TIP3    H164846   5.755   5.763   3.526 -0.2228  0.1583 -0.4120
14477TIP3    H264847   5.643   5.670   3.568  0.1624 -0.0517  0.1659
14478TIP3   OH264848   2.290   6.698  11.234  0.1875  0.1285 -0.3235
14478TIP3    H164849   2.316   6.610  11.207 -0.4877  0.4566 -2.0700
14478TIP3    H264850   2.309   6.753  11.158  0.5663  1.4943  0.7395
14479TIP3   OH264851   6.247   0.283   2.145  0.0798 -0.1366 -0.4024
14479TIP3    H164852   6.234   0.351   2.211  2.7783  0.5121 -0.5101
14479TIP3    H264853   6.309   0.321   2.083  1.7802 -2.7480 -0.3521
14480TIP3   OH264854   3.613   3.841   5.893 -0.7066 -0.2812  0.9269
14480TIP3    H164855   3.570   3.924   5.871  1.2845  0.6510  0.4364
14480TIP3    H264856   3.639   3.806   5.808 -0.0452 -0.5827  1.2594
14481TIP3   OH264857   0.549   1.669  16.879 -0.1149  0.5632  0.1675
14481TIP3    H164858   0.480   1.710  16.826 -1.1186  0.0735  1.0949
14481TIP3    H264859   0.615   1.643  16.815  0.2066  2.9705 -0.5226
14482TIP3   OH264860   0.029   5.553  10.332  0.3577 -0.3915  0.6353
14482TIP3    H164861   0.074   5.472  10.359  0.8292 -1.1374 -2.1506
14482TIP3    H264862   0.085   5.588  10.262 -1.8426  0.2564 -0.8555
14483TIP3   OH264863   5.062   5.533  15.259  0.1984 -0.3021 -0.2561
14483TIP3    H164864   5.050   5.563  15.349 -0.3353 -1.0057 -0.0850
14483TIP3    H264865   4.973   5.520  15.226  0.3974 -0.2036 -0.8326
14484TIP3   OH264866   2.360   3.833   1.461 -0.0797  0.2209 -0.1849
14484TIP3    H164867   2.448   3.795   1.460  0.1043  0.5839  1.2274
14484TIP3    H264868   2.350   3.868   1.549 -1.9564 -0.5257 -0.0875
14485TIP3   OH264869   5.828   6.240   3.752 -0.4346 -0.1547 -0.7332
14485TIP3    H164870   5.875   6.187   3.688 -0.4554 -1.7031  0.5177
14485TIP3    H264871   5.747   6.192   3.768 -1.2235  1.1254 -0.8474
14486TIP3   OH264872   1.322   0.791   3.828  0.2876 -0.6022  0.6075
14486TIP3    H164873   1.309   0.746   3.912 -0.5379 -1.2376  0.1466
14486TIP3    H264874   1.243   0.845   3.819  1.7307  1.7525  1.6490
14487TIP3   OH264875   5.339   5.880   1.767  0.2566  0.4216  0.2150
14487TIP3    H164876   5.292   5.962   1.752  0.9900  1.6936  4.1847
14487TIP3    H264877   5.431   5.901   1.750  0.1426 -0.4310 -1.6193
14488TIP3   OH264878   5.713   5.517   1.712  0.1011 -0.1431  0.2223
14488TIP3    H164879   5.666   5.564   1.642 -0.0384 -1.5874 -0.6631
14488TIP3    H264880   5.767   5.585   1.753 -0.8469  1.0153 -0.3863
14489TIP3   OH264881   0.275   1.280  15.007  0.3840  0.6483 -0.0186
14489TIP3    H164882   0.335   1.345  15.043 -0.7822  0.7147  1.8717
14489TIP3    H264883   0.195   1.290  15.059 -1.0189  0.0564 -1.9856
14490TIP3   OH264884   6.762   6.742   5.909 -0.1551  0.3270  0.6853
14490TIP3    H164885   6.756   6.654   5.872 -1.3775  0.0556  1.4847
14490TIP3    H264886   6.852   6.769   5.892  0.2401 -1.0879  0.4347
14491TIP3   OH264887   6.472   3.221  16.328 -0.0251 -0.7267 -0.3569
14491TIP3    H164888   6.534   3.294  16.333 -1.4890  0.5087 -0.0612
14491TIP3    H264889   6.387   3.259  16.347 -1.2429 -1.9735 -2.9310
14492TIP3   OH264890   1.361   5.053  13.982  0.0464 -1.0437 -0.2496
14492TIP3    H164891   1.339   5.112  13.909  1.6479  0.0048  0.0885
14492TIP3    H264892   1.318   4.970  13.959 -2.7499  0.3764 -0.4464
14493TIP3   OH264893   1.225   2.795   2.365  0.0073  0.6942  0.6669
14493TIP3    H164894   1.159   2.736   2.328 -0.5137  2.4595 -1.3325
14493TIP3    H264895   1.302   2.782   2.309  0.0133  1.5928  0.4564
14494TIP3   OH264896   5.347   3.461  12.771  0.3812 -0.3200  0.0582
14494TIP3    H164897   5.410   3.526  12.741  0.0402 -1.0732 -2.4387
14494TIP3    H264898   5.274   3.467  12.709 -0.0136 -2.5320  0.2294
14495TIP3   OH264899   4.001   5.421  12.196 -0.1747 -0.4147  0.3449
14495TIP3    H164900   4.059   5.354  12.160  1.2391  0.1284  1.5326
14495TIP3    H264901   4.053   5.501  12.195 -0.4331 -0.1685  2.5381
14496TIP3   OH264902   2.732   0.784   6.003  0.4822  0.3936  0.0941
14496TIP3    H164903   2.802   0.774   6.067 -1.5990 -0.4198  2.3322
14496TIP3    H264904   2.738   0.706   5.948  1.1092  0.1639  0.4850
14497TIP3   OH264905   6.555   2.826  16.694 -0.0389  0.4785 -0.1776
14497TIP3    H164906   6.480   2.856  16.643  0.4474  1.8290 -0.1387
14497TIP3    H264907   6.536   2.735  16.713 -1.3587  0.6172 -0.7303
14498TIP3   OH264908   6.328   3.451  11.928 -0.2688  0.4683 -0.1480
14498TIP3    H164909   6.246   3.474  11.972 -0.5548 -2.0295  0.6772
14498TIP3    H264910   6.396   3.465  11.994 -0.3202 -0.0307  0.0094
14499TIP3   OH264911   4.397   2.397  11.664  0.0580 -0.1072  0.4905
14499TIP3    H164912   4.323   2.421  11.719  0.4831  1.8666  0.2406
14499TIP3    H264913   4.462   2.464  11.681  0.4350  0.1842 -1.9441
14500TIP3   OH264914   1.962   0.776  12.295 -0.2179  0.2295 -0.3553
14500TIP3    H164915   2.043   0.789  12.246 -1.4136  1.0763 -2.1606
14500TIP3    H264916   1.920   0.701  12.254 -1.4489  1.2263 -0.9486
14501TIP3   OH264917   0.594   6.203  11.701  0.2747 -0.8061  0.1954
14501TIP3    H164918   0.572   6.181  11.611 -0.2321 -0.9264  0.3425
14501TIP3    H264919   0.529   6.269  11.726 -0.6350 -1.9690  0.9947
14502TIP3   OH264920   1.298   4.699   3.060 -0.4431 -0.3157  0.1785
14502TIP3    H164921   1.330   4.612   3.037 -0.3475 -0.2195 -0.0622
14502TIP3    H264922   1.234   4.720   2.991  0.2565  0.2067 -0.3155
14503TIP3   OH264923   3.206   0.929  12.685  0.3904 -0.7321 -0.2542
14503TIP3    H164924   3.256   0.916  12.766  0.4022  0.5958 -0.0404
14503TIP3    H264925   3.249   1.002  12.641 -0.0420 -0.9988 -1.1329
14504TIP3   OH264926   4.105   2.461   4.689  0.7411 -0.1247  0.7856
14504TIP3    H164927   4.142   2.540   4.727 -0.8089  1.0632 -0.1218
14504TIP3    H264928   4.062   2.417   4.763  2.2916 -0.5461  1.4494
14505TIP3   OH264929   2.604   3.489   0.269 -0.0823 -0.1370  0.2364
14505TIP3    H164930   2.511   3.477   0.251  0.0853  0.7140 -1.2786
14505TIP3    H264931   2.610   3.495   0.364 -1.8943  2.2000  0.2370
14506TIP3   OH264932   1.853   5.054  16.449  0.1621 -0.1773  0.1307
14506TIP3    H164933   1.948   5.063  16.439 -0.2052  1.3874 -2.5577
14506TIP3    H264934   1.822   5.144  16.458 -1.1055 -0.6677  0.7755
14507TIP3   OH264935   1.195   4.778   2.565 -0.1924  0.0957  0.0702
14507TIP3    H164936   1.267   4.828   2.526 -0.9066  1.1788  0.0850
14507TIP3    H264937   1.177   4.708   2.503  1.5115 -0.7620  0.5427
14508TIP3   OH264938   1.083   2.403   1.589 -0.3420 -0.5616  0.0031
14508TIP3    H164939   1.019   2.352   1.637  0.4660 -0.2440  1.4364
14508TIP3    H264940   1.165   2.390   1.637  0.4577 -0.1751 -1.2368
14509TIP3   OH264941   5.491   3.504   4.621 -0.6789  0.2215 -0.3643
14509TIP3    H164942   5.454   3.429   4.668 -2.7807  0.5936 -1.3726
14509TIP3    H264943   5.466   3.580   4.673  1.5884  0.2456  0.7403
14510TIP3   OH264944   1.108   2.731   0.537 -0.1172 -0.1417  0.6613
14510TIP3    H164945   1.019   2.723   0.502  0.0087 -1.7376  0.6690
14510TIP3    H264946   1.145   2.806   0.490 -1.8759  1.3270  1.5762
14511TIP3   OH264947   4.233   0.757  17.043 -0.1218  0.2204 -0.7341
14511TIP3    H164948   4.209   0.833  17.096  1.8881  0.6786 -0.4175
14511TIP3    H264949   4.273   0.795  16.965  2.7425 -0.4766  0.3339
14512TIP3   OH264950   1.099   5.295   3.948 -0.1262  0.3406  0.3594
14512TIP3    H164951   1.018   5.301   3.897 -0.6725 -2.5171  0.8036
14512TIP3    H264952   1.073   5.322   4.036 -0.4005  0.1556  0.3353
14513TIP3   OH264953   4.087   3.311   0.234 -0.1987 -0.3972  0.3129
14513TIP3    H164954   4.112   3.254   0.161 -0.0651  0.7950 -0.5869
14513TIP3    H264955   4.160   3.303   0.296  0.5498 -0.0013 -0.5073
14514TIP3   OH264956   3.397   1.493   3.911 -0.2629  0.2999  0.1582
14514TIP3    H164957   3.302   1.492   3.918 -0.2300 -0.7010  0.4373
14514TIP3    H264958   3.426   1.415   3.958  0.6064 -0.2211 -1.2040
14515TIP3   OH264959   5.782   3.138  11.105  0.2362  0.2537  0.1447
14515TIP3    H164960   5.745   3.144  11.017  1.4465  0.2510 -0.3763
14515TIP3    H264961   5.772   3.046  11.128  1.0533 -0.0087 -0.5080
14516TIP3   OH264962   1.938   4.684   4.055 -0.3231 -0.1112 -0.6167
14516TIP3    H164963   1.952   4.630   3.977  3.1503  1.2224 -0.9917
14516TIP3    H264964   1.846   4.706   4.052 -1.1564 -3.3926 -2.1722
14517TIP3   OH264965   1.644   4.962   0.085 -0.1958  0.3674 -0.2047
14517TIP3    H164966   1.567   4.905   0.081 -0.0493  0.3136 -2.8398
14517TIP3    H264967   1.718   4.902   0.076  0.2072  0.4129  2.3781
14518TIP3   OH264968   5.243   6.475   0.159  0.1423 -0.4365  0.4206
14518TIP3    H164969   5.201   6.393   0.135  0.1329  0.1698 -1.7348
14518TIP3    H264970   5.302   6.495   0.086 -2.4634  3.2328 -0.8585
14519TIP3   OH264971   5.039   6.631   0.291  0.0918 -0.0579  0.1212
14519TIP3    H164972   4.990   6.549   0.287 -1.3447  0.7629  0.3897
14519TIP3    H264973   5.116   6.616   0.236 -1.9497 -0.3793 -2.7201
14520TIP3   OH264974   3.576   5.942  11.736  0.1448  0.0939  0.6814
14520TIP3    H164975   3.523   5.873  11.694 -1.0520 -0.0665  2.4143
14520TIP3    H264976   3.618   5.898  11.810  1.1941  0.6966  0.4565
14521TIP3   OH264977   3.297   5.002   3.262 -0.0392 -0.1799 -0.0154
14521TIP3    H164978   3.221   5.053   3.288  0.7327  1.0986 -0.2343
14521TIP3    H264979   3.285   4.985   3.169  0.6805  1.3356 -0.3973
14522TIP3   OH264980   3.403   1.464  16.527 -0.1099 -0.1037 -0.1964
14522TIP3    H164981   3.338   1.516  16.575 -1.6505  0.5841 -2.9284
14522TIP3    H264982   3.352   1.399  16.479  1.4113 -0.9497 -0.7048
14523TIP3   OH264983   4.476   5.582  14.458  0.4567  0.5957 -0.2312
14523TIP3    H164984   4.421   5.658  14.475 -0.0073  0.2477 -0.1612
14523TIP3    H264985   4.480   5.576  14.363 -0.1678  0.2326 -0.2350
14524TIP3   OH264986   2.978   4.177  12.015 -0.3764  0.1557 -0.1566
14524TIP3    H164987   2.914   4.162  12.084  2.6031 -0.4917  2.5801
14524TIP3    H264988   3.004   4.269  12.025 -0.5593  0.3104 -1.0031
14525TIP3   OH264989   3.113   1.849  11.594 -0.5720 -0.0984  0.7121
14525TIP3    H164990   3.071   1.778  11.643  2.5593 -1.6928  1.1487
14525TIP3    H264991   3.182   1.806  11.544  1.2990  2.6371  0.8845
14526TIP3   OH264992   5.377   3.716   4.756 -0.3510 -0.2690  0.3624
14526TIP3    H164993   5.356   3.785   4.694  0.7539 -1.1561 -1.0031
14526TIP3    H264994   5.292   3.690   4.792 -1.1847 -0.8346 -1.9348
14527TIP3   OH264995   3.451   2.444  17.011  0.3194 -0.7100  0.7132
14527TIP3    H164996   3.381   2.411  16.955  1.1823  1.3419 -1.6868
14527TIP3    H264997   3.531   2.427  16.961  1.1508  0.7251  1.5207
14528TIP3   OH264998   4.621   1.219   3.042 -0.2777 -0.3616 -0.0501
14528TIP3    H164999   4.707   1.253   3.018  0.0360 -1.4311 -0.4988
14528TIP3    H265000   4.561   1.261   2.981  0.2282 -1.3354 -1.2431
14529TIP3   OH265001   3.923   3.686  15.559  0.4039 -0.4850 -0.5090
14529TIP3    H165002   3.975   3.614  15.524 -1.0766 -0.7878 -2.2017
14529TIP3    H265003   3.986   3.757  15.574  1.4300 -1.1177 -1.7002
14530TIP3   OH265004   3.704   1.980   5.559  0.1665  0.0043  0.0635
14530TIP3    H165005   3.636   1.985   5.625  0.6619  0.1612  0.5690
14530TIP3    H265006   3.750   2.064   5.566  0.1900  0.0387 -0.5102
14531TIP3   OH265007   5.483   6.766  11.906 -0.2068 -0.2401 -0.5846
14531TIP3    H165008   5.515   6.809  11.827  1.5825  0.4668  0.4866
14531TIP3    H265009   5.468   6.838  11.968  0.0613 -0.9218  0.2776
14532TIP3   OH265010   3.048   2.331  11.231 -0.5881 -0.1381  0.2720
14532TIP3    H165011   2.966   2.316  11.185 -0.9547 -0.0962  0.9146
14532TIP3    H265012   3.086   2.408  11.189 -1.4948  0.6156  0.8347
14533TIP3   OH265013   4.974   1.301   3.865  0.2151  0.4535  0.1397
14533TIP3    H165014   4.951   1.394   3.875 -0.4739  0.3709 -0.6453
14533TIP3    H265015   4.951   1.281   3.774 -0.1996 -0.6490  0.4857
14534TIP3   OH265016   6.676   6.602  12.728  0.1651  0.5967 -0.6262
14534TIP3    H165017   6.709   6.676  12.778  0.5148 -0.3827  0.6248
14534TIP3    H265018   6.596   6.575  12.774  2.1909 -2.2944  1.3262
14535TIP3   OH265019   4.985   2.607  15.891  0.3266  0.6069  0.2102
14535TIP3    H165020   5.036   2.637  15.966  0.0482  2.8591 -0.4636
14535TIP3    H265021   5.033   2.530  15.859  1.1990  0.4440  1.8493
14536TIP3   OH265022   0.970   1.787  17.213  0.0040  0.7746 -0.3276
14536TIP3    H165023   1.002   1.850  17.148  1.0138  0.2390 -0.3590
14536TIP3    H265024   1.042   1.725  17.224  0.2141  1.3749  1.9827
14537TIP3   OH265025   4.353   5.444  12.604 -0.3474  0.1335 -0.1252
14537TIP3    H165026   4.276   5.492  12.634  0.5017  1.3342  0.1707
14537TIP3    H265027   4.419   5.461  12.672  1.0323  1.3871 -1.7281
14538TIP3   OH265028   3.982   3.240  15.035  0.8665  0.1036  0.2068
14538TIP3    H165029   3.932   3.312  14.996  1.7550  0.4085 -0.3847
14538TIP3    H265030   4.046   3.216  14.967  2.1106  0.3242  1.2939
14539TIP3   OH265031   6.722   0.605  15.914 -0.4006 -0.5752 -0.0253
14539TIP3    H165032   6.652   0.579  15.974  0.0293  0.0466  0.7605
14539TIP3    H265033   6.729   0.700  15.925  0.0442 -0.5284 -0.6754
14540TIP3   OH265034   4.489   0.765   0.653 -0.0426  0.1212 -0.0365
14540TIP3    H165035   4.475   0.684   0.605 -0.6883  0.2242 -0.0177
14540TIP3    H265036   4.527   0.825   0.588 -2.5193  0.8207 -0.8983
14541TIP3   OH265037   5.296   6.562   4.404 -0.8469 -0.7219  0.2895
14541TIP3    H165038   5.234   6.584   4.474 -0.1196  1.6724  0.2345
14541TIP3    H265039   5.250   6.589   4.324 -0.4775 -0.6754  0.0954
14542TIP3   OH265040   0.727   6.309  14.801  0.3750 -0.3891  0.5741
14542TIP3    H165041   0.706   6.281  14.712  1.0179 -0.6745  0.5128
14542TIP3    H265042   0.642   6.331  14.840  0.0684 -0.5163 -0.0216
14543TIP3   OH265043   0.540   0.920   3.496  0.4303  0.0203 -0.1820
14543TIP3    H165044   0.579   0.958   3.417 -0.5154  1.6202  0.0926
14543TIP3    H265045   0.469   0.980   3.519  0.5574 -0.5365  1.7650
14544TIP3   OH265046   3.096   4.859   0.783 -0.0879 -0.1026  0.0420
14544TIP3    H165047   3.113   4.828   0.694  0.1973  0.8072 -0.2241
14544TIP3    H265048   3.116   4.783   0.838 -1.4782 -1.0714 -0.7451
14545TIP3   OH265049   1.291   0.586   1.079 -0.3224  0.6471 -0.0167
14545TIP3    H165050   1.245   0.537   1.011 -1.4186  1.3099  0.2447
14545TIP3    H265051   1.290   0.676   1.049  1.3684  0.5922 -0.3138
14546TIP3   OH265052   2.419   2.968   5.157 -0.2382  0.4887 -0.3779
14546TIP3    H165053   2.487   2.999   5.097  0.4537  0.9439  0.6428
14546TIP3    H265054   2.351   3.036   5.153 -0.5125  0.1772 -1.1718
14547TIP3   OH265055   5.479   3.515   0.229  0.0759  0.0309 -0.2735
14547TIP3    H165056   5.428   3.539   0.307  2.2553 -0.5352  1.3764
14547TIP3    H265057   5.413   3.495   0.163 -1.8584 -0.5906  1.7648
14548TIP3   OH265058   0.767   5.093   0.954 -0.4662 -0.2524 -0.4030
14548TIP3    H165059   0.732   5.152   0.887  1.6818 -1.7627 -2.9786
14548TIP3    H265060   0.814   5.150   1.014 -1.4566  1.0255 -0.8037
14549TIP3   OH265061   0.464   0.216  12.966 -0.0059  0.3015 -0.1877
14549TIP3    H165062   0.384   0.179  13.003 -0.9481  1.7493 -0.7228
14549TIP3    H265063   0.502   0.267  13.037 -0.0695  0.4168 -0.2386
14550TIP3   OH265064   2.860   1.360  14.720 -0.2868  0.2975 -0.5237
14550TIP3    H165065   2.890   1.338  14.808 -3.4188  1.8601  1.0320
14550TIP3    H265066   2.814   1.281  14.690 -0.0579  0.1117 -0.3884
14551TIP3   OH265067   5.587   0.783  16.093  0.3774  0.5544 -0.0613
14551TIP3    H165068   5.656   0.755  16.153  1.4003  0.2391 -1.3504
14551TIP3    H265069   5.576   0.876  16.110 -0.8905  0.0161  2.1376
14552TIP3   OH265070   2.889   0.834  10.536  0.1654 -0.1241  1.0522
14552TIP3    H165071   2.802   0.875  10.542  0.5981  0.9956 -0.0067
14552TIP3    H265072   2.947   0.893  10.583  0.7256  0.2856 -0.1238
14553TIP3   OH265073   5.541   0.598   0.446 -0.4140 -0.2066 -0.5694
14553TIP3    H165074   5.547   0.555   0.361  0.7477  1.4491 -1.3560
14553TIP3    H265075   5.616   0.563   0.496  0.2047  0.4774 -1.0123
14554TIP3   OH265076   4.124   4.739  11.445  0.4357 -0.1032  0.0436
14554TIP3    H165077   4.072   4.663  11.469  1.9352 -0.6642  1.6671
14554TIP3    H265078   4.180   4.709  11.373 -0.7845  0.2224 -1.0516
14555TIP3   OH265079   6.204   3.544  13.170 -0.6217  0.3147  0.1508
14555TIP3    H165080   6.119   3.537  13.214 -1.2388  0.7895 -0.9449
14555TIP3    H265081   6.200   3.627  13.123  1.2203  1.3031  1.6610
14556TIP3   OH265082   3.754   3.264  10.927  0.4611  0.8712  0.3541
14556TIP3    H165083   3.689   3.329  10.901 -0.5983  0.3164  1.5800
14556TIP3    H265084   3.784   3.227  10.844 -1.8623  0.1163 -0.2035
14557TIP3   OH265085   0.020   1.270   5.779 -0.1509 -0.4575 -0.3663
14557TIP3    H165086  -0.024   1.317   5.849 -0.5522 -0.1772 -0.8110
14557TIP3    H265087   0.073   1.204   5.825  1.7470  1.5202  0.3538
14558TIP3   OH265088   3.007   3.980  16.631 -0.1201  0.5985 -0.2200
14558TIP3    H165089   3.007   3.884  16.627  0.4878  0.5263  1.0719
14558TIP3    H265090   2.918   4.003  16.655  0.4046  0.1627  2.3838
14559TIP3   OH265091   0.367   1.359   1.624  0.2762 -0.2724  0.0906
14559TIP3    H165092   0.448   1.352   1.675 -0.6461 -1.7452  1.3900
14559TIP3    H265093   0.362   1.451   1.600  2.0725 -0.0645  0.4592
14560TIP3   OH265094   3.032   6.246   1.078 -0.0851  0.0655 -0.0567
14560TIP3    H165095   3.029   6.275   0.987 -0.1080  2.0916  0.5737
14560TIP3    H265096   3.038   6.150   1.073  0.4768  0.2038 -2.1859
14561TIP3   OH265097   0.769   2.872  16.490 -0.7071 -0.3211  0.3971
14561TIP3    H165098   0.786   2.792  16.538  1.5313  0.0290  0.2231
14561TIP3    H265099   0.708   2.846  16.421 -0.4063 -1.7589  0.6574
14562TIP3   OH265100   2.066   4.461   3.470 -0.0116 -0.1895  0.1510
14562TIP3    H165101   2.136   4.472   3.534  0.4488  2.1515 -0.7049
14562TIP3    H265102   2.111   4.450   3.386 -0.6210  1.4711 -0.4270
14563TIP3   OH265103   4.349   4.705  13.862 -0.8063  0.0850 -0.1972
14563TIP3    H165104   4.351   4.706  13.766 -0.8891  2.2228 -0.1939
14563TIP3    H265105   4.273   4.650  13.883 -0.0477 -1.4524 -1.3090
14564TIP3   OH265106   6.167   6.731  15.462  0.4451 -0.0768 -0.3552
14564TIP3    H165107   6.076   6.742  15.437 -0.1517 -2.2639  0.7092
14564TIP3    H265108   6.176   6.778  15.544  0.5334  0.9584 -0.9528
14565TIP3   OH265109   1.693   0.985  14.829  0.2826 -0.9915 -0.3846
14565TIP3    H165110   1.722   0.904  14.788 -1.4977 -3.4061  2.8829
14565TIP3    H265111   1.750   0.995  14.906 -1.0791 -0.5236  0.5918
14566TIP3   OH265112   3.588   6.508  17.160  0.8872  0.0775  0.2831
14566TIP3    H165113   3.612   6.588  17.112  3.0660  0.1703  1.4816
14566TIP3    H265114   3.549   6.452  17.093  0.3731  1.6834 -0.8106
14567TIP3   OH265115   5.738   5.861   3.904 -0.0528 -0.1065  0.0988
14567TIP3    H165116   5.706   5.935   3.853 -2.7407 -1.8780 -0.9114
14567TIP3    H265117   5.830   5.852   3.879  0.3822  3.0244  0.4593
14568TIP3   OH265118   3.052   5.606  14.685 -0.0283 -0.1786 -0.1765
14568TIP3    H165119   3.015   5.533  14.736  1.6348 -0.5953  0.4779
14568TIP3    H265120   3.006   5.683  14.716 -1.7926 -0.9411 -0.8481
14569TIP3   OH265121   4.166   5.941  11.486  0.0674 -0.1225  0.0208
14569TIP3    H165122   4.224   5.903  11.420  1.2350  1.9107 -0.1767
14569TIP3    H265123   4.145   6.028  11.452 -0.0066  0.6246  1.8985
14570TIP3   OH265124   1.267   5.884   4.265  0.1694 -0.4718  0.7715
14570TIP3    H165125   1.222   5.943   4.327  2.1008  0.4884  1.3059
14570TIP3    H265126   1.314   5.822   4.321  0.3048 -0.8527  0.2347
14571TIP3   OH265127   5.236   3.771  14.958 -0.3300 -0.1095  0.5402
14571TIP3    H165128   5.241   3.786  15.053 -1.3969 -2.8983  1.0868
14571TIP3    H265129   5.181   3.693  14.949 -0.8097  0.5151 -2.4317
14572TIP3   OH265130   1.128   3.659   2.705  0.1404 -0.1884  0.1850
14572TIP3    H165131   1.102   3.587   2.763  1.1225 -0.8036 -0.1312
14572TIP3    H265132   1.047   3.708   2.689 -0.4739 -1.0602  0.6290
14573TIP3   OH265133   2.726   1.316   5.487 -0.3437  0.1267  0.9922
14573TIP3    H165134   2.724   1.378   5.413  0.0741 -1.0081  0.0222
14573TIP3    H265135   2.711   1.231   5.447  1.0329 -0.6363  2.0918
14574TIP3   OH265136   0.705   4.429  15.983  0.2691 -0.3646  0.3759
14574TIP3    H165137   0.703   4.341  15.946 -0.4662  0.2098 -0.9794
14574TIP3    H265138   0.665   4.484  15.916 -0.0166  0.8800  1.5523
14575TIP3   OH265139   4.809   5.748  15.625  0.5784 -0.9408 -0.0584
14575TIP3    H165140   4.718   5.720  15.618  0.2497 -0.1485  0.9657
14575TIP3    H265141   4.852   5.678  15.675  0.1130 -0.3993  1.1095
14576TIP3   OH265142   6.071   4.812   4.325  0.1035 -0.6796  0.2319
14576TIP3    H165143   6.039   4.898   4.297  0.7964  0.0228  1.5460
14576TIP3    H265144   6.126   4.831   4.401  0.3882 -2.2785  0.4346
14577TIP3   OH265145   5.499   1.562  13.267  0.8552  0.0201  0.2174
14577TIP3    H165146   5.503   1.466  13.274  0.4492  0.0045  0.2083
14577TIP3    H265147   5.459   1.590  13.349 -1.4537  0.0123 -0.8788
14578TIP3   OH265148   1.665   2.543  17.128 -0.0805  0.2083 -0.4892
14578TIP3    H165149   1.620   2.489  17.063  0.1255  0.1584 -0.5909
14578TIP3    H265150   1.610   2.620  17.138 -1.3962 -0.9059  1.0951
14579TIP3   OH265151   4.659   4.365  12.166 -0.1338  0.6844 -0.1035
14579TIP3    H165152   4.583   4.320  12.204  0.6828  0.1600  0.9429
14579TIP3    H265153   4.735   4.319  12.203  0.6948  0.4162 -2.1054
14580TIP3   OH265154   6.528   3.799  15.522 -0.9142  0.4518  0.3325
14580TIP3    H165155   6.476   3.750  15.459 -1.7324  0.6667  0.8294
14580TIP3    H265156   6.489   3.887  15.523  0.2173  0.9749 -0.1882
14581TIP3   OH265157   5.895   0.247  13.722 -0.5988  0.2338  0.0186
14581TIP3    H165158   5.840   0.170  13.731 -0.9267  0.4642 -0.0265
14581TIP3    H265159   5.926   0.265  13.811 -1.6795  0.9067  0.2684
14582TIP3   OH265160   6.764   4.447   3.597 -0.1724  0.0655  0.1354
14582TIP3    H165161   6.758   4.510   3.669  1.1465 -0.1927  0.4731
14582TIP3    H265162   6.684   4.462   3.546 -0.3221  1.3544  0.7344
14583TIP3   OH265163   5.198   0.287  14.304  0.6134 -0.2131 -0.8179
14583TIP3    H165164   5.156   0.372  14.290  0.6629 -0.1956 -0.8616
14583TIP3    H265165   5.288   0.309  14.328  0.1879 -0.2085  0.7757
14584TIP3   OH265166   1.401   3.663   5.016 -0.1201 -0.6268  0.0455
14584TIP3    H165167   1.352   3.713   5.082  1.0170  0.8645 -0.2158
14584TIP3    H265168   1.490   3.657   5.051  0.4646  0.0843 -1.2803
14585TIP3   OH265169   0.987   6.199   0.594 -0.5047 -0.1662 -0.4919
14585TIP3    H165170   1.064   6.257   0.592 -1.0566  0.7138  2.1676
14585TIP3    H265171   1.016   6.124   0.645 -1.3345  0.0298  0.2570
14586TIP3   OH265172   3.378   4.755   4.296  0.3556 -0.1045 -0.4791
14586TIP3    H165173   3.286   4.772   4.279  0.4267 -1.1176 -1.9640
14586TIP3    H265174   3.425   4.828   4.256  0.1923  0.6558  0.6809
14587TIP3   OH265175   4.463   2.766   3.032  0.3658  0.6716  0.2776
14587TIP3    H165176   4.386   2.822   3.023 -1.2034 -1.1793  1.6661
14587TIP3    H265177   4.530   2.822   3.071 -0.3546  2.2295 -0.6802
14588TIP3   OH265178   6.279   4.783  13.598 -0.5051  0.2337 -0.1990
14588TIP3    H165179   6.306   4.691  13.606 -0.9132  0.1813  0.6402
14588TIP3    H265180   6.358   4.833  13.619  0.5908  0.0986 -3.7343
14589TIP3   OH265181   3.559   0.436  16.537  0.0453  0.0104  0.1669
14589TIP3    H165182   3.550   0.446  16.632 -1.5647  2.4567 -0.1844
14589TIP3    H265183   3.597   0.519  16.508  0.1920 -0.5755 -1.3682
14590TIP3   OH265184   0.743   4.589   0.202 -0.1541 -0.1678 -0.2642
14590TIP3    H165185   0.746   4.639   0.120  1.7914 -1.6564 -1.1505
14590TIP3    H265186   0.685   4.515   0.183 -1.3128  0.5760  0.3565
14591TIP3   OH265187   0.187   1.968  15.694  0.3141  0.0784  0.5925
14591TIP3    H165188   0.094   1.990  15.697 -0.4483 -2.9706  0.5244
14591TIP3    H265189   0.221   2.021  15.622 -1.6830  0.0935 -0.3813
14592TIP3   OH265190   3.924   6.216  16.695 -0.2606  0.5409 -0.0622
14592TIP3    H165191   3.846   6.247  16.741 -0.3026  0.7578 -0.2826
14592TIP3    H265192   3.939   6.280  16.626 -0.0264  0.3714 -0.1700
14593TIP3   OH265193   6.348   2.896  16.236  0.2193  1.1228 -0.4619
14593TIP3    H165194   6.399   2.844  16.174  0.2041  2.1302 -1.3352
14593TIP3    H265195   6.403   2.902  16.314 -0.1138 -0.8632 -0.0417
14594TIP3   OH265196   3.243   5.230  16.711  0.1336 -0.6917  0.2338
14594TIP3    H165197   3.233   5.138  16.688  0.9742  0.0538 -3.4767
14594TIP3    H265198   3.335   5.250  16.693  0.3387  0.5340  2.4263
14595TIP3   OH265199   5.923   3.679  14.692 -0.4141 -0.4176  0.1474
14595TIP3    H165200   5.829   3.696  14.685 -0.8631 -2.4494  0.9019
14595TIP3    H265201   5.953   3.667  14.602 -0.9586 -0.1276 -0.0706
14596TIP3   OH265202   5.657   3.138  15.353 -0.1395  0.3390 -0.1986
14596TIP3    H165203   5.669   3.143  15.448  0.1571  0.9429 -0.2641
14596TIP3    H265204   5.657   3.045  15.333 -0.0554  0.2143  0.3769
14597TIP3   OH265205   3.571   0.783  16.780  0.3758 -0.9067  0.5859
14597TIP3    H165206   3.606   0.825  16.702  0.1851  0.4649  1.2151
14597TIP3    H265207   3.479   0.766  16.760 -0.0182  0.6921  1.0005
14598TIP3   OH265208   6.607   4.706  14.399 -0.3917 -0.0606  0.5045
14598TIP3    H165209   6.689   4.667  14.368  0.8249  0.1597  3.3183
14598TIP3    H265210   6.588   4.775  14.336  0.6400 -1.2452 -1.1541
14599TIP3   OH265211   5.585   2.959   4.660  0.1034 -0.1687  0.0784
14599TIP3    H165212   5.667   2.934   4.617  0.4316 -0.0622  0.6346
14599TIP3    H265213   5.533   2.998   4.591  0.6663  0.0947 -0.2014
14600TIP3   OH265214   1.475   4.741   2.729  0.0098  0.0779  0.3824
14600TIP3    H165215   1.453   4.648   2.726 -1.1640  0.3606  0.1074
14600TIP3    H265216   1.565   4.743   2.763  0.0601 -1.1524  0.3442
14601TIP3   OH265217   1.037   3.400   2.388  0.9528  0.0669  0.4833
14601TIP3    H165218   1.003   3.326   2.440  0.1474 -0.2013 -0.4156
14601TIP3    H265219   1.122   3.420   2.428  0.4216 -0.2360  1.8171
14602TIP3   OH265220   0.861   2.340   4.529 -0.1700  0.1534  0.6344
14602TIP3    H165221   0.789   2.317   4.470  0.5574 -1.2660  0.2619
14602TIP3    H265222   0.919   2.395   4.476 -1.4568  2.0969  1.2349
14603TIP3   OH265223   0.487   0.175   1.064  0.1268 -0.4534  0.0345
14603TIP3    H165224   0.454   0.210   0.981  1.6149  0.1434 -0.3231
14603TIP3    H265225   0.418   0.116   1.094 -1.4495  1.0663 -0.4793
14604TIP3   OH265226   2.271   5.349  11.130 -0.8632 -0.0025  0.7495
14604TIP3    H165227   2.311   5.265  11.153 -1.3628 -0.2981  0.5440
14604TIP3    H265228   2.258   5.345  11.035 -0.6378  0.4172  0.6996
14605TIP3   OH265229   1.653   0.538   3.768 -0.6472 -0.1009 -0.0998
14605TIP3    H165230   1.697   0.455   3.788  0.2744  0.6992  1.2965
14605TIP3    H265231   1.689   0.565   3.683  0.4858 -0.1812  0.3460
14606TIP3   OH265232   4.540   2.659   2.124 -0.4569 -0.5156  0.0943
14606TIP3    H165233   4.538   2.577   2.174 -0.6905  0.6320  1.9884
14606TIP3    H265234   4.453   2.666   2.085 -0.9407 -0.3904  1.1968
14607TIP3   OH265235   3.828   1.254   6.136 -0.2903 -0.4843  0.2871
14607TIP3    H165236   3.891   1.316   6.100 -1.6697  1.1212  0.5648
14607TIP3    H265237   3.871   1.218   6.214  1.5087 -1.7535 -1.2501
14608TIP3   OH265238   5.043   5.858   3.311 -0.1921  0.4092 -0.3409
14608TIP3    H165239   4.978   5.924   3.290  0.1948  1.1011  0.5938
14608TIP3    H265240   5.123   5.908   3.330  0.7604 -0.4437 -1.9539
14609TIP3   OH265241   2.141   0.157  16.007  0.4431 -0.2937  0.0779
14609TIP3    H165242   2.165   0.085  16.066 -0.5633 -0.4931  0.2565
14609TIP3    H265243   2.075   0.207  16.055 -0.9684 -0.9081 -1.1679
14610TIP3   OH265244   5.094   3.686   4.357 -0.6882  0.5249 -0.5664
14610TIP3    H165245   5.029   3.750   4.328 -1.1385  0.6800  0.7335
14610TIP3    H265246   5.087   3.687   4.452  1.0744  0.3811 -0.4231
14611TIP3   OH265247   2.354   2.147   1.968 -0.0972  0.1547  0.3977
14611TIP3    H165248   2.377   2.149   2.061 -0.3336 -2.6553  0.5712
14611TIP3    H265249   2.263   2.118   1.966  0.3445 -1.2362 -0.7319
14612TIP3   OH265250   0.278   3.489   4.248 -0.3594 -0.0393  0.7577
14612TIP3    H165251   0.223   3.475   4.171  0.8440  1.6551 -0.4431
14612TIP3    H265252   0.219   3.477   4.322 -1.6684 -1.1368 -0.4317
14613TIP3   OH265253   6.241   2.095   5.484 -0.0878  0.3519  0.3333
14613TIP3    H165254   6.273   2.031   5.420 -1.5456  0.5400 -0.6257
14613TIP3    H265255   6.306   2.094   5.554 -0.2136 -2.3539  0.4606
14614TIP3   OH265256   1.316   0.733   4.334  0.3091 -0.0340 -0.5186
14614TIP3    H165257   1.327   0.781   4.415 -0.1137 -0.2530 -0.3288
14614TIP3    H265258   1.367   0.653   4.346  0.9022  0.3025 -0.7820
14615TIP3   OH265259   3.313   0.807  11.555  0.0325  0.0636 -0.5201
14615TIP3    H165260   3.362   0.742  11.605  0.9099 -0.5153 -2.0985
14615TIP3    H265261   3.222   0.779  11.562 -0.0559  0.9158  2.0929
14616TIP3   OH265262   0.363   2.969   3.033  0.0663 -0.0920  0.1444
14616TIP3    H165263   0.297   2.913   3.075 -0.9862  1.1622  0.1917
14616TIP3    H265264   0.441   2.914   3.029 -0.9470 -1.5750  0.1733
14617TIP3   OH265265   3.288   3.120  17.150  0.2376  0.2943  0.0452
14617TIP3    H165266   3.201   3.145  17.120 -0.4260  1.0709  2.5684
14617TIP3    H265267   3.274   3.043  17.204  0.7322  2.0555  2.7613
14618TIP3   OH265268   4.823   2.557  11.450  0.6211 -0.1444  0.1068
14618TIP3    H165269   4.732   2.536  11.471  0.1053  1.0049 -0.8868
14618TIP3    H265270   4.853   2.612  11.522  0.0588  0.6567 -0.2548
14619TIP3   OH265271   3.777   5.827   1.256 -0.2752 -0.5722 -0.3227
14619TIP3    H165272   3.735   5.908   1.225  0.9279  0.1089 -0.1797
14619TIP3    H265273   3.870   5.847   1.256 -0.1223 -1.1746  2.0117
14620TIP3   OH265274   5.167   4.254   0.349 -0.1254  0.1003 -0.1004
14620TIP3    H165275   5.135   4.178   0.300 -2.0822 -0.4392  1.9637
14620TIP3    H265276   5.180   4.222   0.438 -0.2166  1.9946  0.6227
14621TIP3   OH265277   2.424   1.478  16.392 -0.4466 -0.2502 -0.2440
14621TIP3    H165278   2.505   1.494  16.440 -1.2276  4.7353 -0.3173
14621TIP3    H265279   2.452   1.473  16.300 -0.0381 -0.1572 -0.1250
14622TIP3   OH265280   4.644   2.150   1.503  0.1102 -0.3867 -0.0655
14622TIP3    H165281   4.726   2.108   1.476  0.2261 -0.1337 -0.1055
14622TIP3    H265282   4.662   2.244   1.498  0.3926 -0.3351  1.6537
14623TIP3   OH265283   6.445   4.237  13.313  0.2238  0.2882 -0.3000
14623TIP3    H165284   6.382   4.300  13.278  0.8785  0.2356 -1.5804
14623TIP3    H265285   6.527   4.287  13.320  0.4489 -0.0988 -0.1980
14624TIP3   OH265286   0.380   2.422   0.416  0.6784  0.1472  0.2031
14624TIP3    H165287   0.417   2.510   0.420  2.2290 -0.4976  0.2969
14624TIP3    H265288   0.373   2.404   0.322  1.0181  0.0930  0.1889
14625TIP3   OH265289   1.873   2.968   0.221 -0.3685 -0.1928 -0.2993
14625TIP3    H165290   1.933   2.929   0.286  0.7017 -1.2547 -1.8888
14625TIP3    H265291   1.786   2.937   0.248  0.1759 -1.4537  0.0613
14626TIP3   OH265292   3.378   0.652  11.895  0.6025  0.0809 -0.1831
14626TIP3    H165293   3.435   0.719  11.855 -0.7968  1.2772 -0.2025
14626TIP3    H265294   3.416   0.639  11.982  0.2074  1.7758  0.2686
14627TIP3   OH265295   6.349   3.378   0.692 -0.0371  0.0809 -0.0343
14627TIP3    H165296   6.262   3.351   0.662  0.4381 -1.4271 -0.0883
14627TIP3    H265297   6.383   3.302   0.737  1.5396  0.4504 -0.5794
14628TIP3   OH265298   2.687   3.378   5.977  0.0629  0.4010 -0.0331
14628TIP3    H165299   2.652   3.293   5.948 -1.5938  0.7927  0.7233
14628TIP3    H265300   2.652   3.389   6.065 -0.1700  2.1099 -0.3180
14629TIP3   OH265301   6.697   4.350  17.098  0.3872 -0.0276 -0.0473
14629TIP3    H165302   6.656   4.378  17.180 -1.7225  0.7047 -1.3107
14629TIP3    H265303   6.778   4.401  17.093  0.2359  0.3514  1.3014
14630TIP3   OH265304   2.094   4.412  15.267  0.0766  0.5070  0.6376
14630TIP3    H165305   2.094   4.351  15.193  1.1405  0.2701  0.8274
14630TIP3    H265306   2.116   4.357  15.343  1.9222  1.2708  0.6767
14631TIP3   OH265307   2.856   3.008   5.191  0.2513  0.5313 -0.6179
14631TIP3    H165308   2.782   2.995   5.250 -0.0640  0.4544 -1.0335
14631TIP3    H265309   2.899   3.087   5.224  0.9880 -0.3917  0.6747
14632TIP3   OH265310   1.874   2.593  10.795  0.6421  0.1364 -0.1563
14632TIP3    H165311   1.786   2.571  10.763  0.2067  0.4442  0.8053
14632TIP3    H265312   1.920   2.624  10.717  0.0449 -0.4772 -0.7636
14633TIP3   OH265313   3.151   4.436   2.035 -0.5044  0.0814  0.1878
14633TIP3    H165314   3.200   4.372   2.086  0.3516  1.4184  1.0738
14633TIP3    H265315   3.215   4.474   1.975 -1.0683 -0.0711 -0.5193
14634TIP3   OH265316   4.853   1.758  15.857  0.1390  0.2721  0.1616
14634TIP3    H165317   4.787   1.692  15.878 -0.4717  0.4108 -1.2511
14634TIP3    H265318   4.803   1.838  15.842  0.9416  1.2962  2.7019
14635TIP3   OH265319   5.155   0.053   4.624 -0.5721 -0.2654  0.3654
14635TIP3    H165320   5.207   0.104   4.562  0.3889 -0.4458  1.0210
14635TIP3    H265321   5.065   0.059   4.590 -0.2542  0.6991 -0.3283
14636TIP3   OH265322   1.175   5.195   1.158  0.2480  0.0531  0.1171
14636TIP3    H165323   1.225   5.200   1.239  1.5238  0.3063 -0.6654
14636TIP3    H265324   1.131   5.111   1.161 -2.1017  1.3063  2.4207
14637TIP3   OH265325   5.781   1.050   4.585 -0.6107  0.1405 -0.1168
14637TIP3    H165326   5.698   1.007   4.604 -0.8212  1.0977  1.2947
14637TIP3    H265327   5.797   1.035   4.492 -2.6679  0.4716 -0.5281
14638TIP3   OH265328   3.030   4.973   4.774  0.0020 -0.1021 -0.6926
14638TIP3    H165329   2.989   5.057   4.750 -0.3799  0.0621  0.5294
14638TIP3    H265330   2.999   4.955   4.862  1.4636 -0.6747 -0.2729
14639TIP3   OH265331   0.929   3.695   4.686 -0.1749 -0.8487  0.5679
14639TIP3    H165332   0.845   3.670   4.722 -0.3937 -1.5943 -0.4381
14639TIP3    H265333   0.985   3.618   4.698 -0.4719 -1.3877 -1.3477
14640TIP3   OH265334   4.638   1.342  11.534 -0.2906 -0.3503  1.2301
14640TIP3    H165335   4.730   1.356  11.557  0.5441 -1.3216 -1.3716
14640TIP3    H265336   4.612   1.266  11.585  0.9237 -1.2403  0.5391
14641TIP3   OH265337   2.509   6.158   1.762  0.0543  0.5578 -0.4332
14641TIP3    H165338   2.587   6.103   1.750 -0.1292  0.3994 -0.9051
14641TIP3    H265339   2.535   6.244   1.730  0.4129  0.8132  0.5098
14642TIP3   OH265340   3.356   3.665   4.826 -0.0100  0.5735 -0.2450
14642TIP3    H165341   3.384   3.653   4.735 -3.1243  0.2128 -1.2452
14642TIP3    H265342   3.350   3.576   4.861  1.2997  0.7179  0.3831
14643TIP3   OH265343   4.830   6.128  13.327  0.1167 -0.4131  0.0933
14643TIP3    H165344   4.859   6.171  13.408  1.0320  1.3610 -1.1309
14643TIP3    H265345   4.894   6.058  13.314  0.1682 -0.4897  0.7064
14644TIP3   OH265346   0.659   3.602  17.234 -0.0503  0.5989 -0.2633
14644TIP3    H165347   0.710   3.543  17.290 -0.0323 -1.6283 -2.5110
14644TIP3    H265348   0.573   3.604  17.275 -0.2451 -1.5740 -0.4693
14645TIP3   OH265349   0.588   1.939   2.274 -0.2482  0.2134 -0.6726
14645TIP3    H165350   0.500   1.975   2.262 -0.6442 -0.2207  0.8535
14645TIP3    H265351   0.576   1.844   2.270  0.6067  0.1742 -3.4275
14646TIP3   OH265352   0.059   6.451   5.807 -0.2888 -0.0912  0.1760
14646TIP3    H165353   0.142   6.430   5.764 -0.0539 -1.0346  1.0685
14646TIP3    H265354   0.068   6.415   5.895 -0.9893  1.3052  0.8342
14647TIP3   OH265355   0.320   3.457  12.288  0.8583  0.2970 -0.6635
14647TIP3    H165356   0.251   3.509  12.330  0.1299 -1.5777  0.5347
14647TIP3    H265357   0.301   3.463  12.194 -0.7336  0.0960 -0.3659
14648TIP3   OH265358   4.353   3.516   5.741  0.4655  0.0572 -0.0952
14648TIP3    H165359   4.325   3.596   5.696  1.6515  0.2772 -0.4648
14648TIP3    H265360   4.332   3.446   5.679 -0.1563  0.1244  0.0376
14649TIP3   OH265361   6.602   0.923   4.740  0.5495  0.5476 -0.1659
14649TIP3    H165362   6.547   0.847   4.723  0.9533  0.3661 -0.6892
14649TIP3    H265363   6.553   0.997   4.705  0.4433  0.4437 -0.2380
14650TIP3   OH265364   5.093   2.496  15.331  0.4399  0.4654 -0.0766
14650TIP3    H165365   5.171   2.460  15.288  0.0596  0.4318 -0.7457
14650TIP3    H265366   5.027   2.427  15.323  0.5594  0.1919  1.1539
14651TIP3   OH265367   1.876   3.184  11.068 -0.6965 -1.0241  0.1377
14651TIP3    H165368   1.914   3.268  11.042 -0.6868 -0.2401  2.5624
14651TIP3    H265369   1.781   3.198  11.062 -0.6852 -1.6897 -1.9660
14652TIP3   OH265370   3.173   3.964   1.644 -1.2012 -0.1345  0.3959
14652TIP3    H165371   3.239   3.982   1.576 -1.0056 -1.2192  0.2802
14652TIP3    H265372   3.212   3.893   1.696 -1.5210  0.4213  1.4098
14653TIP3   OH265373   3.841   4.072  15.928  0.2380 -0.0435 -0.4634
14653TIP3    H165374   3.821   3.997  15.873 -0.8072 -0.5255  0.5418
14653TIP3    H265375   3.860   4.143  15.867 -1.0153 -0.5345 -1.4398
14654TIP3   OH265376   5.893   4.838   1.766 -0.4221 -0.0135  0.3381
14654TIP3    H165377   5.937   4.874   1.689 -0.9178  0.2914  0.1970
14654TIP3    H265378   5.956   4.776   1.803 -0.2486 -0.2951 -0.4176
14655TIP3   OH265379   4.564   6.134  16.632 -0.4974  0.2088 -0.5489
14655TIP3    H165380   4.615   6.120  16.711 -2.1063  0.1139  0.4881
14655TIP3    H265381   4.573   6.228  16.614 -0.1576  0.2365 -0.2470
14656TIP3   OH265382   5.513   1.877  16.668  0.6343  0.4088 -0.1921
14656TIP3    H165383   5.512   1.826  16.748 -0.3592 -0.0933 -0.5136
14656TIP3    H265384   5.605   1.902  16.655  1.3523 -2.3736 -0.7239
14657TIP3   OH265385   1.601   5.152   4.695 -0.3075 -0.2190 -0.3525
14657TIP3    H165386   1.629   5.226   4.749 -0.4857 -1.0667  0.9020
14657TIP3    H265387   1.579   5.083   4.757  0.2580 -1.4868 -1.5264
14658TIP3   OH265388   6.225   6.222  13.125 -0.2565 -0.1399 -0.2854
14658TIP3    H165389   6.174   6.179  13.193  1.3439 -2.2494 -0.3689
14658TIP3    H265390   6.159   6.257  13.064 -1.6220 -1.2142  0.5450
14659TIP3   OH265391   3.335   5.806  11.532  0.0228 -0.3399  0.4040
14659TIP3    H165392   3.309   5.716  11.554 -0.1287 -1.0859 -2.5689
14659TIP3    H265393   3.274   5.831  11.462  1.3754  1.3186 -0.1967
14660TIP3   OH265394   1.571   3.539   2.560  0.3698 -0.2284 -0.0343
14660TIP3    H165395   1.476   3.529   2.561  0.5835 -2.5362 -0.2650
14660TIP3    H265396   1.589   3.610   2.622 -1.4967  0.2478 -0.0320
14661TIP3   OH265397   1.698   4.941   4.905 -0.0157  0.1707 -0.4121
14661TIP3    H165398   1.770   4.948   4.843  1.2521 -0.8360  0.9099
14661TIP3    H265399   1.712   4.857   4.950 -1.0461  0.7423  1.0504
14662TIP3   OH265400   2.045   0.247  15.581 -0.2122  0.3648 -0.0109
14662TIP3    H165401   2.003   0.186  15.640 -0.6030  0.3282 -0.3280
14662TIP3    H265402   1.993   0.244  15.500 -0.6496  1.6207  0.2106
14663TIP3   OH265403   4.408   3.289   2.285  0.6351  0.0841  0.0049
14663TIP3    H165404   4.329   3.337   2.259  1.0334  1.6868  1.6885
14663TIP3    H265405   4.478   3.329   2.234  0.2906 -1.8546 -2.0723
14664TIP3   OH265406   0.780   4.939  14.495  0.5082  0.7038 -0.2036
14664TIP3    H165407   0.820   4.857  14.466  0.9859  1.2757 -1.2392
14664TIP3    H265408   0.693   4.938  14.456  0.0990  0.1863  0.7164
14665TIP3   OH265409   5.571   2.520  14.344  0.1813  0.5494 -0.5383
14665TIP3    H165410   5.598   2.490  14.431  0.8734 -0.5221 -1.1117
14665TIP3    H265411   5.520   2.447  14.308  0.8735  0.5181 -1.4758
14666TIP3   OH265412   6.740   6.348   5.506 -0.4752  0.4040  0.1634
14666TIP3    H165413   6.750   6.283   5.437  0.1786  0.3769  0.2831
14666TIP3    H265414   6.712   6.299   5.583  0.3231  0.2161  0.3383
14667TIP3   OH265415   5.351   2.478  13.240  0.9077 -0.0350 -0.1212
14667TIP3    H165416   5.429   2.473  13.295  1.2010  1.3468 -0.4048
14667TIP3    H265417   5.313   2.563  13.259  1.0115  0.4732 -2.0517
14668TIP3   OH265418   2.152   4.821   6.143  0.5796 -0.5451 -0.3696
14668TIP3    H165419   2.158   4.732   6.109 -0.6343 -0.0716 -1.8765
14668TIP3    H265420   2.233   4.863   6.116  1.4477 -1.3734  0.9107
14669TIP3   OH265421   4.894   3.147  14.715  0.2750 -0.3711  0.7083
14669TIP3    H165422   4.830   3.209  14.752 -0.1528 -0.3122 -0.1178
14669TIP3    H265423   4.847   3.064  14.711 -0.2010 -0.0460 -1.1063
14670TIP3   OH265424   1.022   0.543  14.812 -0.6300  1.0684 -0.0418
14670TIP3    H165425   1.088   0.572  14.875 -0.0536  0.1751 -0.2332
14670TIP3    H265426   1.040   0.450  14.799 -1.2026  1.0839 -0.9860
14671TIP3   OH265427   0.246   3.612   6.064  0.6325 -0.5049 -0.3010
14671TIP3    H165428   0.225   3.646   6.151  2.3001  0.9785 -0.4561
14671TIP3    H265429   0.336   3.640   6.048  0.2269 -0.4161 -2.6429
14672TIP3   OH265430   0.204   3.967   0.606  0.7272 -0.1070 -0.9553
14672TIP3    H165431   0.247   3.990   0.524 -1.0773  1.7624 -1.4253
14672TIP3    H265432   0.114   3.999   0.596 -0.5283 -3.0159  0.3839
14673TIP3   OH265433   5.840   0.700  13.221  0.0051  0.4715  0.3987
14673TIP3    H165434   5.836   0.660  13.134 -3.1843 -1.4487  1.3288
14673TIP3    H265435   5.911   0.653  13.265  0.2181 -0.0532 -0.4882
14674TIP3   OH265436   6.266   3.795  13.072 -0.0838  0.5254 -0.3183
14674TIP3    H165437   6.339   3.771  13.128 -0.5570 -1.4103 -0.4967
14674TIP3    H265438   6.205   3.841  13.129 -0.8382 -1.9596  0.9080
14675TIP3   OH265439   2.942   1.780  14.622  0.6482  0.3367  0.1534
14675TIP3    H165440   2.963   1.771  14.529  0.8536 -2.7984  0.4547
14675TIP3    H265441   2.972   1.868  14.645  1.2050  0.9129 -2.5662
14676TIP3   OH265442   4.059   2.714   3.022  0.3603  0.0378  0.1741
14676TIP3    H165443   4.149   2.682   3.024  0.3360  0.0609  2.1261
14676TIP3    H265444   4.015   2.670   3.095 -1.1212  0.2980 -0.5351
14677TIP3   OH265445   1.108   0.816   5.043  0.8191  0.2531  0.0491
14677TIP3    H165446   1.161   0.887   5.080  0.7149  0.7233 -0.6954
14677TIP3    H265447   1.139   0.737   5.088 -0.0614  0.9503  1.9402
14678TIP3   OH265448   3.524   3.357   3.958 -0.0149 -0.1919 -0.0324
14678TIP3    H165449   3.559   3.428   4.011 -0.3921 -0.4087  0.5236
14678TIP3    H265450   3.494   3.292   4.022  1.1257 -1.2472 -0.5413
14679TIP3   OH265451   5.944   1.245  14.758  0.7382 -0.5720 -0.1235
14679TIP3    H165452   5.929   1.153  14.737 -0.7509 -0.6566  1.2197
14679TIP3    H265453   5.938   1.250  14.853 -0.6529  1.1606 -0.2758
14680TIP3   OH265454   5.078   6.610   2.306  0.3212 -0.3460 -0.1102
14680TIP3    H165455   5.133   6.555   2.251 -0.2202 -1.3059  0.2898
14680TIP3    H265456   5.121   6.607   2.392 -0.2984 -1.0280  0.1801
14681TIP3   OH265457   5.494   4.527  13.374  0.3211 -0.3296  0.4336
14681TIP3    H165458   5.475   4.459  13.438  1.3888  0.3110  1.4489
14681TIP3    H265459   5.586   4.550  13.389 -0.1858  1.7340  0.4963
14682TIP3   OH265460   1.125   3.129  15.094  0.0552  0.0769 -0.2155
14682TIP3    H165461   1.114   3.166  15.182  0.8703 -0.5036  0.1383
14682TIP3    H265462   1.078   3.045  15.097 -0.5345  0.3969 -0.5565
14683TIP3   OH265463   2.706   2.548  13.285 -0.3207  0.2925  0.1762
14683TIP3    H165464   2.738   2.617  13.228 -0.2724  0.8741  0.8918
14683TIP3    H265465   2.761   2.473  13.266  0.5083  0.8496  0.3357
14684TIP3   OH265466   2.699   4.378   2.183 -0.1641 -0.0803 -0.1129
14684TIP3    H165467   2.776   4.390   2.239 -1.2102  0.4748  1.2242
14684TIP3    H265468   2.635   4.336   2.240 -0.3467 -1.9569 -1.6448
14685TIP3   OH265469   6.570   0.610  14.310  0.3625  0.2652 -0.6152
14685TIP3    H165470   6.657   0.636  14.280 -0.1256 -0.1667 -2.4177
14685TIP3    H265471   6.519   0.597  14.230 -1.0114 -0.7006  0.3898
14686TIP3   OH265472   1.046   2.926  16.686  0.7287 -0.0026 -0.4306
14686TIP3    H165473   0.996   2.896  16.763 -0.3241  1.3975 -0.5541
14686TIP3    H265474   1.010   2.874  16.614  0.0888  0.3360 -0.3621
14687TIP3   OH265475   5.904   5.448  13.289  0.2293  0.4155 -0.0312
14687TIP3    H165476   5.903   5.484  13.378 -0.1051 -0.3282  0.2713
14687TIP3    H265477   5.980   5.390  13.288 -0.6978 -0.8247  0.2821
14688TIP3   OH265478   0.877   6.111   5.269  0.4684 -0.4825 -0.4062
14688TIP3    H165479   0.911   6.164   5.197  0.5608  2.1489  1.5033
14688TIP3    H265480   0.952   6.097   5.327  0.2533 -2.0276 -0.4720
14689TIP3   OH265481   3.189   3.219  15.294 -0.2771 -0.2746 -0.4082
14689TIP3    H165482   3.160   3.269  15.371  1.9515 -2.6765  2.0892
14689TIP3    H265483   3.229   3.285  15.237  1.2199  1.0719  2.1032
14690TIP3   OH265484   4.387   4.967   1.137  0.2392 -0.4214 -0.4362
14690TIP3    H165485   4.330   5.035   1.174  1.5282  0.2050  0.4271
14690TIP3    H265486   4.343   4.941   1.056  0.0436  1.9021 -1.1199
14691TIP3   OH265487   4.595   6.686   0.624 -0.2851  0.8020  0.1189
14691TIP3    H165488   4.620   6.659   0.536  0.4750 -0.7491  0.7860
14691TIP3    H265489   4.676   6.713   0.665 -0.3434 -0.1877  0.9103
14692TIP3   OH265490   6.736   5.663  14.256 -0.0153  0.3420 -0.1301
14692TIP3    H165491   6.674   5.639  14.187 -1.5162  2.6527  0.3599
14692TIP3    H265492   6.748   5.758  14.245  2.0729  0.2344  0.9077
14693TIP3   OH265493   4.693   2.035  16.476  0.0041 -0.9343 -0.0363
14693TIP3    H165494   4.753   2.029  16.550  0.6329  0.0998 -0.4382
14693TIP3    H265495   4.606   2.026  16.514  0.1232  2.5356  1.2755
14694TIP3   OH265496   2.088   3.496  14.052  0.2223 -0.8718  0.2289
14694TIP3    H165497   2.095   3.496  14.147  2.3659  0.2372  0.1119
14694TIP3    H265498   2.172   3.461  14.021  0.1848  0.2839 -1.2665
14695TIP3   OH265499   0.703   4.909   3.204 -0.4303  0.0489 -0.0063
14695TIP3    H165500   0.784   4.883   3.160 -0.5540  0.5289 -0.5125
14695TIP3    H265501   0.639   4.921   3.134 -1.4463 -2.0505  0.5129
14696TIP3   OH265502   5.737   0.472   4.306 -0.5403 -0.4437  0.1198
14696TIP3    H165503   5.763   0.530   4.377 -1.7564  0.3858 -0.0974
14696TIP3    H265504   5.755   0.522   4.226  0.6855 -1.3137 -0.1656
14697TIP3   OH265505   4.060   1.220  11.614  0.2398  0.5312 -0.3086
14697TIP3    H165506   4.095   1.135  11.587 -0.3960  0.0962  0.2274
14697TIP3    H265507   3.971   1.222  11.579  0.1884  0.8908 -0.1546
14698TIP3   OH265508   3.394   4.657   3.667  0.7444 -0.3315 -0.0516
14698TIP3    H165509   3.380   4.728   3.604 -0.6909  0.6963  1.3981
14698TIP3    H265510   3.439   4.589   3.616  1.0660  1.1235 -1.7664
14699TIP3   OH265511   0.531   3.689  14.888 -1.1227  0.2062 -1.0243
14699TIP3    H165512   0.538   3.730  14.974  0.6488 -1.0886 -0.5224
14699TIP3    H265513   0.451   3.726  14.850 -0.6049  2.6721  0.1589
14700TIP3   OH265514   1.089   4.892   5.698 -0.3192 -0.1969  0.5230
14700TIP3    H165515   1.120   4.903   5.608  3.1661  1.0015  1.7743
14700TIP3    H265516   1.029   4.965   5.711  0.2352  0.4360 -0.3784
14701TIP3   OH265517   3.447   1.180   3.805  0.1913  0.5167 -0.2051
14701TIP3    H165518   3.448   1.213   3.895  0.1543  0.7783 -0.2986
14701TIP3    H265519   3.533   1.206   3.770  1.2392 -1.8049  0.5461
14702TIP3   OH265520   0.270   2.535   6.269 -0.2809 -0.6026 -0.0494
14702TIP3    H165521   0.250   2.442   6.256  2.0901 -1.2784  0.9234
14702TIP3    H265522   0.347   2.536   6.327 -0.8063  1.9850  0.6938
14703TIP3   OH265523   2.511   2.097   3.362  0.3220 -0.3183 -0.5208
14703TIP3    H165524   2.553   2.019   3.326  2.3515 -0.5685  2.2760
14703TIP3    H265525   2.580   2.163   3.362 -0.5016  0.5494  0.1413
14704TIP3   OH265526   0.690   5.108  15.943  0.2055  0.2767 -0.4464
14704TIP3    H165527   0.755   5.177  15.951  0.6257  0.1308 -2.5075
14704TIP3    H265528   0.614   5.140  15.993  1.1412  1.2852  0.3362
14705TIP3   OH265529   1.407   5.234   4.531  0.6782  0.3532 -0.1023
14705TIP3    H165530   1.471   5.210   4.597 -1.8784  1.2184  2.7807
14705TIP3    H265531   1.361   5.152   4.511  1.9469 -0.0634 -1.4463
14706TIP3   OH265532   3.695   0.624  15.204 -0.4035 -0.5050  0.0826
14706TIP3    H165533   3.630   0.568  15.246 -0.4122 -1.4232 -1.1026
14706TIP3    H265534   3.671   0.622  15.111  1.1534 -0.6564 -0.3374
14707TIP3   OH265535   1.057   4.278   1.778 -0.5120  0.8680 -0.3899
14707TIP3    H165536   0.983   4.314   1.827 -0.1877  0.0605  0.6953
14707TIP3    H265537   1.124   4.262   1.844  0.2722  0.6554 -1.2329
14708TIP3   OH265538   1.719   0.514  16.725 -0.0440 -0.8988 -0.5909
14708TIP3    H165539   1.691   0.597  16.686  1.2816  0.4499  1.1719
14708TIP3    H265540   1.799   0.537  16.772 -0.1133 -3.0235  0.6079
14709TIP3   OH265541   0.820   2.737   0.415  0.1606  0.2467  0.2638
14709TIP3    H165542   0.811   2.803   0.346  1.2990  1.0967  0.8904
14709TIP3    H265543   0.737   2.690   0.416 -0.2052  0.8652 -1.0386
14710TIP3   OH265544   5.023   5.683  13.006  0.4868  0.6433 -0.1692
14710TIP3    H165545   5.087   5.723  13.065 -0.3478  1.0578  0.4646
14710TIP3    H265546   4.971   5.626  13.063  1.2316 -0.8547 -0.9440
14711TIP3   OH265547   4.138   6.735  17.037  0.1080  0.8014 -0.0360
14711TIP3    H165548   4.225   6.696  17.034 -0.4932 -1.0094  3.4454
14711TIP3    H265549   4.089   6.690  16.967  1.3106  0.1779 -0.4914
14712TIP3   OH265550   2.959   1.261   2.769 -0.2538  0.0915 -0.6255
14712TIP3    H165551   2.972   1.167   2.777  3.2889  0.5907  0.5330
14712TIP3    H265552   2.928   1.274   2.679  3.6017 -1.8572 -2.3777
14713TIP3   OH265553   0.675   0.270   2.008  0.4562  0.7071 -0.1645
14713TIP3    H165554   0.759   0.316   2.000 -0.1887  2.0262  0.4239
14713TIP3    H265555   0.615   0.320   1.951  0.4064 -1.0615 -1.6894
14714TIP3   OH265556   5.325   0.742  11.727  0.2928  0.3683  0.3042
14714TIP3    H165557   5.361   0.726  11.814  2.2317  1.2230 -0.3158
14714TIP3    H265558   5.381   0.691  11.668 -1.3887 -0.7125 -0.4089
14715TIP3   OH265559   6.376   1.964  14.773 -0.5398  0.1926  0.3357
14715TIP3    H165560   6.319   1.988  14.847 -0.1899 -0.5594  0.8655
14715TIP3    H265561   6.351   2.024  14.703 -0.7762  1.0178  1.1122
14716TIP3   OH265562   0.695   6.429  16.982 -0.1219 -0.7852 -0.0195
14716TIP3    H165563   0.678   6.381  16.900 -0.6198 -1.6411  0.5818
14716TIP3    H265564   0.676   6.520  16.960 -0.3067 -1.0105 -0.8474
14717TIP3   OH265565   1.653   2.921   5.614 -0.4534  0.2108 -0.4224
14717TIP3    H165566   1.689   2.834   5.628  0.1039  0.4957 -0.0893
14717TIP3    H265567   1.640   2.956   5.703 -0.3816  0.5906 -0.5613
14718TIP3   OH265568   4.895   6.339  14.770  0.3306 -0.0525  0.2648
14718TIP3    H165569   4.824   6.322  14.707 -1.7255  3.9655  1.3980
14718TIP3    H265570   4.879   6.277  14.841 -0.4590 -0.9924 -0.7095
14719TIP3   OH265571   0.747   1.116  16.129  0.1627  0.1289 -0.1042
14719TIP3    H165572   0.814   1.086  16.068 -0.2237 -0.1828 -0.3773
14719TIP3    H265573   0.729   1.206  16.101  0.3731  0.1697 -0.1098
14720TIP3   OH265574   3.291   4.816  13.861 -0.5425  0.0175 -0.1026
14720TIP3    H165575   3.230   4.760  13.910 -1.8799  1.2276 -0.3640
14720TIP3    H265576   3.361   4.836  13.924 -1.4314  0.2505  0.8239
14721TIP3   OH265577   0.260   1.453  14.162  0.3169 -0.6183  0.0031
14721TIP3    H165578   0.332   1.392  14.145  0.7813 -0.1293  0.1648
14721TIP3    H265579   0.183   1.410  14.127  0.6547 -1.2561  0.0376
14722TIP3   OH265580   2.628   5.484  16.954 -0.3361  0.8264  0.0656
14722TIP3    H165581   2.543   5.443  16.969  0.7915 -1.3215  0.7596
14722TIP3    H265582   2.676   5.421  16.900  1.1151  1.6205  0.4023
14723TIP3   OH265583   4.234   4.266   4.199 -0.1985 -0.3257  0.2715
14723TIP3    H165584   4.228   4.297   4.289  0.6157 -0.1740  0.2790
14723TIP3    H265585   4.160   4.306   4.154  1.4853  2.6271 -0.0219
14724TIP3   OH265586   3.467   5.103   0.632 -0.4067 -0.5867 -0.0895
14724TIP3    H165587   3.485   5.140   0.545  1.4988 -0.9532  0.1278
14724TIP3    H265588   3.530   5.147   0.690 -1.8643 -0.1341  1.1694
14725TIP3   OH265589   2.974   4.255  11.729 -0.4176 -0.0810  0.3902
14725TIP3    H165590   2.994   4.221  11.817 -1.5645  1.0035  1.0812
14725TIP3    H265591   2.881   4.279  11.733 -1.0237 -1.8364 -1.7169
14726TIP3   OH265592   5.580   0.683   6.478 -0.0992 -0.1753  0.1565
14726TIP3    H165593   5.592   0.719   6.566 -0.5282  1.0822 -0.2921
14726TIP3    H265594   5.548   0.756   6.426  0.7317 -0.7552 -1.1995
14727TIP3   OH265595   2.151   3.425  12.370 -0.5474  0.3936 -0.2586
14727TIP3    H165596   2.153   3.439  12.465  1.5824  1.8539 -0.4888
14727TIP3    H265597   2.186   3.336  12.359 -2.7323 -0.5881  0.4208
14728TIP3   OH265598   5.084   5.008  15.396  0.3073  0.3929  0.2448
14728TIP3    H165599   5.032   5.069  15.344 -1.0674 -0.2184  0.8927
14728TIP3    H265600   5.079   4.925  15.348  0.9750  0.4075  0.1360
14729TIP3   OH265601   3.560   5.858  16.348  0.1582 -0.3607  0.2111
14729TIP3    H165602   3.625   5.863  16.277 -0.2281 -2.7296 -0.3564
14729TIP3    H265603   3.577   5.936  16.401  2.2412  0.0376 -0.9618
14730TIP3   OH265604   1.234   1.644   1.940  0.1390 -0.3265 -0.3163
14730TIP3    H165605   1.295   1.611   2.006  0.0479 -1.5920 -0.8431
14730TIP3    H265606   1.185   1.566   1.913 -0.6957  0.4201 -0.9462
14731TIP3   OH265607   0.673   1.350   1.644  0.1297  0.3924 -0.0489
14731TIP3    H165608   0.718   1.346   1.560  1.0344  0.7965  0.4097
14731TIP3    H265609   0.714   1.423   1.691  0.1486 -0.2823  1.0219
14732TIP3   OH265610   4.235   0.701  14.370  0.2904 -0.3696 -0.7697
14732TIP3    H165611   4.178   0.775  14.349 -1.4748 -1.7344 -0.8883
14732TIP3    H265612   4.293   0.693  14.295  1.0056  1.3457 -0.4287
14733TIP3   OH265613   2.960   6.509   4.626  0.5971  0.0412 -0.1079
14733TIP3    H165614   2.976   6.556   4.545  1.5791 -1.5140 -0.8306
14733TIP3    H265615   3.048   6.490   4.661  0.2039  1.7317  1.9468
14734TIP3   OH265616   5.117   5.482   5.921  0.2284  0.3998  0.1701
14734TIP3    H165617   5.065   5.550   5.879  1.0402  0.4586 -0.7667
14734TIP3    H265618   5.106   5.405   5.864  0.4883  0.1774  0.4212
14735TIP3   OH265619   4.279   1.426  11.261  0.3266 -0.0254 -0.1313
14735TIP3    H165620   4.365   1.430  11.304  0.1471 -0.3771  0.2645
14735TIP3    H265621   4.217   1.441  11.332 -0.0044 -1.2987 -0.1548
14736TIP3   OH265622   0.969   0.366   4.353 -0.2042 -0.4352  0.1750
14736TIP3    H165623   1.044   0.314   4.381 -1.1389 -1.6064  0.4867
14736TIP3    H265624   0.894   0.327   4.396 -1.4379 -1.1920 -2.5517
14737TIP3   OH265625   2.027   4.149   6.283 -0.0240  0.2345  0.1435
14737TIP3    H165626   2.014   4.058   6.256  0.1174  0.3047 -0.1607
14737TIP3    H265627   1.943   4.192   6.266 -0.2656  0.0276  0.8191
14738TIP3   OH265628   2.383   3.848  15.522 -0.3785 -0.4289 -0.0432
14738TIP3    H165629   2.467   3.854  15.568  0.4606 -1.5499 -1.3998
14738TIP3    H265630   2.341   3.771  15.560 -0.8666  0.2096  0.7304
14739TIP3   OH265631   6.184   1.287   2.088 -0.1292  0.1365  0.4876
14739TIP3    H165632   6.223   1.326   2.166  1.2542  2.3081 -1.2269
14739TIP3    H265633   6.120   1.352   2.058 -1.8171 -1.3950  0.6961
14740TIP3   OH265634   2.198   2.480   1.183 -0.5995 -0.4037 -0.7416
14740TIP3    H165635   2.153   2.458   1.101 -0.5545 -1.0750 -0.5912
14740TIP3    H265636   2.252   2.556   1.161 -0.0421 -1.0155 -1.5282
14741TIP3   OH265637   2.365   5.563  11.258  0.7472 -0.5304 -0.5426
14741TIP3    H165638   2.388   5.610  11.179 -0.8228 -0.2314 -0.8482
14741TIP3    H265639   2.324   5.482  11.227  0.2316 -0.4663 -0.0386
14742TIP3   OH265640   6.601   2.599  13.685 -0.4457  0.0733  0.0043
14742TIP3    H165641   6.611   2.507  13.709  1.2460  0.4005  0.6098
14742TIP3    H265642   6.681   2.620  13.636 -0.3577  1.4848  0.7202
14743TIP3   OH265643   0.277   5.499   1.725  0.9126 -0.9850 -1.2568
14743TIP3    H165644   0.238   5.498   1.812  1.1169  0.6784 -1.1396
14743TIP3    H265645   0.365   5.462   1.738  1.6891  1.0875 -0.3674
14744TIP3   OH265646   4.879   5.014  15.983 -0.1278 -0.3506 -0.1056
14744TIP3    H165647   4.859   4.957  16.058 -0.7304 -0.2453 -0.1833
14744TIP3    H265648   4.965   4.984  15.952  1.0655  0.9537  1.8825
14745TIP3   OH265649   5.958   2.242  12.738 -0.4033  0.5351 -0.4421
14745TIP3    H165650   5.913   2.303  12.796 -1.6298 -0.2463 -0.5598
14745TIP3    H265651   6.011   2.298  12.681 -2.0883  1.5645 -1.0405
14746TIP3   OH265652   0.852   5.364   3.887 -0.3882  0.2261  0.2875
14746TIP3    H165653   0.799   5.397   3.814  0.1093  0.8152  0.1854
14746TIP3    H265654   0.873   5.441   3.939 -2.1485 -0.4309  2.0039
14747TIP3   OH265655   5.401   6.421   4.130  0.3127  0.0172  0.5773
14747TIP3    H165656   5.365   6.509   4.141 -1.4448 -0.6793  0.5758
14747TIP3    H265657   5.405   6.386   4.219 -0.0330 -0.2926  0.4729
14748TIP3   OH265658   2.900   0.640   0.676 -0.1151  0.2995  0.5075
14748TIP3    H165659   2.875   0.645   0.768 -1.1069 -0.9404  0.3289
14748TIP3    H265660   2.838   0.698   0.631 -1.3185 -1.0533  0.3415
14749TIP3   OH265661   5.185   0.848  11.518 -0.0230  0.3716 -0.3824
14749TIP3    H165662   5.229   0.810  11.594 -0.9794  0.5561  0.2678
14749TIP3    H265663   5.169   0.774  11.460  1.3492  0.3393 -0.7292
14750TIP3   OH265664   3.736   0.864   5.737  0.4702 -0.3366  0.3408
14750TIP3    H165665   3.709   0.867   5.829 -2.6325 -0.5548 -0.5010
14750TIP3    H265666   3.738   0.771   5.715  2.3706 -0.3473  0.4704
14751TIP3   OH265667   4.075   3.043  13.858  0.5572 -0.1522 -0.1057
14751TIP3    H165668   4.165   3.032  13.889  0.5664 -0.2087 -0.1521
14751TIP3    H265669   4.079   3.019  13.765  1.2581  3.4160 -1.0822
14752TIP3   OH265670   5.872   3.173   5.611  0.7475 -0.5248 -0.5949
14752TIP3    H165671   5.858   3.226   5.690 -0.8169 -0.2306 -1.0324
14752TIP3    H265672   5.839   3.086   5.635 -1.3754  0.0179 -1.4606
14753TIP3   OH265673   5.387   2.115  14.759  0.6804  0.1768  0.5041
14753TIP3    H165674   5.459   2.154  14.807  1.0812 -0.5125  0.4760
14753TIP3    H265675   5.415   2.118  14.667  0.8133 -0.3661  0.5234
14754TIP3   OH265676   3.022   4.446  12.101  0.3827  0.0191  0.1497
14754TIP3    H165677   2.966   4.521  12.122 -3.4713 -2.5435 -0.2594
14754TIP3    H265678   3.044   4.457  12.009 -0.5644  0.4728 -0.0360
14755TIP3   OH265679   3.538   3.212   3.341 -0.4883 -0.0162  0.0842
14755TIP3    H165680   3.626   3.248   3.353 -0.5377 -0.3804  1.5912
14755TIP3    H265681   3.495   3.275   3.283  0.2832  0.9822  0.5663
14756TIP3   OH265682   4.719   4.402  16.585  0.4549  0.5501  0.0228
14756TIP3    H165683   4.757   4.341  16.522  0.5109  2.0969 -1.4723
14756TIP3    H265684   4.625   4.394  16.571  0.4664  0.8745 -0.2390
14757TIP3   OH265685   5.063   5.434  13.374  0.1186  0.0453 -0.0558
14757TIP3    H165686   5.140   5.439  13.431 -0.3035  1.4803  0.4054
14757TIP3    H265687   5.041   5.341  13.371  1.4132 -0.2915  0.4156
14758TIP3   OH265688   0.130   4.152   4.700  0.2389 -0.2532  0.2367
14758TIP3    H165689   0.101   4.242   4.685  1.8098  0.2915  0.3627
14758TIP3    H265690   0.174   4.127   4.619  0.1460 -0.7728  0.3478
14759TIP3   OH265691   4.685   3.094  12.197 -0.2299 -0.0520 -0.5919
14759TIP3    H165692   4.648   3.111  12.284  0.8007 -1.2633  0.0947
14759TIP3    H265693   4.779   3.080  12.214  0.2475  1.2044 -2.0852
14760TIP3   OH265694   3.777   0.392   2.511  0.2570 -0.0187  0.0223
14760TIP3    H165695   3.861   0.360   2.480  0.5724 -1.9299  2.6344
14760TIP3    H265696   3.788   0.487   2.520  1.3533  0.0503 -1.8656
14761TIP3   OH265697   1.532   0.410   2.189 -0.8305 -0.6601 -0.1492
14761TIP3    H165698   1.608   0.464   2.170  0.1871 -1.9721  0.1554
14761TIP3    H265699   1.558   0.321   2.165 -2.0896 -1.1978  0.3989
14762TIP3   OH265700   1.546   4.806  13.755 -0.2805 -0.1017 -0.2240
14762TIP3    H165701   1.561   4.719  13.720  0.7762  0.5233 -1.3984
14762TIP3    H265702   1.557   4.864  13.680  0.1773  1.1236  0.7658
14763TIP3   OH265703   2.846   1.955   2.723  0.2649 -0.1133  0.4979
14763TIP3    H165704   2.759   1.995   2.711  0.6694  1.0026  1.2549
14763TIP3    H265705   2.827   1.867   2.754 -0.7002 -1.2515 -3.0368
14764TIP3   OH265706   5.340   5.815   5.486 -0.0355  0.1439 -0.2532
14764TIP3    H165707   5.295   5.870   5.551 -0.1108 -0.6130  0.3375
14764TIP3    H265708   5.277   5.746   5.466  0.9286 -1.0635  0.7506
14765TIP3   OH265709   6.636   0.881  10.827  0.1845 -0.0730 -0.0192
14765TIP3    H165710   6.634   0.899  10.733  0.5629 -0.2445 -0.0592
14765TIP3    H265711   6.572   0.811  10.839 -1.2852  1.2790  0.1313
14766TIP3   OH265712   5.088   6.712   1.926 -0.0088 -0.0504 -0.1623
14766TIP3    H165713   5.030   6.674   1.991 -1.6245  2.0649 -0.3186
14766TIP3    H265714   5.114   6.797   1.962  0.1495  0.5647 -1.6559
14767TIP3   OH265715   3.320   3.903  16.658 -0.4642 -0.1197  0.1583
14767TIP3    H165716   3.285   3.958  16.728  0.8707 -0.1350  0.8683
14767TIP3    H265717   3.251   3.838  16.641 -1.4485  0.8734  0.3338
14768TIP3   OH265718   3.654   5.868   3.812  0.0725 -0.9256 -0.3538
14768TIP3    H165719   3.649   5.913   3.728  0.5805  0.7354  0.4804
14768TIP3    H265720   3.588   5.799   3.807  0.6899 -1.4055 -2.4310
14769TIP3   OH265721   2.050   3.146  14.417  0.5925 -0.7317 -0.5973
14769TIP3    H165722   2.078   3.081  14.353  1.4668 -1.1955  0.2572
14769TIP3    H265723   1.989   3.202  14.368  2.9901  0.3186 -2.4982
14770TIP3   OH265724   4.326   3.503   1.460  0.2869 -0.3160  0.0027
14770TIP3    H165725   4.351   3.561   1.389 -0.9411 -1.3632 -1.3048
14770TIP3    H265726   4.326   3.415   1.422  0.0853 -0.9505  1.4082
14771TIP3   OH265727   5.637   5.895  16.185  0.0485  0.2784  0.0446
14771TIP3    H165728   5.585   5.943  16.121 -0.1421 -0.1642 -0.1402
14771TIP3    H265729   5.726   5.894  16.149  0.0832  0.6213  0.1245
14772TIP3   OH265730   2.594   0.991  15.760 -0.3647  0.3683  0.0409
14772TIP3    H165731   2.676   1.035  15.735 -1.5720  1.8436 -1.4856
14772TIP3    H265732   2.591   0.913  15.705 -0.2933  0.6551 -0.3738
14773TIP3   OH265733   6.061   2.588   3.645 -0.4833  0.5106 -0.2146
14773TIP3    H165734   6.094   2.670   3.682 -2.4549  0.5042  1.7295
14773TIP3    H265735   5.984   2.568   3.699 -0.0660 -2.5958 -0.6935
14774TIP3   OH265736   0.725   2.274  13.443  0.3850  0.0012 -0.1577
14774TIP3    H165737   0.703   2.185  13.470 -1.4791  0.1570 -1.1486
14774TIP3    H265738   0.725   2.271  13.347  0.9460  0.9167 -0.1904
14775TIP3   OH265739   5.133   2.037   2.034  0.0143 -0.0138 -0.3849
14775TIP3    H165740   5.177   1.986   2.103  1.4438 -0.8149 -1.8625
14775TIP3    H265741   5.201   2.093   1.998 -0.7002  0.3237 -1.2405
14776TIP3   OH265742   0.282   5.668  13.162  0.7151 -0.0449  0.4504
14776TIP3    H165743   0.228   5.684  13.239  1.3774 -0.4495  0.9985
14776TIP3    H265744   0.292   5.573  13.159 -0.0199 -0.0977 -0.6257
14777TIP3   OH265745   3.649   5.483  16.951  0.5783 -0.0071 -0.4699
14777TIP3    H165746   3.666   5.512  17.041 -1.6873  1.3357 -0.4196
14777TIP3    H265747   3.670   5.390  16.951  0.6995 -0.0024  1.4373
14778TIP3   OH265748   0.986   3.925   2.752  0.5029  0.1581  0.2905
14778TIP3    H165749   0.957   4.011   2.782  1.0288  0.0753  1.0495
14778TIP3    H265750   1.025   3.941   2.666 -0.3770  0.5055 -0.0491
14779TIP3   OH265751   3.255   1.399   5.667 -0.5838 -0.3833 -0.1243
14779TIP3    H165752   3.335   1.355   5.639 -0.8822 -0.7028 -0.4757
14779TIP3    H265753   3.233   1.458   5.595  0.4216  1.1716  0.8093
14780TIP3   OH265754   2.316   5.474  16.180  0.1744 -0.0869  0.4870
14780TIP3    H165755   2.264   5.447  16.255 -0.1247  0.6368  0.5493
14780TIP3    H265756   2.370   5.398  16.159 -0.5597 -0.6813  0.7235
14781TIP3   OH265757   0.287   3.032   3.705 -0.2526  0.1522  0.2112
14781TIP3    H165758   0.323   3.119   3.686 -0.3059  0.0261 -0.4914
14781TIP3    H265759   0.202   3.031   3.661 -0.2559 -0.2536  0.2249
14782TIP3   OH265760   5.566   0.111  12.876 -0.2080 -0.1263 -0.3583
14782TIP3    H165761   5.652   0.097  12.914  0.0215 -1.8400 -1.4213
14782TIP3    H265762   5.505   0.101  12.949  0.5013  1.8081  0.5445
14783TIP3   OH265763   5.138   3.054  15.905  0.1766 -0.2131 -0.0886
14783TIP3    H165764   5.113   3.112  15.977 -1.4733 -1.5084  0.4096
14783TIP3    H265765   5.088   3.085  15.830  0.6526  0.1086 -0.2787
14784TIP3   OH265766   2.462   0.661   0.211 -0.0710  0.2105  0.1182
14784TIP3    H165767   2.395   0.726   0.232  1.6007  1.9189  0.2436
14784TIP3    H265768   2.490   0.626   0.295 -1.9229 -1.6968 -0.0156
14785TIP3   OH265769   5.100   1.892  16.482  0.2440 -0.1330  0.7416
14785TIP3    H165770   5.119   1.866  16.572  2.2440 -0.9268  0.1272
14785TIP3    H265771   5.033   1.830  16.453  0.1119 -0.3256  1.4398
14786TIP3   OH265772   1.348   6.009   2.794  0.4322 -0.2802  0.2104
14786TIP3    H165773   1.434   6.024   2.756  0.2760  1.4481  0.4654
14786TIP3    H265774   1.333   6.085   2.850 -1.2433 -0.5662  0.1911
14787TIP3   OH265775   4.380   3.534  11.289  0.3519 -0.1948 -0.4405
14787TIP3    H165776   4.382   3.587  11.210  0.9784 -1.1883 -1.0946
14787TIP3    H265777   4.431   3.583  11.353  1.2105 -0.1643 -1.1447
14788TIP3   OH265778   2.020   5.406  10.672  0.2452 -0.3226  0.3094
14788TIP3    H165779   1.929   5.417  10.698  0.1453  0.3388 -0.3108
14788TIP3    H265780   2.034   5.471  10.603  0.6154 -1.7883 -1.0155
14789TIP3   OH265781   0.825   3.203   4.469 -0.4750 -0.2273  0.1839
14789TIP3    H165782   0.773   3.218   4.548 -0.1725  1.9728 -0.0091
14789TIP3    H265783   0.760   3.180   4.402 -0.8031 -1.3637  0.8855
14790TIP3   OH265784   3.187   3.876  15.007 -0.0392  0.4322  0.3439
14790TIP3    H165785   3.270   3.917  15.032 -0.5306  0.4971  1.8935
14790TIP3    H265786   3.159   3.828  15.085 -2.2429  1.6946  0.3833
14791TIP3   OH265787   3.736   5.314   4.093 -0.2823 -0.0703  0.0322
14791TIP3    H165788   3.816   5.340   4.047 -1.6478  1.5304 -1.5273
14791TIP3    H265789   3.742   5.359   4.177  1.5237 -1.7967  0.8688
14792TIP3   OH265790   5.636   1.712  12.562  0.5803 -0.4620  0.6493
14792TIP3    H165791   5.689   1.645  12.520  1.9598 -0.1299  1.8137
14792TIP3    H265792   5.559   1.666  12.595  1.2803 -1.3840  1.0056
14793TIP3   OH265793   1.226   5.834  10.602 -0.3054 -0.3383  0.5697
14793TIP3    H165794   1.301   5.843  10.661 -0.0062 -0.7600  0.2572
14793TIP3    H265795   1.246   5.893  10.529 -0.5234 -0.0611  0.7314
14794TIP3   OH265796   6.674   2.365  13.802 -0.0036 -0.4305 -0.2425
14794TIP3    H165797   6.637   2.287  13.843  0.5452 -1.7081 -2.1230
14794TIP3    H265798   6.676   2.430  13.873  0.6889 -2.4789  1.6951
14795TIP3   OH265799   0.286   6.654   3.259  0.6580  0.4239  0.1356
14795TIP3    H165800   0.237   6.736   3.269  0.8914  0.5946 -0.0969
14795TIP3    H265801   0.279   6.634   3.166 -0.9428 -0.7958  0.4989
14796TIP3   OH265802   4.281   3.684  11.074  0.4799 -0.1216  0.2162
14796TIP3    H165803   4.344   3.753  11.095 -0.4378  0.1197  2.3058
14796TIP3    H265804   4.324   3.632  11.006  3.9350 -1.3412  3.1781
14797TIP3   OH265805   0.325   3.675   3.802  0.1694  0.1869 -0.3577
14797TIP3    H165806   0.339   3.656   3.710  1.4077 -0.4499 -0.0474
14797TIP3    H265807   0.291   3.593   3.839  0.0826  0.3072 -0.1699
14798TIP3   OH265808   3.138   3.902  12.351  0.2450 -0.0513  1.0664
14798TIP3    H165809   3.095   3.848  12.417 -0.9663  0.9164  1.0767
14798TIP3    H265810   3.144   3.846  12.274 -0.1047 -0.5210  1.3801
14799TIP3   OH265811   4.428   6.562   3.643 -0.1489 -0.2806 -0.2951
14799TIP3    H165812   4.514   6.577   3.602 -0.2054 -1.4094 -0.8394
14799TIP3    H265813   4.399   6.478   3.608 -0.4849 -0.9829  1.5857
14800TIP3   OH265814   0.692   4.495   4.518  0.5401  0.6092  0.4898
14800TIP3    H165815   0.627   4.507   4.588  1.1974  0.1327  1.1848
14800TIP3    H265816   0.640   4.487   4.438 -0.2480  0.4004  1.0200
14801TIP3   OH265817   1.840   0.871   3.798  0.7206 -0.1182 -0.2938
14801TIP3    H165818   1.746   0.860   3.813  0.7689  0.1913  0.2686
14801TIP3    H265819   1.855   0.832   3.712  0.0453  0.0016 -0.4730
14802TIP3   OH265820   5.477   1.834  16.933 -0.0140  0.0070 -0.1076
14802TIP3    H165821   5.491   1.833  17.028  1.1790 -1.2897 -0.2953
14802TIP3    H265822   5.381   1.833  16.923 -0.1400 -0.2314  1.0754
14803TIP3   OH265823   4.482   5.622   1.227 -0.2399 -0.8353 -0.2734
14803TIP3    H165824   4.416   5.553   1.220  1.0611 -2.0174 -1.0188
14803TIP3    H265825   4.555   5.591   1.174 -0.2473  1.8402 -1.9814
14804TIP3   OH265826   5.920   1.601   0.751  0.1066 -0.3447  0.1566
14804TIP3    H165827   5.965   1.518   0.733 -0.8789 -1.4093  2.4530
14804TIP3    H265828   5.854   1.608   0.682  1.2659 -0.6503 -1.0023
14805TIP3   OH265829   3.275   5.883   4.932  0.0635  0.3889  0.2659
14805TIP3    H165830   3.350   5.919   4.884  0.8112 -1.5986 -0.0937
14805TIP3    H265831   3.206   5.874   4.867  0.2954 -0.0251  0.0747
14806TIP3   OH265832   5.666   2.455   4.194  0.3061 -0.1667 -0.6000
14806TIP3    H165833   5.657   2.413   4.280  0.2308 -0.2905 -0.6686
14806TIP3    H265834   5.742   2.513   4.204  0.3497 -0.2446 -0.4750
14807TIP3   OH265835   3.428   3.181   1.989  0.4498 -0.1959  0.3243
14807TIP3    H165836   3.417   3.093   2.026 -1.1776  0.8689  2.5253
14807TIP3    H265837   3.386   3.239   2.053 -1.1162  1.9167 -2.5045
14808TIP3   OH265838   3.903   2.802   3.894  0.1283 -0.5494  0.2091
14808TIP3    H165839   3.979   2.819   3.950  0.6327  2.4669 -1.2720
14808TIP3    H265840   3.831   2.850   3.936 -0.1721 -0.6324 -0.2098
14809TIP3   OH265841   0.761   3.970  15.362 -0.0161 -0.0638 -0.1588
14809TIP3    H165842   0.762   4.058  15.324  1.4352 -0.0049 -0.0350
14809TIP3    H265843   0.669   3.947  15.369 -0.4216  1.5743  0.0770
14810TIP3   OH265844   2.729   0.620  14.622  0.4988  0.8715 -0.1590
14810TIP3    H165845   2.731   0.640  14.715  1.3603  1.9359 -0.3900
14810TIP3    H265846   2.644   0.578  14.608  1.3191 -1.4032  1.4932
14811TIP3   OH265847   3.852   6.270   1.361  0.5829  0.3182 -0.2326
14811TIP3    H165848   3.823   6.193   1.314 -0.5616  0.5766  0.0465
14811TIP3    H265849   3.855   6.339   1.295  1.0430  0.1784 -0.3608
14812TIP3   OH265850   4.735   3.333  15.799 -0.0118  0.3361 -0.2724
14812TIP3    H165851   4.824   3.345  15.832 -0.8246  1.4193  1.5613
14812TIP3    H265852   4.746   3.273  15.724  2.2126  0.2597  0.0684
14813TIP3   OH265853   5.481   4.233   1.430  0.7421  0.0633 -0.2892
14813TIP3    H165854   5.546   4.291   1.391  1.7444 -0.9676 -0.1571
14813TIP3    H265855   5.503   4.231   1.523  2.2525 -2.5081 -0.6873
14814TIP3   OH265856   3.516   4.761   3.075  0.4514 -0.7939  0.1382
14814TIP3    H165857   3.443   4.701   3.062  1.7015 -1.7241 -3.1626
14814TIP3    H265858   3.502   4.830   3.010  2.0407 -0.5431  0.0454
14815TIP3   OH265859   4.196   1.622  16.246 -1.2941 -0.2987  0.1583
14815TIP3    H165860   4.121   1.674  16.216 -1.1482  0.3401  0.8800
14815TIP3    H265861   4.158   1.563  16.312 -1.4133 -0.9482 -0.4791
14816TIP3   OH265862   6.254   5.031   3.551  0.3554 -0.0331 -0.2159
14816TIP3    H165863   6.253   5.014   3.645 -0.8613 -0.5657 -0.3151
14816TIP3    H265864   6.222   4.950   3.511  2.2147 -0.3192 -1.1887
14817TIP3   OH265865   1.892   3.935   1.108  0.0077 -0.6625 -0.1087
14817TIP3    H165866   1.956   3.907   1.043  0.0728  0.2961 -0.4595
14817TIP3    H265867   1.944   3.981   1.174 -0.1639 -0.9437  0.2249
14818TIP3   OH265868   5.913   0.020   1.907 -0.0805 -0.1320 -0.0474
14818TIP3    H165869   5.954   0.076   1.841 -0.7456  0.0340 -0.3282
14818TIP3    H265870   5.900  -0.064   1.862  1.3620 -0.6759  0.5238
14819TIP3   OH265871   3.101   6.031  14.779 -0.5763  0.6761 -0.3403
14819TIP3    H165872   3.173   6.063  14.835  1.5220  0.8809 -3.0544
14819TIP3    H265873   3.090   6.099  14.713 -2.4668  0.0599 -0.6805
14820TIP3   OH265874   2.484   2.018   1.212 -0.8969 -0.8629  0.6505
14820TIP3    H165875   2.425   2.021   1.287 -0.1356  0.2108  1.2182
14820TIP3    H265876   2.496   2.110   1.187 -0.0503 -1.1207  0.0795
14821TIP3   OH265877   4.699   0.814  11.766 -0.7696  0.4153 -0.6010
14821TIP3    H165878   4.719   0.836  11.676 -0.2741  1.0143 -0.3458
14821TIP3    H265879   4.782   0.784  11.803 -0.5106  2.1455  0.2394
14822TIP3   OH265880   3.779   6.413  12.264 -0.0609  0.6968  0.4888
14822TIP3    H165881   3.865   6.421  12.304  0.0673 -0.5488  0.4790
14822TIP3    H265882   3.722   6.471  12.316  0.3951  0.1523  1.5994
14823TIP3   OH265883   3.222   5.638  13.431  0.2675 -0.1879  0.2345
14823TIP3    H165884   3.257   5.664  13.516  1.5373 -1.5193  0.1412
14823TIP3    H265885   3.159   5.706  13.409  1.3447  1.1945  1.3379
14824TIP3   OH265886   1.385   6.603   5.764  0.3410  0.2116  0.0805
14824TIP3    H165887   1.344   6.582   5.680 -2.1889  0.4732  1.1890
14824TIP3    H265888   1.422   6.520   5.794  1.9007  0.2701 -1.5941
14825TIP3   OH265889   2.459   6.442  13.669 -0.3021 -0.2336 -0.2923
14825TIP3    H165890   2.403   6.373  13.705 -1.1219  0.6441  0.1144
14825TIP3    H265891   2.520   6.463  13.740 -0.4555 -0.0886 -0.2060
14826TIP3   OH265892   1.035   1.955   3.112 -0.1595  0.1187  0.5146
14826TIP3    H165893   1.052   1.942   3.018  0.5024 -0.6573  0.7386
14826TIP3    H265894   1.084   2.034   3.134 -0.1272  0.1732  0.2520
14827TIP3   OH265895   2.069   3.870   0.600 -0.3552 -0.0478 -0.3095
14827TIP3    H165896   2.096   3.959   0.581  0.2575 -0.3872 -1.0768
14827TIP3    H265897   1.974   3.870   0.589 -0.3837  0.5756 -0.0255
14828TIP3   OH265898   3.699   4.864  15.754  0.7183  0.0268  0.2337
14828TIP3    H165899   3.711   4.909  15.671  2.0328  1.1284  0.9930
14828TIP3    H265900   3.785   4.867  15.796  0.1671 -0.8330  1.4789
14829TIP3   OH265901   1.853   2.519  11.702  0.3077 -0.2376 -0.6905
14829TIP3    H165902   1.912   2.562  11.764  0.6208 -1.9333  0.1958
14829TIP3    H265903   1.892   2.535  11.616  1.7859 -0.9256 -0.1489
14830TIP3   OH265904   4.723   0.319  14.800  0.4418 -0.0719  0.0291
14830TIP3    H165905   4.752   0.340  14.889 -0.7461 -0.2989  0.4721
14830TIP3    H265906   4.783   0.368  14.744  1.0212  0.3026  0.9614
14831TIP3   OH265907   1.768   3.270  12.359 -0.2830 -0.3382  0.4926
14831TIP3    H165908   1.691   3.327  12.354 -1.0101 -1.2602  0.9787
14831TIP3    H265909   1.799   3.281  12.449  0.1030 -0.0531  0.3283
14832TIP3   OH265910   6.202   4.787  11.317 -0.0900  0.4331  0.0555
14832TIP3    H165911   6.203   4.745  11.230  0.6094  0.1404  0.2053
14832TIP3    H265912   6.293   4.809  11.334 -0.2917  0.9100  0.5217
14833TIP3   OH265913   4.006   5.301   4.960  0.0774 -0.4571  0.0314
14833TIP3    H165914   4.055   5.375   4.926 -0.4789  0.4313  1.1484
14833TIP3    H265915   4.066   5.227   4.952  1.2745  0.4480  0.5411
14834TIP3   OH265916   5.840   4.498   6.197  0.2877  0.0796 -0.0390
14834TIP3    H165917   5.763   4.454   6.161  0.0136  0.6155 -0.1191
14834TIP3    H265918   5.836   4.480   6.291  0.4868 -0.5391 -0.1490
14835TIP3   OH265919   6.259   5.792   0.632  0.2171 -0.0661  0.2730
14835TIP3    H165920   6.173   5.753   0.643  0.6917 -1.1737  0.1646
14835TIP3    H265921   6.252   5.846   0.553 -0.6255  0.5616  0.7822
14836TIP3   OH265922   5.791   5.839   1.029 -0.0771  0.2942 -0.3696
14836TIP3    H165923   5.804   5.903   0.959  0.3742  0.9486  0.2959
14836TIP3    H265924   5.861   5.776   1.017 -0.6647 -0.2068 -1.1735
14837TIP3   OH265925   0.768   3.097  12.714  0.4292 -0.0233 -0.1630
14837TIP3    H165926   0.688   3.147  12.695  1.0884  0.5226 -1.5736
14837TIP3    H265927   0.793   3.059  12.629  2.3878  0.8800  0.0038
14838TIP3   OH265928   4.576   3.966  13.105 -0.5871 -0.9769  0.0249
14838TIP3    H165929   4.524   3.933  13.178 -0.1024 -1.6167  0.0835
14838TIP3    H265930   4.633   3.892  13.081  0.1288 -0.3551 -0.1886
14839TIP3   OH265931   4.399   0.793  12.121  0.1739 -0.0395  0.6725
14839TIP3    H165932   4.464   0.857  12.151 -0.7763  2.1906 -1.8538
14839TIP3    H265933   4.324   0.846  12.094 -2.0175 -2.4582  1.7315
14840TIP3   OH265934   6.366   0.764  10.787  0.0436 -0.2946 -0.1595
14840TIP3    H165935   6.380   0.763  10.692 -0.1402 -0.5399 -0.1874
14840TIP3    H265936   6.270   0.763  10.796  0.0555 -2.1907  0.0293
14841TIP3   OH265937   2.204   1.562   1.249  0.1395  0.1947 -0.0763
14841TIP3    H165938   2.167   1.627   1.190  0.2648  0.3779  0.0439
14841TIP3    H265939   2.283   1.532   1.204  1.0326  1.3942  0.6441
14842TIP3   OH265940   4.983   5.819  15.412  0.6586  0.1647  0.0372
14842TIP3    H165941   4.938   5.784  15.489  1.0877  0.8896  0.6243
14842TIP3    H265942   4.940   5.903  15.395  0.5744  0.0111 -0.4979
14843TIP3   OH265943   0.974   5.322  16.461 -0.0636 -0.9200  0.0454
14843TIP3    H165944   0.968   5.337  16.555  0.5921  1.2209 -0.2308
14843TIP3    H265945   1.067   5.328  16.440 -0.1676 -1.7012 -0.6927
14844TIP3   OH265946   3.236   2.051  14.766  0.4589  0.2057 -0.1134
14844TIP3    H165947   3.190   2.096  14.837  1.1944  0.1329  0.4148
14844TIP3    H265948   3.284   2.121  14.721  1.3763  0.0068  0.5352
14845TIP3   OH265949   2.992   5.020   4.404  0.3244 -0.1381 -0.1699
14845TIP3    H165950   2.989   5.072   4.485 -0.6128 -0.2331 -0.1463
14845TIP3    H265951   2.944   4.941   4.425 -2.1317  0.9323 -1.6195
14846TIP3   OH265952   1.431   0.008  16.992  0.2672 -0.1983 -0.2569
14846TIP3    H165953   1.449  -0.044  17.071 -1.6505 -1.6556 -0.7463
14846TIP3    H265954   1.514   0.053  16.975  0.6309  0.4056  2.7583
14847TIP3   OH265955   3.867   0.799  14.624 -0.5296  0.1639 -1.1438
14847TIP3    H165956   3.903   0.747  14.696 -0.8107 -0.5257 -1.4929
14847TIP3    H265957   3.928   0.872  14.613 -0.4599  0.2447 -0.2391
14848TIP3   OH265958   3.337   2.390   4.180 -0.0999 -0.6049  0.1872
14848TIP3    H165959   3.401   2.442   4.229 -0.0587 -0.1987 -0.2863
14848TIP3    H265960   3.268   2.452   4.157  0.2995 -0.5783 -0.9991
14849TIP3   OH265961   5.983   5.634   2.381 -0.4885  0.1449  0.2098
14849TIP3    H165962   6.074   5.655   2.404 -0.2683 -1.7012  1.1131
14849TIP3    H265963   5.968   5.680   2.299  1.7457 -0.7251 -0.7266
14850TIP3   OH265964   0.528   6.601  12.625 -0.1122 -0.1408 -0.4249
14850TIP3    H165965   0.557   6.684  12.664 -1.0526 -0.2831  0.6100
14850TIP3    H265966   0.560   6.534  12.685  0.2644 -0.5067 -1.0298
14851TIP3   OH265967   4.063   6.454   4.175 -0.3775 -0.1975 -0.4826
14851TIP3    H165968   4.079   6.383   4.113  0.2106 -0.0282 -0.5332
14851TIP3    H265969   3.970   6.448   4.196 -0.1156 -1.6461  0.3353
14852TIP3   OH265970   5.323   2.443   6.610 -0.2233  0.2937  0.1471
14852TIP3    H165971   5.410   2.430   6.649 -0.6613 -0.3515  0.9202
14852TIP3    H265972   5.288   2.520   6.655 -0.3675  0.0885  0.3838
14853TIP3   OH265973   4.015   0.141  12.478  0.2913 -0.1544 -0.2081
14853TIP3    H165974   3.931   0.183  12.459  0.8538  0.2143 -2.0055
14853TIP3    H265975   4.026   0.151  12.572 -2.0792 -0.9608  0.2017
14854TIP3   OH265976   2.264   6.521  15.709  0.2180  0.3583 -0.2430
14854TIP3    H165977   2.261   6.547  15.801  0.4409  1.1179 -0.4463
14854TIP3    H265978   2.321   6.443  15.708  2.5264  1.9915 -0.0995
14855TIP3   OH265979   5.725   4.536  14.194  0.3198 -0.6939  0.4060
14855TIP3    H165980   5.641   4.537  14.239 -0.5558  0.1321 -1.2040
14855TIP3    H265981   5.768   4.456  14.225 -1.1151 -1.1988  1.1354
14856TIP3   OH265982   1.709   1.914  13.676  0.0902 -0.2469 -0.0656
14856TIP3    H165983   1.702   1.971  13.753  0.5195 -1.7719  1.1321
14856TIP3    H265984   1.690   1.972  13.602  1.7525  1.7639  0.9937
14857TIP3   OH265985   2.213   3.782  12.398 -0.3639 -0.0926  0.5871
14857TIP3    H165986   2.123   3.773  12.366 -0.1824 -0.2143  0.0944
14857TIP3    H265987   2.244   3.691  12.407 -0.3492 -0.0538  0.9259
14858TIP3   OH265988   4.547   2.048   2.515 -0.4320  0.2990 -0.1955
14858TIP3    H165989   4.558   1.982   2.447 -0.0796  0.7557 -0.5841
14858TIP3    H265990   4.627   2.100   2.511 -1.1268  1.3546 -0.5400
14859TIP3   OH265991   6.333   1.428   0.037 -0.4622  0.3230 -0.1630
14859TIP3    H165992   6.336   1.378  -0.045 -0.6180 -0.1869  0.1361
14859TIP3    H265993   6.291   1.368   0.100 -1.4067  1.1358 -0.0135
14860TIP3   OH265994   4.250   6.019   1.294 -0.3854 -0.1321  1.1627
14860TIP3    H165995   4.331   5.972   1.271 -0.3270 -0.1285  1.3587
14860TIP3    H265996   4.246   6.014   1.390  0.0498  0.9602  1.2459
14861TIP3   OH265997   3.953   0.780   5.927  0.5515 -0.2977 -0.1511
14861TIP3    H165998   3.966   0.854   5.868 -0.2562 -0.2440 -0.2638
14861TIP3    H265999   4.016   0.715   5.898  2.0528  0.7540  0.6394
14862TIP3   OH266000   3.220   2.374   0.729  0.0165 -0.0712  1.0156
14862TIP3    H166001   3.292   2.311   0.726 -1.1685 -1.4028 -0.1359
14862TIP3    H266002   3.209   2.401   0.638  0.4058  1.7005  1.4807
14863TIP3   OH266003   2.921   3.111  15.254 -0.1394 -0.1395 -0.7092
14863TIP3    H166004   2.918   3.016  15.257 -3.2204 -0.0370  0.0348
14863TIP3    H266005   3.015   3.131  15.245  0.4766 -3.2284 -1.8379
14864TIP3   OH266006   1.628   5.218   4.345  0.1094 -0.1861  0.2525
14864TIP3    H166007   1.591   5.191   4.429  0.8202  0.4956  0.7928
14864TIP3    H266008   1.620   5.314   4.345  1.2933 -0.0781  0.1134
14865TIP3   OH266009   6.029   1.959   5.741  0.5744 -0.8078  0.0542
14865TIP3    H166010   6.070   2.045   5.739  0.5332 -0.7844  0.2813
14865TIP3    H266011   6.061   1.919   5.822  1.6384 -1.5077 -0.6906
14866TIP3   OH266012   1.731   6.455   3.805 -0.0664  0.4166  0.4144
14866TIP3    H166013   1.659   6.407   3.846 -2.8811  1.8874 -2.5671
14866TIP3    H266014   1.796   6.465   3.875 -1.8095 -2.7927  2.6120
14867TIP3   OH266015   3.385   5.188  15.201  0.5772  0.0976  0.9324
14867TIP3    H166016   3.405   5.109  15.252  0.0905 -0.6439 -0.0155
14867TIP3    H266017   3.471   5.223  15.176  0.7582 -1.5359 -0.7879
14868TIP3   OH266018   4.079   1.665   5.859 -0.0210  0.7389  0.5188
14868TIP3    H166019   4.014   1.595   5.851 -0.5328  1.2213  0.4969
14868TIP3    H266020   4.126   1.644   5.939 -0.9624  1.0375  1.1482
14869TIP3   OH266021   0.063   5.459   0.761 -0.8207 -0.1744 -0.0226
14869TIP3    H166022   0.045   5.407   0.839 -1.8863 -0.2470 -0.3195
14869TIP3    H266023  -0.023   5.486   0.728 -0.4536 -1.1489 -1.8433
14870TIP3   OH266024   5.396   1.421   4.178 -0.0071  0.0786  0.0389
14870TIP3    H166025   5.302   1.411   4.196 -0.0456  1.3916  0.6286
14870TIP3    H266026   5.401   1.430   4.082 -0.7240  2.3432  0.1936
14871TIP3   OH266027   5.615   0.887  12.817 -0.0487  0.1522  0.2891
14871TIP3    H166028   5.558   0.810  12.819  1.5596 -1.1258 -0.8371
14871TIP3    H266029   5.631   0.908  12.909 -1.9074  0.2166  0.6112
14872TIP3   OH266030   6.284   1.237   6.720 -0.0028 -0.0519  0.3342
14872TIP3    H166031   6.286   1.250   6.815 -1.5207  0.3751  0.3207
14872TIP3    H266032   6.299   1.143   6.709 -1.8875 -0.4898  1.1405
14873TIP3   OH266033   2.366   4.621  15.907 -0.2882 -0.7886 -0.1420
14873TIP3    H166034   2.425   4.630  15.982 -2.9515 -0.6815  2.0235
14873TIP3    H266035   2.372   4.529  15.883 -0.1634 -1.0537  0.8684
14874TIP3   OH266036   3.956   1.770  16.230  0.1831  0.2979  0.0476
14874TIP3    H166037   3.940   1.819  16.311 -1.7424 -2.6129  1.5177
14874TIP3    H266038   3.884   1.794  16.172 -1.0719 -1.1733  0.9739
14875TIP3   OH266039   4.896   1.751  10.568 -0.3018  0.1492 -0.0785
14875TIP3    H166040   4.892   1.664  10.607  1.8098  0.3873  0.7095
14875TIP3    H266041   4.804   1.776  10.557 -0.9411 -2.4644 -1.0282
14876TIP3   OH266042   5.381   0.196  15.501  0.8809  0.1428  0.3864
14876TIP3    H166043   5.437   0.266  15.467  0.6332  0.5743  0.8589
14876TIP3    H266044   5.440   0.121  15.510  1.8404  1.1554  2.7581
14877TIP3   OH266045   6.121   6.234   4.589 -0.5986 -0.4318 -0.4124
14877TIP3    H166046   6.216   6.230   4.598 -0.4302  2.8744 -0.2902
14877TIP3    H266047   6.106   6.268   4.501 -1.6372  0.8422  0.2373
14878TIP3   OH266048   3.399   1.341  13.708 -0.6406  0.2164  0.0492
14878TIP3    H166049   3.469   1.372  13.651  0.0742  0.9059  1.2777
14878TIP3    H266050   3.422   1.250  13.727 -1.0580 -0.1160 -1.0176
14879TIP3   OH266051   1.696   1.743   0.246  0.1313  0.0577 -0.4383
14879TIP3    H166052   1.654   1.659   0.267  0.6967 -0.0791  0.1471
14879TIP3    H266053   1.727   1.732   0.157  0.8874 -0.6306 -0.0958
14880TIP3   OH266054   2.126   5.513  12.218  0.2071  0.6063 -0.5303
14880TIP3    H166055   2.149   5.425  12.248  0.1605  1.0181  0.7677
14880TIP3    H266056   2.088   5.500  12.132  0.2581 -0.6387 -0.3778
14881TIP3   OH266057   0.429   4.633   6.565 -0.1817 -0.2648  0.2083
14881TIP3    H166058   0.523   4.613   6.567 -0.4888 -1.7165  0.9539
14881TIP3    H266059   0.424   4.725   6.592  0.9320 -0.5773  1.5486
14882TIP3   OH266060   1.161   0.209   4.518  0.3724  0.1541 -0.4778
14882TIP3    H166061   1.108   0.152   4.574 -0.2024  0.7341 -0.4320
14882TIP3    H266062   1.169   0.160   4.436 -0.1838  0.0448 -0.4657
14883TIP3   OH266063   3.995   0.472  11.582  0.0986  0.1528 -0.1594
14883TIP3    H166064   4.074   0.522  11.598  0.5554 -0.8650  0.8654
14883TIP3    H266065   3.931   0.508  11.644  0.4274 -0.5031  0.5793
14884TIP3   OH266066   4.166   2.512  14.910  0.1514  0.0356  0.1446
14884TIP3    H166067   4.228   2.439  14.908 -0.0874 -0.1359 -1.3190
14884TIP3    H266068   4.221   2.590  14.906  0.3546 -0.0870  0.5418
14885TIP3   OH266069   6.206   1.129   1.384  1.1679  0.0044 -0.7496
14885TIP3    H166070   6.128   1.124   1.330  0.2479 -0.1125  0.5690
14885TIP3    H266071   6.251   1.209   1.355 -0.0637  0.7237 -0.7007
14886TIP3   OH266072   5.396   0.866   2.186  0.0954  0.0445  0.0607
14886TIP3    H166073   5.469   0.832   2.135  0.4239 -0.9483  1.1643
14886TIP3    H266074   5.357   0.934   2.131  1.4600  0.1431 -0.8002
14887TIP3   OH266075   6.118   6.482  14.797 -0.1918  0.2769  0.1945
14887TIP3    H166076   6.158   6.544  14.858 -1.9768  1.5780  0.0864
14887TIP3    H266077   6.070   6.421  14.853  0.8195 -0.4797  0.2508
14888TIP3   OH266078   3.886   4.597  12.446  0.1210  0.6334  0.0109
14888TIP3    H166079   3.801   4.608  12.402  0.6219 -0.3878 -1.2602
14888TIP3    H266080   3.949   4.637  12.386  0.8539 -1.0826 -0.4008
14889TIP3   OH266081   6.698   2.990   2.890  0.2164  0.3811 -0.1768
14889TIP3    H166082   6.751   2.978   2.968  1.9607  0.6797 -1.2768
14889TIP3    H266083   6.724   2.918   2.832  0.4074  1.3055 -1.2547
14890TIP3   OH266084   0.304   1.638  10.739 -0.5633 -0.1736  0.6255
14890TIP3    H166085   0.394   1.631  10.773 -0.0080  1.0013 -0.5910
14890TIP3    H266086   0.265   1.553  10.761  1.4376 -1.4585 -0.5447
14891TIP3   OH266087   1.346   5.815   0.790  0.1915  0.0730  0.3521
14891TIP3    H166088   1.414   5.877   0.764 -0.1249 -0.5968 -2.2171
14891TIP3    H266089   1.360   5.739   0.732 -1.5198 -0.8655  1.1398
14892TIP3   OH266090   4.953   6.117  15.310  0.1189  0.0089  0.6842
14892TIP3    H166091   5.002   6.199  15.319 -0.8694  0.7140 -0.2293
14892TIP3    H266092   5.009   6.063  15.254  0.3026  0.4446  0.4392
14893TIP3   OH266093   5.467   5.148   5.602  0.1246  0.4592 -0.1926
14893TIP3    H166094   5.473   5.219   5.537  2.2223  0.1815 -0.3093
14893TIP3    H266095   5.526   5.080   5.569  1.7300  0.5744  2.3294
14894TIP3   OH266096   6.497   2.410  11.657 -0.5717 -0.3069 -0.5506
14894TIP3    H166097   6.478   2.489  11.606  1.5064 -0.6938 -2.0189
14894TIP3    H266098   6.591   2.416  11.674 -0.5177 -2.1701 -0.1785
14895TIP3   OH266099   0.637   0.091   5.458  0.5509  0.1123  0.6725
14895TIP3    H166100   0.646   0.039   5.538 -1.7192 -1.1910  0.1141
14895TIP3    H266101   0.542   0.098   5.444  0.8942 -0.2434 -2.2449
14896TIP3   OH266102   6.449   0.264  13.441 -0.1609 -0.3695  0.3283
14896TIP3    H166103   6.453   0.198  13.373 -0.4056 -0.2775  0.2259
14896TIP3    H266104   6.495   0.340  13.404 -0.2506 -0.3363  0.2860
14897TIP3   OH266105   6.122   1.576   2.176 -0.1157 -0.3307 -0.3674
14897TIP3    H166106   6.089   1.662   2.203  0.6218 -0.4893  1.0927
14897TIP3    H266107   6.044   1.523   2.164 -0.5137  0.1199  0.2089
14898TIP3   OH266108   4.344   3.411  13.075 -0.3615 -0.0463 -0.6748
14898TIP3    H166109   4.282   3.338  13.079 -0.3076 -0.0877 -0.6117
14898TIP3    H266110   4.394   3.405  13.156  1.7805 -1.8278 -2.0746
14899TIP3   OH266111   2.823   4.061   5.031 -0.1727 -0.2745 -0.1590
14899TIP3    H166112   2.848   4.042   4.940 -1.0071 -0.7935 -0.2817
14899TIP3    H266113   2.757   3.995   5.052 -0.5664  0.3448  0.5649
14900TIP3   OH266114   1.473   5.960  16.897 -0.0367  0.0525  0.2011
14900TIP3    H166115   1.397   5.911  16.865  0.5045 -0.7496  0.1176
14900TIP3    H266116   1.508   5.907  16.969 -0.3323  1.0782  1.1107
14901TIP3   OH266117   6.134   5.895  15.240 -0.2308 -0.0888 -0.2788
14901TIP3    H166118   6.094   5.953  15.175  1.0551  0.2511 -0.7774
14901TIP3    H266119   6.183   5.953  15.297 -0.5970 -0.4859  0.4388
14902TIP3   OH266120   6.144   4.264   2.887  0.6656 -0.2322 -0.3638
14902TIP3    H166121   6.198   4.197   2.846 -1.4755 -1.7344 -0.8054
14902TIP3    H266122   6.068   4.273   2.830  0.4090  1.8303  0.2492
14903TIP3   OH266123   0.568   3.608  15.516 -0.3090  0.1226 -0.1295
14903TIP3    H166124   0.583   3.611  15.611  0.9548 -1.5459 -0.2317
14903TIP3    H266125   0.608   3.525  15.489 -0.6828  0.5679 -2.1224
14904TIP3   OH266126   1.730   2.854   3.123  0.0878 -0.2706 -0.3804
14904TIP3    H166127   1.649   2.803   3.117 -0.6131  0.3575  2.5426
14904TIP3    H266128   1.702   2.945   3.107  0.0398  0.0382  1.3355
14905TIP3   OH266129   0.440   4.707  13.108 -0.1278  0.3493  0.5561
14905TIP3    H166130   0.409   4.616  13.110 -0.4087  0.4116 -0.6489
14905TIP3    H266131   0.377   4.755  13.162 -0.6493  0.0372  0.2300
14906TIP3   OH266132   0.550   0.356  13.197 -0.2858  0.2322  0.1171
14906TIP3    H166133   0.514   0.310  13.273 -0.8780 -1.0957 -0.9557
14906TIP3    H266134   0.489   0.428  13.182  0.3764  1.0936  1.5001
14907TIP3   OH266135   4.601   6.427   2.359 -0.2769  0.3553 -0.2549
14907TIP3    H166136   4.599   6.378   2.441  2.4302 -0.7838 -0.7950
14907TIP3    H266137   4.671   6.492   2.373  0.4995 -0.1337 -1.7717
14908TIP3   OH266138   1.677   6.484   4.149  0.0676 -0.2049  0.1852
14908TIP3    H166139   1.768   6.468   4.124 -0.1935  0.4784 -1.2683
14908TIP3    H266140   1.683   6.555   4.213  0.5052  0.4891 -0.6045
14909TIP3   OH266141   2.988   3.467  16.278  0.9523 -0.3676 -0.9078
14909TIP3    H166142   2.951   3.402  16.219  0.8401 -0.2992 -0.9136
14909TIP3    H266143   2.978   3.550  16.233 -0.5031 -0.1207 -0.1601
14910TIP3   OH266144   4.508   4.999   3.077  0.5106 -0.0761 -0.5715
14910TIP3    H166145   4.508   4.983   2.983 -0.5292 -0.4414 -0.5126
14910TIP3    H266146   4.490   4.913   3.116 -0.2723  0.3071 -0.0836
14911TIP3   OH266147   6.336   4.018   0.639  0.1854 -0.5735  0.0719
14911TIP3    H166148   6.323   3.979   0.553  0.3563 -0.2625 -0.0940
14911TIP3    H266149   6.422   3.985   0.667  0.4858 -0.0478 -0.2163
14912TIP3   OH266150   3.455   6.295  14.739  0.1160 -0.2674  0.1067
14912TIP3    H166151   3.471   6.295  14.645  1.8260 -2.0593  0.3629
14912TIP3    H266152   3.525   6.350  14.775 -0.2156 -0.0245  0.3882
14913TIP3   OH266153   2.923   5.649  13.721 -0.0528 -0.2053 -0.7187
14913TIP3    H166154   2.936   5.576  13.661  1.4239 -0.3945 -0.1916
14913TIP3    H266155   2.921   5.609  13.808 -1.5894  0.1306 -0.5826
14914TIP3   OH266156   5.382   4.541  10.823  0.0551  0.1615  0.2687
14914TIP3    H166157   5.336   4.622  10.842 -0.5688  0.3039 -1.7058
14914TIP3    H266158   5.397   4.544  10.729  3.1709 -0.3775  0.7034
14915TIP3   OH266159   0.205   3.833   1.866 -0.2023 -0.5443  0.3018
14915TIP3    H166160   0.209   3.927   1.880  1.1119 -0.1762 -2.2875
14915TIP3    H266161   0.223   3.795   1.952 -1.0123  1.5324  1.4306
14916TIP3   OH266162   4.521   2.064   3.318 -0.2982 -0.7914  0.3033
14916TIP3    H166163   4.522   1.971   3.342 -0.1331 -0.6077  1.0272
14916TIP3    H266164   4.511   2.110   3.401  1.8763 -0.0880  0.2111
14917TIP3   OH266165   0.936   5.183   3.339  0.1451 -0.2890 -0.1602
14917TIP3    H166166   0.874   5.157   3.408  0.9543 -0.1728  0.6283
14917TIP3    H266167   0.901   5.143   3.259 -1.8699  1.1652 -0.0590
14918TIP3   OH266168   0.105   6.298  12.852  0.4961 -0.2879 -0.3565
14918TIP3    H166169   0.115   6.210  12.886  0.1999  0.0345  0.5667
14918TIP3    H266170   0.069   6.349  12.925 -1.3516  0.1123 -1.4906
14919TIP3   OH266171   5.390   3.188   2.358 -0.4711  0.3228  0.3775
14919TIP3    H166172   5.436   3.271   2.374 -0.6659  0.8395 -1.6317
14919TIP3    H266173   5.303   3.201   2.395 -0.0600  0.5144  1.2945
14920TIP3   OH266174   0.516   2.683   0.420 -0.0113 -0.3185 -0.5724
14920TIP3    H166175   0.440   2.733   0.452  0.5616  0.3899 -0.3196
14920TIP3    H266176   0.530   2.715   0.331  0.1628 -0.2506 -0.5206
14921TIP3   OH266177   3.010   3.156  17.230 -0.2712  0.2111 -0.3567
14921TIP3    H166178   2.997   3.105  17.310  1.3502  1.3400  0.6419
14921TIP3    H266179   2.959   3.109  17.163  0.1496 -1.9756  0.8284
14922TIP3   OH266180   5.448   1.349  15.878 -0.2548  0.0198  0.3230
14922TIP3    H166181   5.452   1.257  15.901 -0.2626 -0.4474 -1.4935
14922TIP3    H266182   5.361   1.377  15.907  0.0107 -0.3485  1.5127
14923TIP3   OH266183   3.700   0.177   1.183  0.0027  0.2534  0.1210
14923TIP3    H166184   3.677   0.087   1.204 -0.4650  0.0619 -1.1738
14923TIP3    H266185   3.782   0.170   1.133  0.4070  0.6069  0.7273
14924TIP3   OH266186   3.888   3.222  16.966  0.4774 -0.0890  0.5203
14924TIP3    H166187   3.842   3.302  16.992 -1.1313 -1.6778  2.8362
14924TIP3    H266188   3.961   3.253  16.912 -1.5992  2.7262 -0.8273
14925TIP3   OH266189   6.175   0.590   1.864 -0.2999  0.2527  0.8998
14925TIP3    H166190   6.136   0.620   1.946 -1.0161  0.3626  0.5328
14925TIP3    H266191   6.260   0.635   1.860 -0.3569  0.4193  1.4686
14926TIP3   OH266192   3.626   4.085   3.508 -0.5402  0.4987 -0.3053
14926TIP3    H166193   3.713   4.082   3.547 -0.7773 -3.4549  0.1453
14926TIP3    H266194   3.636   4.140   3.430  2.3393  0.1639 -0.2115
14927TIP3   OH266195   1.344   1.026  14.543  0.4102 -0.3696  0.3146
14927TIP3    H166196   1.360   1.101  14.599 -0.3895  0.1365 -0.1338
14927TIP3    H266197   1.403   1.038  14.468  1.0691 -0.7584  0.7579
14928TIP3   OH266198   0.287   4.613  15.510 -0.0679  0.0722  0.6885
14928TIP3    H166199   0.266   4.522  15.490  0.2392  0.1982 -0.2115
14928TIP3    H266200   0.351   4.639  15.444 -0.6057  1.1318  0.5656
14929TIP3   OH266201   2.393   6.189   1.392  0.3073  0.0821  0.1547
14929TIP3    H166202   2.297   6.189   1.398  0.0613 -0.1351 -3.0800
14929TIP3    H266203   2.419   6.271   1.434 -1.3835  0.8270 -0.2016
14930TIP3   OH266204   2.339   2.323   5.423 -0.2826 -0.1683 -0.4158
14930TIP3    H166205   2.405   2.284   5.480 -0.2417  0.7065  0.1459
14930TIP3    H266206   2.261   2.270   5.438  0.4471 -1.6492 -1.6003
14931TIP3   OH266207   1.933   2.140  13.361  0.2094 -0.4598  0.2627
14931TIP3    H166208   1.874   2.109  13.430  0.1406 -1.6369 -0.3091
14931TIP3    H266209   1.936   2.235  13.372  1.4703 -0.7640  2.9008
14932TIP3   OH266210   0.101   0.408   2.031  0.2848 -0.0771 -0.3885
14932TIP3    H166211   0.135   0.488   2.071 -0.1022  0.6850 -1.5723
14932TIP3    H266212   0.012   0.430   2.004  0.2553 -0.8303 -0.9397
14933TIP3   OH266213   6.030   4.670   3.707  0.1256  0.1934  0.4270
14933TIP3    H166214   5.949   4.665   3.757 -0.1643  1.8860  0.1522
14933TIP3    H266215   6.003   4.655   3.616  0.1523  0.4505  0.3744
14934TIP3   OH266216   1.391   1.188   0.564 -0.0196 -0.2535 -0.1154
14934TIP3    H166217   1.364   1.226   0.647 -0.8835  1.0246 -0.9667
14934TIP3    H266218   1.430   1.261   0.515  1.5456 -1.2474 -0.3836
14935TIP3   OH266219   5.424   4.394   2.669 -0.3297  0.2328 -0.0963
14935TIP3    H166220   5.457   4.434   2.589  1.1486  0.1944  0.4875
14935TIP3    H266221   5.471   4.439   2.740 -0.5486 -0.7392  0.6840
14936TIP3   OH266222   5.125   0.861   3.031 -0.1521  0.4353  0.2604
14936TIP3    H166223   5.148   0.821   3.115 -3.1069 -0.3498  0.7420
14936TIP3    H266224   5.098   0.950   3.054 -0.7012  0.3087  0.1046
14937TIP3   OH266225   2.672   6.337   4.254 -0.7327 -0.6668  0.5333
14937TIP3    H166226   2.706   6.405   4.196 -1.2337  0.4001  1.4495
14937TIP3    H266227   2.749   6.300   4.297 -0.6309  1.6431  2.5038
14938TIP3   OH266228   0.670   3.218  14.510 -0.2423  0.4448  0.3776
14938TIP3    H166229   0.692   3.165  14.587  1.2998  0.5884  0.0515
14938TIP3    H266230   0.586   3.258  14.532  0.2056  0.5381  2.0285
14939TIP3   OH266231   1.451   2.998  14.360 -0.3505  0.0437  0.2400
14939TIP3    H166232   1.477   2.998  14.452 -0.2340 -0.3358  0.2087
14939TIP3    H266233   1.495   2.921  14.323 -1.5786 -0.6597  0.2048
14940TIP3   OH266234   5.577   2.804   3.514  0.2967  0.1805 -0.5954
14940TIP3    H166235   5.621   2.883   3.547  1.3657 -0.3176 -0.7880
14940TIP3    H266236   5.619   2.732   3.561  0.2963 -0.3721 -1.4207
14941TIP3   OH266237   4.167   2.980  16.617 -0.8696  0.4425  0.0139
14941TIP3    H166238   4.237   3.004  16.557 -0.3269  0.5492  0.6757
14941TIP3    H266239   4.213   2.947  16.695 -1.5526  0.7158  0.5330
14942TIP3   OH266240   2.625   2.499  12.643 -1.4903  0.4100  0.8492
14942TIP3    H166241   2.656   2.589  12.639  0.1624 -0.1488  0.4774
14942TIP3    H266242   2.593   2.489  12.733  1.3809  0.4337  1.9415
14943TIP3   OH266243   6.236   2.184  16.495 -0.2116 -0.4734 -0.2743
14943TIP3    H166244   6.246   2.180  16.590  1.5939  0.5445 -0.4042
14943TIP3    H266245   6.308   2.239  16.466 -0.6471 -0.9310 -2.2607
14944TIP3   OH266246   0.884   1.262   1.485 -0.2749  0.3470 -0.4291
14944TIP3    H166247   0.835   1.184   1.459  3.0622 -1.7633 -0.7626
14944TIP3    H266248   0.975   1.240   1.466  1.0315  3.3299  1.9301
14945TIP3   OH266249   4.007   4.283   6.154  0.2013 -0.0781  0.5081
14945TIP3    H166250   4.066   4.209   6.135  0.5480 -0.6088  3.4854
14945TIP3    H266251   4.060   4.361   6.135 -0.0349 -0.5436 -2.2585
14946TIP3   OH266252   4.651   5.517   4.462 -0.0372  0.1339 -0.0262
14946TIP3    H166253   4.631   5.573   4.536 -0.2118 -0.4853  0.3969
14946TIP3    H266254   4.746   5.527   4.449 -0.1815  1.0564 -0.3918
14947TIP3   OH266255   0.060   6.369   6.555 -0.2863 -0.2526  0.3531
14947TIP3    H166256   0.067   6.370   6.650 -0.3129 -0.6067  0.3606
14947TIP3    H266257  -0.034   6.374   6.538 -0.5405 -3.7081  0.4259
14948TIP3   OH266258   0.291   4.416   5.001  0.3194 -0.3129 -0.0389
14948TIP3    H166259   0.294   4.467   5.082 -0.5941 -1.4204  0.7199
14948TIP3    H266260   0.382   4.401   4.977  0.5965 -0.1231  0.8910
14949TIP3   OH266261   5.131   2.340   4.670 -0.2497  0.2583  0.3548
14949TIP3    H166262   5.130   2.294   4.586 -1.3702  0.4054  0.2790
14949TIP3    H266263   5.223   2.365   4.683  0.3264 -1.6898  0.2397
14950TIP3   OH266264   4.525   1.041  16.192 -0.7460 -0.1355 -0.0659
14950TIP3    H166265   4.563   0.990  16.121  0.6983  0.3729  0.3196
14950TIP3    H266266   4.489   0.976  16.252  3.0544 -0.8640  1.5326
14951TIP3   OH266267   4.828   0.363  12.751  0.2967  0.2449  0.4309
14951TIP3    H166268   4.853   0.276  12.784 -0.5585 -0.0797  0.2313
14951TIP3    H266269   4.911   0.409  12.739  0.7315 -0.4061  0.9311
14952TIP3   OH266270   1.564   3.258  17.143  0.0853  0.2902  0.2314
14952TIP3    H166271   1.622   3.205  17.197 -0.3227 -0.4529 -0.0447
14952TIP3    H266272   1.520   3.194  17.086 -0.5659  0.9010  0.0422
14953TIP3   OH266273   5.606   4.791  11.026  0.4144 -0.1178 -0.2869
14953TIP3    H166274   5.533   4.844  10.994  0.5935  0.7901  0.7680
14953TIP3    H266275   5.657   4.770  10.948 -1.1301 -1.0132 -1.0916
14954TIP3   OH266276   2.740   0.333   6.116 -0.0247  0.3268  0.1104
14954TIP3    H166277   2.691   0.357   6.038  2.4671  0.4647 -1.4672
14954TIP3    H266278   2.718   0.241   6.132  1.1150 -0.3557 -2.0806
14955TIP3   OH266279   0.976   1.292   5.954  0.3009  0.1238 -0.0670
14955TIP3    H166280   1.006   1.343   5.879 -1.4629 -0.3073 -1.1030
14955TIP3    H266281   1.050   1.235   5.975  1.2409  1.0734 -0.7227
14956TIP3   OH266282   0.166   0.277   3.424  0.4417  0.1045  0.0629
14956TIP3    H166283   0.150   0.367   3.396 -0.8311 -0.8997 -2.6405
14956TIP3    H266284   0.089   0.255   3.477 -1.1301 -0.5697 -2.4066
14957TIP3   OH266285   3.276   2.773   0.827 -0.4210  0.3244 -0.5241
14957TIP3    H166286   3.291   2.711   0.756 -1.5589 -1.3907  0.6924
14957TIP3    H266287   3.307   2.728   0.905 -1.1796  1.3312  0.3747
14958TIP3   OH266288   2.893   1.580  12.703  0.0063 -0.0536 -0.6124
14958TIP3    H166289   2.809   1.622  12.720  0.7610  1.0638  0.4795
14958TIP3    H266290   2.947   1.650  12.665  0.7039 -0.5224 -0.4890
14959TIP3   OH266291   4.235   3.154   4.262 -0.5482  0.1083  0.2015
14959TIP3    H166292   4.244   3.183   4.172 -1.5293 -0.6957 -0.1647
14959TIP3    H266293   4.285   3.218   4.313  0.8492  0.0108 -0.9960
14960TIP3   OH266294   5.691   5.539   3.674 -0.0089 -0.3729 -0.3668
14960TIP3    H166295   5.730   5.458   3.642  0.7617  0.3899 -1.3858
14960TIP3    H266296   5.689   5.529   3.769  2.8905 -0.3431 -0.2507
14961TIP3   OH266297   3.082   4.594   2.475  0.1209  0.1884  0.5442
14961TIP3    H166298   3.169   4.610   2.512  0.9321  0.2755 -1.3379
14961TIP3    H266299   3.079   4.647   2.395 -1.2996 -0.5395  0.0901
14962TIP3   OH266300   2.006   2.060  12.067  0.2403  0.4212 -0.0207
14962TIP3    H166301   2.082   2.008  12.042  0.2519 -0.4316  1.7594
14962TIP3    H266302   1.952   2.000  12.118 -0.3082  1.8351  1.0769
14963TIP3   OH266303   5.535   6.399   3.848  0.4032 -0.2664 -0.1782
14963TIP3    H166304   5.507   6.398   3.939  0.9199  0.8586  0.0014
14963TIP3    H266305   5.628   6.380   3.850  0.1179 -1.7946 -0.6052
14964TIP3   OH266306   3.200   0.122   5.636 -0.1858  0.2898 -0.3453
14964TIP3    H166307   3.152   0.043   5.664 -1.8540  1.9892  1.7675
14964TIP3    H266308   3.281   0.119   5.688 -0.6234  0.3920  0.3539
14965TIP3   OH266309   1.343   0.249   5.011  0.5156  0.0238 -0.1112
14965TIP3    H166310   1.374   0.282   5.095  0.8339  0.5721 -0.4364
14965TIP3    H266311   1.406   0.283   4.947 -0.2607  0.4306 -0.6787
14966TIP3   OH266312   2.251   1.660   6.263  0.3341  0.6182  0.0159
14966TIP3    H166313   2.228   1.659   6.356 -1.9970 -0.6822 -0.5504
14966TIP3    H266314   2.288   1.573   6.246 -0.1700  0.4985 -0.4887
14967TIP3   OH266315   4.123   1.722  16.686  0.1885 -0.6210 -0.0563
14967TIP3    H166316   4.042   1.759  16.653  0.6354  0.1955 -0.2371
14967TIP3    H266317   4.113   1.724  16.781  0.4623  0.5439 -0.0430
14968TIP3   OH266318   5.325   2.660   2.533  0.3233  0.7374 -0.3494
14968TIP3    H166319   5.324   2.719   2.457 -1.1422  1.5637  0.2770
14968TIP3    H266320   5.345   2.718   2.607  1.6066 -0.0391 -0.0886
14969TIP3   OH266321   2.915   3.534   6.062 -0.1084 -0.0260 -0.2851
14969TIP3    H166322   2.868   3.544   6.144 -1.1877 -1.1658 -0.7454
14969TIP3    H266323   2.856   3.484   6.006  0.5376  0.8747 -1.8180
14970TIP3   OH266324   4.153   4.346  13.698 -0.0321  0.1009 -0.2467
14970TIP3    H166325   4.080   4.306  13.652  0.0228  0.0292 -0.2726
14970TIP3    H266326   4.177   4.282  13.765 -1.2009  0.9188  0.9934
14971TIP3   OH266327   1.772   5.555  12.827 -0.1997 -0.0128  0.6232
14971TIP3    H166328   1.679   5.567  12.808  0.0677  1.0975 -0.0148
14971TIP3    H266329   1.787   5.604  12.908 -0.3989 -1.1233  1.3469
14972TIP3   OH266330   4.530   4.150  12.308  0.1381 -0.7208  0.0377
14972TIP3    H166331   4.496   4.073  12.263 -1.1231 -0.6692  0.8589
14972TIP3    H266332   4.617   4.125  12.337  0.8027 -0.8954 -2.0249
14973TIP3   OH266333   5.587   6.222  13.504  0.0525  0.7089  0.7342
14973TIP3    H166334   5.590   6.155  13.572 -0.9418 -0.0848 -0.0022
14973TIP3    H266335   5.664   6.205  13.450  1.3389  1.8791  2.1381
14974TIP3   OH266336   6.310   4.567  13.952  0.3693 -0.4503  0.0352
14974TIP3    H166337   6.255   4.494  13.980  0.4871 -1.0492 -1.2613
14974TIP3    H266338   6.256   4.645  13.969 -0.9519 -1.0415 -1.3568
14975TIP3   OH266339   6.344   1.924   5.297  0.0573 -0.1675  0.2493
14975TIP3    H166340   6.434   1.893   5.301  0.2871  0.0884 -1.9725
14975TIP3    H266341   6.335   1.959   5.208 -1.4890  2.1106  1.2490
14976TIP3   OH266342   6.271   5.989   3.067  0.0739  0.0627  0.7277
14976TIP3    H166343   6.223   6.047   3.127 -0.6094 -1.1332  1.3635
14976TIP3    H266344   6.244   6.018   2.980  0.2084  1.0873  1.0131
14977TIP3   OH266345   2.165   2.352  11.833 -0.5789  0.5075 -0.1751
14977TIP3    H166346   2.119   2.368  11.915 -1.8626  1.0779 -0.9878
14977TIP3    H266347   2.243   2.408  11.838  0.2872 -0.8052  1.4034
14978TIP3   OH266348   2.387   4.850   5.886 -0.5825  0.2438  0.1431
14978TIP3    H166349   2.483   4.841   5.886 -0.4785  1.2591  1.3885
14978TIP3    H266350   2.356   4.776   5.834  0.9204  0.2976 -0.8570
14979TIP3   OH266351   5.577   3.950  12.978 -0.1399 -0.4314  0.0900
14979TIP3    H166352   5.574   3.966  12.883 -1.2286  0.2791  0.2405
14979TIP3    H266353   5.669   3.932  12.996  0.0411 -0.8124 -1.1449
14980TIP3   OH266354   1.142   2.260  10.431  0.0024 -0.9980 -0.0076
14980TIP3    H166355   1.118   2.170  10.451 -0.0670 -1.3618 -1.6725
14980TIP3    H266356   1.059   2.304  10.412  0.1755 -1.0214 -0.8630
14981TIP3   OH266357   6.643   2.614   2.631  0.5957  0.0447 -0.3349
14981TIP3    H166358   6.580   2.684   2.611  0.1379 -0.1867  0.2779
14981TIP3    H266359   6.715   2.658   2.675  0.4556  0.1838 -0.2415
14982TIP3   OH266360   4.661   6.093   3.752 -0.2020  0.3397 -0.0827
14982TIP3    H166361   4.679   6.180   3.787 -2.5929  2.3491 -3.5782
14982TIP3    H266362   4.715   6.087   3.673 -0.9335 -0.8997 -0.5029
14983TIP3   OH266363   5.433   4.571  14.345 -0.0676 -0.0323 -0.0118
14983TIP3    H166364   5.425   4.556  14.440 -1.7781 -1.4126 -0.3627
14983TIP3    H266365   5.371   4.641  14.327 -0.1757 -0.1860 -0.2255
14984TIP3   OH266366   3.363   3.836   2.862 -0.1150  0.1229 -0.6747
14984TIP3    H166367   3.435   3.885   2.901 -0.9724  0.6970  0.1952
14984TIP3    H266368   3.291   3.898   2.856 -1.8417 -1.4561  2.2330
14985TIP3   OH266369   5.668   6.623  12.452  0.1955  0.3397 -0.2267
14985TIP3    H166370   5.641   6.659  12.368 -0.1555  0.6357  0.0146
14985TIP3    H266371   5.764   6.622  12.448  0.1706  0.0801 -0.7421
14986TIP3   OH266372   3.355   2.971   5.258  0.3697 -0.1635  0.0739
14986TIP3    H166373   3.393   3.042   5.207  1.4415  0.1356  1.2655
14986TIP3    H266374   3.281   3.012   5.304  0.5649  0.0266  0.2229
14987TIP3   OH266375   4.508   1.192   1.262  0.3049  0.3894  0.2287
14987TIP3    H166376   4.477   1.147   1.184  0.1838  0.8154  0.0286
14987TIP3    H266377   4.602   1.174   1.264  0.2797  0.2413  0.0748
14988TIP3   OH266378   5.414   0.100   3.337 -0.1578 -0.4293  0.5253
14988TIP3    H166379   5.449   0.116   3.425  1.1426  0.3983 -0.1358
14988TIP3    H266380   5.403   0.005   3.333 -0.0737 -0.4951  1.5126
14989TIP3   OH266381   3.721   1.936  13.887  0.6608  0.0095 -0.2252
14989TIP3    H166382   3.709   2.028  13.912 -0.1629 -0.8605  2.9046
14989TIP3    H266383   3.639   1.913  13.844  0.2708  0.3607  0.3119
14990TIP3   OH266384   4.655   2.425   4.043 -0.1612  0.2707  0.0962
14990TIP3    H166385   4.578   2.469   4.006 -0.0624  0.9792  0.7110
14990TIP3    H266386   4.648   2.439   4.138 -0.5566 -1.7498  0.3905
14991TIP3   OH266387   1.483   2.542  15.860 -0.0623  0.0224  0.1060
14991TIP3    H166388   1.530   2.477  15.808 -0.1437  0.3226 -0.3448
14991TIP3    H266389   1.515   2.528  15.949  0.3734 -0.2326 -0.0847
14992TIP3   OH266390   4.955   5.005   1.135 -0.1241  0.8707 -0.1101
14992TIP3    H166391   5.013   5.061   1.083 -1.1411  2.3223  0.2799
14992TIP3    H266392   5.011   4.970   1.204  1.1453 -0.7408 -1.9054
14993TIP3   OH266393   4.458   4.981   2.583  0.6025  0.0068 -0.1835
14993TIP3    H166394   4.423   4.944   2.502 -1.1567 -1.3287  1.1603
14993TIP3    H266395   4.508   5.057   2.554 -1.4337  0.5717 -2.3638
14994TIP3   OH266396   5.607   6.528  15.567  0.3205 -0.5782 -0.1646
14994TIP3    H166397   5.674   6.568  15.623  1.3290 -2.9124  0.3484
14994TIP3    H266398   5.655   6.485  15.497 -0.6578 -2.0131  0.0250
14995TIP3   OH266399   0.113   3.594  11.791  0.3011 -0.1932  0.0229
14995TIP3    H166400   0.027   3.553  11.786  0.0274 -0.0043  2.8347
14995TIP3    H266401   0.095   3.688  11.785  0.3209 -0.1502  0.6909
14996TIP3   OH266402   3.527   4.464  11.157  0.2924 -0.1779 -0.7372
14996TIP3    H166403   3.548   4.552  11.189  1.8427 -0.1122 -1.9206
14996TIP3    H266404   3.598   4.442  11.097  0.8215 -2.9007  0.7713
14997TIP3   OH266405   4.851   0.922   1.181 -0.6789  0.3899  0.3556
14997TIP3    H166406   4.874   0.875   1.261  1.2356  0.4420 -0.1282
14997TIP3    H266407   4.927   0.908   1.123 -1.8751  0.6433 -1.3092
14998TIP3   OH266408   4.898   6.428   0.988 -0.1166 -0.3301 -0.2142
14998TIP3    H166409   4.920   6.335   0.986 -0.5090 -0.4148 -0.7512
14998TIP3    H266410   4.972   6.471   0.944  1.0203 -0.1854  1.8105
14999TIP3   OH266411   0.274   1.201  12.228  0.0552 -0.3781 -0.4800
14999TIP3    H166412   0.234   1.152  12.156 -0.3386 -2.3197  1.0138
14999TIP3    H266413   0.224   1.175  12.306  0.4651  1.6858  0.5207
15000TIP3   OH266414   3.149   4.857  15.294  0.2831  0.4701 -0.3299
15000TIP3    H166415   3.234   4.868  15.337 -0.1244  3.1618 -0.1053
15000TIP3    H266416   3.166   4.874  15.202 -0.2306  2.4171 -0.0897
15001TIP3   OH266417   3.332   1.645   1.893  0.0900  0.5343 -0.2344
15001TIP3    H166418   3.269   1.580   1.921 -0.0715  1.4985  1.7663
15001TIP3    H266419   3.413   1.596   1.879  0.1409 -0.0281  1.8794
15002TIP3   OH266420   5.215   1.466  15.933  0.3970 -0.2718 -0.2768
15002TIP3    H166421   5.257   1.551  15.922 -1.5435  0.7045 -0.2967
15002TIP3    H266422   5.129   1.486  15.969 -1.1498 -2.0289 -2.8860
15003TIP3   OH266423   4.258   5.864  13.485 -0.3476  0.2388 -0.0923
15003TIP3    H166424   4.284   5.843  13.575  1.7505  3.3585  0.1082
15003TIP3    H266425   4.340   5.867  13.436 -1.1440  1.7907 -1.3876
15004TIP3   OH266426   2.752   3.182   4.519  0.1578  0.5472  0.0730
15004TIP3    H166427   2.809   3.258   4.533  2.6022 -0.7907 -2.2248
15004TIP3    H266428   2.783   3.143   4.437 -2.1571 -1.9649  0.3162
15005TIP3   OH266429   0.315   2.657  13.205  0.2535  0.2548  0.6193
15005TIP3    H166430   0.399   2.700  13.194  1.0859 -1.3990  0.4045
15005TIP3    H266431   0.308   2.639  13.299  1.0509 -1.3932  0.3764
15006TIP3   OH266432   4.093   0.036  13.663 -0.0275 -0.0993  0.0646
15006TIP3    H166433   4.025   0.011  13.726  0.4890  1.0250  1.0827
15006TIP3    H266434   4.167  -0.021  13.684  0.1120  0.2100  0.4321
15007TIP3   OH266435   1.558   5.082  13.223  0.3308  0.4866 -0.0990
15007TIP3    H166436   1.605   5.072  13.140 -0.8388 -2.1540 -0.4912
15007TIP3    H266437   1.465   5.086  13.198 -0.0520 -0.5682  1.0621
15008TIP3   OH266438   3.287   0.563   4.112  0.3584  0.2338 -0.4813
15008TIP3    H166439   3.319   0.653   4.113 -0.5384  0.5535  1.5887
15008TIP3    H266440   3.338   0.520   4.044  0.5211  2.4020 -1.7643
15009TIP3   OH266441   3.240   3.337   2.492  0.6545  0.2075 -0.2923
15009TIP3    H166442   3.292   3.404   2.535  1.6034  0.1805 -1.3713
15009TIP3    H266443   3.277   3.254   2.521 -0.5348  0.1290  1.0610
15010TIP3   OH266444   1.359   2.003   0.977 -0.5782 -0.2504 -0.1369
15010TIP3    H166445   1.323   1.986   0.891 -0.3036 -0.2233 -0.2584
15010TIP3    H266446   1.412   2.082   0.965 -2.6930  1.3477  0.6439
15011TIP3   OH266447   0.544   5.827   3.448  0.3120  0.6887  0.0666
15011TIP3    H166448   0.519   5.774   3.372  2.1029  0.5021 -0.4150
15011TIP3    H266449   0.593   5.901   3.410 -0.4836  1.6500  0.8881
15012TIP3   OH266450   3.980   1.409  12.083  0.6852 -0.5173  0.3009
15012TIP3    H166451   3.898   1.435  12.125  1.0301  0.4057  0.4262
15012TIP3    H266452   4.039   1.482  12.100  1.8190 -1.5773  1.0051
15013TIP3   OH266453   4.429   5.201   4.873  0.0358  0.1573  0.2190
15013TIP3    H166454   4.401   5.165   4.957  0.6199 -0.9941 -0.0661
15013TIP3    H266455   4.416   5.296   4.882 -1.5042 -0.1029  0.9894
15014TIP3   OH266456   1.711   1.071   0.415 -0.3327 -0.5909 -0.2270
15014TIP3    H166457   1.765   1.149   0.403 -0.1951 -0.9042 -1.7517
15014TIP3    H266458   1.649   1.073   0.343 -0.1335 -2.0372 -0.4558
15015TIP3   OH266459   2.745   4.040   0.366 -0.1684 -0.1003  0.8500
15015TIP3    H166460   2.657   4.034   0.330 -0.2105 -3.9045  1.3547
15015TIP3    H266461   2.801   4.049   0.289 -0.7726 -1.3188  0.2454
15016TIP3   OH266462   1.104   2.428  13.200 -0.3522 -0.3951  0.1895
15016TIP3    H166463   1.164   2.502  13.212 -0.4303 -0.2741 -0.1482
15016TIP3    H266464   1.141   2.357  13.253 -0.7666  0.1639  1.2475
15017TIP3   OH266465   5.960   6.135  11.899 -0.0944  0.0942 -0.1186
15017TIP3    H166466   5.985   6.200  11.834 -1.2075  1.0148  0.3462
15017TIP3    H266467   5.865   6.148  11.910 -0.6466 -2.6500 -1.1616
15018TIP3   OH266468   3.001   6.343  15.684  0.4416 -0.1086 -0.4244
15018TIP3    H166469   3.069   6.287  15.720 -0.5109 -0.7346  0.4491
15018TIP3    H266470   3.003   6.421  15.739  1.3781  0.4700 -1.2731
15019TIP3   OH266471   5.661   1.981  12.490 -0.4747  0.1901 -0.4590
15019TIP3    H166472   5.647   1.887  12.494 -3.5201  0.6054  0.0162
15019TIP3    H266473   5.694   1.997  12.402 -0.0353 -1.2966 -0.5784
15020TIP3   OH266474   1.448   5.602  17.230 -0.2326 -0.0403 -0.1606
15020TIP3    H166475   1.404   5.686  17.242  1.4618  0.6324  1.4795
15020TIP3    H266476   1.513   5.619  17.162 -1.9395 -0.8520 -2.0577
15021TIP3   OH266477   4.840   5.698   5.497 -0.2763  0.2261 -0.6540
15021TIP3    H166478   4.770   5.752   5.534 -1.3963 -0.2750 -1.9599
15021TIP3    H266479   4.855   5.630   5.562  1.0833  2.0189  0.9671
15022TIP3   OH266480   3.047   1.978  13.272  0.0150  0.1213  0.2594
15022TIP3    H166481   2.989   1.971  13.348 -2.0855 -0.9515 -1.4079
15022TIP3    H266482   3.012   2.052  13.223 -1.9680 -2.4401 -2.3683
15023TIP3   OH266483   6.770   1.876   1.084 -0.0168  0.5356  0.4499
15023TIP3    H166484   6.794   1.955   1.036 -0.5269 -0.7947 -2.0612
15023TIP3    H266485   6.690   1.900   1.130 -0.0740  1.5258 -0.1450
15024TIP3   OH266486   1.419   4.075  14.337 -0.0864  0.1125 -0.1716
15024TIP3    H166487   1.377   4.056  14.253  0.3320 -1.5580 -0.0133
15024TIP3    H266488   1.453   3.991  14.367  0.6007  0.8662  1.2277
15025TIP3   OH266489   1.231   6.287   1.208  0.1064 -0.6536 -0.1112
15025TIP3    H166490   1.294   6.250   1.146  1.9132  0.3127  1.1008
15025TIP3    H266491   1.151   6.237   1.194  0.1481  0.1934 -3.9465
15026TIP3   OH266492   2.918   3.288  12.707  0.6694  0.0110  0.4407
15026TIP3    H166493   2.905   3.374  12.746 -0.0757  0.0087  0.2062
15026TIP3    H266494   2.998   3.254  12.749 -0.4171 -0.2156  2.3745
15027TIP3   OH266495   0.755   2.836   5.583  0.2611  0.5875 -0.1219
15027TIP3    H166496   0.816   2.835   5.657 -2.2349 -1.0929  2.0132
15027TIP3    H266497   0.767   2.751   5.540 -2.1995 -0.7963  1.7834
15028TIP3   OH266498   6.690   1.764  16.904 -0.1571  0.1251 -0.2044
15028TIP3    H166499   6.595   1.776  16.910 -0.0498  0.6568  0.4999
15028TIP3    H266500   6.711   1.697  16.969 -0.0099  0.2568 -0.1132
15029TIP3   OH266501   0.103   0.555   5.637  0.8590 -0.0217 -0.1201
15029TIP3    H166502   0.064   0.637   5.609 -1.3827 -1.8826 -2.7368
15029TIP3    H266503   0.065   0.538   5.723 -2.7858 -0.8497 -1.8100
15030TIP3   OH266504   2.174   3.522   2.979 -0.2765  0.2699  0.3147
15030TIP3    H166505   2.192   3.603   3.028  1.3924  0.2111 -0.1594
15030TIP3    H266506   2.185   3.547   2.887  1.1863 -0.6914  0.2050
15031TIP3   OH266507   5.339   5.856   3.965 -0.1497 -0.3183  0.4607
15031TIP3    H166508   5.359   5.950   3.970  1.5066 -0.5889 -0.8115
15031TIP3    H266509   5.402   5.815   4.025  3.1857 -1.1511 -3.3694
15032TIP3   OH266510   6.110   1.898  12.153  0.0798  0.0863 -0.4275
15032TIP3    H166511   6.100   1.861  12.065  2.1342  1.2171 -1.1855
15032TIP3    H266512   6.134   1.989  12.138 -0.9429  0.6767  1.3535
15033TIP3   OH266513   5.107   6.542   0.848  0.4009 -0.6442  0.9209
15033TIP3    H166514   5.162   6.599   0.902  0.7713  0.9060 -1.0279
15033TIP3    H266515   5.169   6.486   0.802  0.1601 -1.0030  1.0297
15034TIP3   OH266516   5.813   5.748   2.584  0.4071  0.4083 -0.0520
15034TIP3    H166517   5.844   5.712   2.501  0.6373  0.4686  0.0090
15034TIP3    H266518   5.742   5.689   2.611 -1.4813  1.8798 -1.6168
15035TIP3   OH266519   5.994   3.483  15.094 -0.1751  0.2210 -0.1564
15035TIP3    H166520   6.013   3.456  15.004 -1.1053 -1.8685  0.2185
15035TIP3    H266521   5.918   3.429  15.118 -1.4182  2.4760  1.0800
15036TIP3   OH266522   3.392   2.479  13.610  0.0241 -0.0364  0.3146
15036TIP3    H166523   3.301   2.494  13.586 -0.7341 -1.7859  1.9505
15036TIP3    H266524   3.414   2.551  13.669 -0.4882  0.0655  0.3812
15037TIP3   OH266525   3.549   2.174   6.581 -0.1996 -0.5474 -0.5749
15037TIP3    H166526   3.619   2.221   6.536 -0.9126  0.2288 -0.8613
15037TIP3    H266527   3.570   2.081   6.566  2.5516 -0.4412  2.0091
15038TIP3   OH266528   2.346   1.143  12.604  0.3553 -0.0810 -0.0988
15038TIP3    H166529   2.389   1.068  12.644 -0.0788  0.4526  1.3874
15038TIP3    H266530   2.300   1.186  12.676 -2.2300 -0.3400 -1.5481
15039TIP3   OH266531   4.714   3.545  13.396  0.2236  0.3582  0.0827
15039TIP3    H166532   4.780   3.584  13.453  0.8417  0.5039 -0.7248
15039TIP3    H266533   4.654   3.617  13.376  2.4965  1.5114 -3.0767
15040TIP3   OH266534   4.019   0.354  16.939 -0.3142 -0.0403 -0.0318
15040TIP3    H166535   4.009   0.447  16.917 -2.1044 -0.0362  0.7097
15040TIP3    H266536   4.074   0.354  17.017 -0.4312  0.4095  0.0546
15041TIP3   OH266537   6.433   5.615  12.003  0.5130  0.0982 -0.0866
15041TIP3    H166538   6.360   5.601  11.943 -1.1094  0.2850  1.7865
15041TIP3    H266539   6.432   5.709  12.021  2.1832  0.3580 -1.2066
15042TIP3   OH266540   1.373   2.592  13.264  0.3632  0.3244 -0.0201
15042TIP3    H166541   1.404   2.581  13.174  1.7234 -0.0207  0.4739
15042TIP3    H266542   1.411   2.676  13.291 -2.6949  2.0576 -0.8200
15043TIP3   OH266543   0.312   4.988  14.842  0.0754  0.2257  0.0060
15043TIP3    H166544   0.315   5.078  14.874  0.7879  0.8568 -1.7645
15043TIP3    H266545   0.384   4.944  14.887  0.1815  0.7287  0.3317
15044TIP3   OH266546   4.085   6.556  16.170 -0.0643 -0.1134  0.4142
15044TIP3    H166547   4.030   6.573  16.247  1.3123 -0.1274  1.4048
15044TIP3    H266548   4.165   6.517  16.204  0.8472  0.4813 -0.9512
15045TIP3   OH266549   5.947   4.651  14.450 -0.4404  0.2423  0.3258
15045TIP3    H166550   5.994   4.625  14.371 -0.2203  0.1806  0.4774
15045TIP3    H266551   6.010   4.705  14.499  0.2002 -1.5346  1.5177
15046TIP3   OH266552   0.706   6.188  13.821  0.4009  0.6347  0.2202
15046TIP3    H166553   0.766   6.115  13.837 -0.5606 -0.0948  0.5427
15046TIP3    H266554   0.687   6.223  13.909 -0.7753 -0.0619  0.2573
15047TIP3   OH266555   2.916   3.362  16.965 -0.0447  0.0820  0.2430
15047TIP3    H166556   2.897   3.293  17.028  2.5350 -1.7288 -0.9074
15047TIP3    H266557   3.001   3.396  16.993  0.3542  0.3685 -1.3079
15048TIP3   OH266558   0.691   0.521  12.203 -0.1863 -0.1835  0.2988
15048TIP3    H166559   0.726   0.467  12.274 -3.8538  0.0623  2.4322
15048TIP3    H266560   0.713   0.472  12.123  2.4123 -1.3962  1.6914
15049TIP3   OH266561   3.159   2.880   2.240  0.2354  0.0885 -0.3413
15049TIP3    H166562   3.118   2.846   2.160  0.6115  1.1170 -0.9928
15049TIP3    H266563   3.116   2.965   2.255 -0.1339 -0.2967  0.7975
15050TIP3   OH266564   0.197   6.349   2.266 -0.4664 -0.1095 -0.5842
15050TIP3    H166565   0.287   6.349   2.234 -0.3221 -1.6537 -0.2199
15050TIP3    H266566   0.197   6.287   2.339 -1.8495 -0.2494 -0.6781
15051TIP3   OH266567   0.519   4.680   5.050  0.3450  0.7384 -0.0318
15051TIP3    H166568   0.553   4.597   5.082  0.6385 -0.6747 -3.7178
15051TIP3    H266569   0.425   4.676   5.068  0.3115 -0.5450 -0.4385
15052TIP3   OH266570   4.574   5.547  13.134 -0.3863 -0.5323  0.1314
15052TIP3    H166571   4.622   5.487  13.077  1.6527  3.4511 -2.5149
15052TIP3    H266572   4.616   5.537  13.219  0.7683 -1.9498 -0.5748
15053TIP3   OH266573   1.492   1.508  15.114 -0.1530  0.2834 -0.0957
15053TIP3    H166574   1.467   1.478  15.201 -1.0266 -0.4513 -0.6032
15053TIP3    H266575   1.582   1.476  15.103  0.5190  1.6759  1.1320
15054TIP3   OH266576   5.233   4.325   3.578 -0.2498 -0.0837 -0.0527
15054TIP3    H166577   5.172   4.330   3.504 -0.4095 -0.3943  0.0567
15054TIP3    H266578   5.319   4.311   3.538 -0.6578 -2.7869 -0.0902
15055TIP3   OH266579   5.753   2.291  16.352  0.3322  0.1028 -0.1553
15055TIP3    H166580   5.794   2.368  16.311  0.6795 -0.0180 -0.0338
15055TIP3    H266581   5.661   2.316  16.363  0.8206  1.2190  1.6243
15056TIP3   OH266582   2.188   6.689  17.125  0.1406  0.1496 -0.5693
15056TIP3    H166583   2.274   6.659  17.154  0.4042  0.3037 -1.1753
15056TIP3    H266584   2.201   6.781  17.100 -0.3237  0.3370 -0.1492
15057TIP3   OH266585   1.481   2.484   0.640  0.3603 -0.1470  0.3179
15057TIP3    H166586   1.424   2.482   0.563  1.0823 -0.0970 -0.2169
15057TIP3    H266587   1.510   2.394   0.651 -0.5381 -0.3497  1.1372
15058TIP3   OH266588   2.544   1.856   3.755 -0.0040 -0.2433 -0.3254
15058TIP3    H166589   2.493   1.937   3.757 -0.2083 -0.3307 -1.6035
15058TIP3    H266590   2.564   1.843   3.662 -0.7229 -2.1288 -0.2364
15059TIP3   OH266591   0.279   4.121   1.078 -0.8364  0.1116 -0.7123
15059TIP3    H166592   0.357   4.135   1.131 -2.3271  2.0787  1.0484
15059TIP3    H266593   0.265   4.026   1.080  0.2757 -0.0434  0.7616
15060TIP3   OH266594   1.343   2.019   3.831 -0.1265 -0.2036 -0.2558
15060TIP3    H166595   1.253   2.010   3.862  0.5872  0.2643  2.0406
15060TIP3    H266596   1.344   1.973   3.747 -2.7262  0.6299 -0.7856
15061TIP3   OH266597   1.926   6.372   4.021  0.0133 -0.4469  0.2423
15061TIP3    H166598   1.951   6.303   3.960  2.3442  0.5939 -0.0296
15061TIP3    H266599   2.008   6.416   4.043 -1.2349  1.3568  1.4872
15062TIP3   OH266600   5.986   5.825   3.814  0.1492 -0.3208 -0.8352
15062TIP3    H166601   6.008   5.876   3.735  1.7563 -1.0501 -0.8831
15062TIP3    H266602   6.071   5.803   3.852 -0.5979 -0.9849  0.4638
15063TIP3   OH266603   1.484   1.910  14.650  0.1501  0.5644  0.1920
15063TIP3    H166604   1.533   1.862  14.717  2.1141 -3.4426 -3.8839
15063TIP3    H266605   1.395   1.875  14.657  0.7693 -1.2142 -0.4075
15064TIP3   OH266606   6.780   1.396  14.715  0.4990 -0.5114  0.5072
15064TIP3    H166607   6.694   1.359  14.697  0.5241  0.6877 -2.4826
15064TIP3    H266608   6.762   1.479  14.760  0.1673 -1.0646  1.3879
15065TIP3   OH266609   5.654   2.349   2.987  0.8171  0.2869 -0.1484
15065TIP3    H166610   5.700   2.266   2.974 -1.1753 -1.1960  1.9659
15065TIP3    H266611   5.622   2.373   2.900  0.2079 -1.8735 -0.5372
15066TIP3   OH266612   5.606   5.634  12.378  0.5970 -0.5192  0.0716
15066TIP3    H166613   5.605   5.697  12.450  1.0453  2.0017 -2.0295
15066TIP3    H266614   5.524   5.585  12.387  0.1593  0.4938  1.6662
15067TIP3   OH266615   1.559   4.895   3.391  0.5601 -0.3244 -0.0627
15067TIP3    H166616   1.491   4.899   3.458 -0.8973  4.1518 -1.6221
15067TIP3    H266617   1.641   4.887   3.440 -0.7857 -1.6277  2.0364
15068TIP3   OH266618   4.109   3.526   2.571 -0.1290  0.2329 -0.1580
15068TIP3    H166619   4.055   3.570   2.636 -1.5180  0.0241 -1.1605
15068TIP3    H266620   4.087   3.433   2.580  0.0340  0.1488 -0.5828
15069TIP3   OH266621   2.560   6.258  11.861  0.7927  0.0529  0.1039
15069TIP3    H166622   2.552   6.304  11.778 -0.3410 -0.9941 -0.3745
15069TIP3    H266623   2.652   6.231  11.865  1.0132  0.6918 -0.4801
15070TIP3   OH266624   3.697   1.231   3.224 -0.4486  0.1679 -0.1196
15070TIP3    H166625   3.677   1.324   3.225 -2.7624 -0.2792  2.9368
15070TIP3    H266626   3.739   1.215   3.309 -0.1675 -1.5829 -0.5773
15071TIP3   OH266627   3.806   5.445  12.707  0.0568  0.0220 -0.3177
15071TIP3    H166628   3.795   5.350  12.708  1.1226 -0.1101  0.6387
15071TIP3    H266629   3.722   5.479  12.677 -0.9574 -1.1453  1.1191
15072TIP3   OH266630   3.881   2.926   0.487 -0.1976 -0.0595 -0.5491
15072TIP3    H166631   3.914   3.010   0.520 -2.1838  1.4457 -2.2700
15072TIP3    H266632   3.957   2.869   0.488  0.8918  1.3097  2.0369
15073TIP3   OH266633   0.008   5.073  15.856 -0.3082  0.5877 -0.1573
15073TIP3    H166634  -0.085   5.060  15.876 -0.0435 -1.4677 -0.1016
15073TIP3    H266635   0.047   4.987  15.872  2.0036  1.9665  2.0068
15074TIP3   OH266636   0.089   4.770  14.591  0.1429  0.0878  0.2963
15074TIP3    H166637   0.086   4.837  14.659  1.0365 -0.9317  1.3731
15074TIP3    H266638   0.057   4.691  14.634  1.8150 -0.8437 -0.1022
15075TIP3   OH266639   2.231   2.609   5.585 -0.5207 -0.0294 -0.5632
15075TIP3    H166640   2.144   2.580   5.611 -0.6477  0.5044 -0.3864
15075TIP3    H266641   2.288   2.583   5.658 -0.3408 -1.3459 -1.1523
15076TIP3   OH266642   2.030   6.674  11.332  0.0613  0.0878  0.1623
15076TIP3    H166643   1.962   6.737  11.307  0.9578  0.2544 -1.9896
15076TIP3    H266644   2.111   6.712  11.299  0.8219 -1.4809  0.1680
15077TIP3   OH266645   5.136   4.992   6.538 -0.1037 -0.3390 -0.2946
15077TIP3    H166646   5.229   5.009   6.558  0.1539  0.0523 -1.7776
15077TIP3    H266647   5.088   5.045   6.602  0.7063  3.6943 -2.8773
15078TIP3   OH266648   4.120   5.359   0.219 -0.3713 -0.5291  0.6579
15078TIP3    H166649   4.064   5.427   0.181 -0.9465 -1.2262  0.2590
15078TIP3    H266650   4.209   5.389   0.201 -0.6279 -0.5319 -0.6902
15079TIP3   OH266651   5.961   1.778   5.547  0.1423  0.2833  0.5613
15079TIP3    H166652   6.003   1.820   5.623  0.4695  0.5302  0.2423
15079TIP3    H266653   6.024   1.787   5.476 -0.0552 -0.1905  0.3248
15080TIP3   OH266654   3.436   1.749  15.981  0.4516 -0.0033  0.2562
15080TIP3    H166655   3.434   1.688  16.055 -1.8910  0.1461  0.3694
15080TIP3    H266656   3.455   1.694  15.906 -0.3624 -0.6974  0.5404
15081TIP3   OH266657   5.863   2.458  11.935 -0.6046 -0.3318 -0.2165
15081TIP3    H166658   5.897   2.436  12.022 -2.7187 -1.2159  0.4388
15081TIP3    H266659   5.886   2.383  11.880  1.2690  0.4967 -0.5999
15082TIP3   OH266660   3.680   1.419   2.605  0.2398 -0.4103 -0.3515
15082TIP3    H166661   3.689   1.504   2.648 -1.6577 -0.1359 -0.4443
15082TIP3    H266662   3.689   1.438   2.511 -0.9025 -0.1970 -0.4200
15083TIP3   OH266663   0.849   1.795   4.346 -0.3165 -0.0095 -0.3864
15083TIP3    H166664   0.903   1.874   4.348  1.5615 -1.1931 -2.2003
15083TIP3    H266665   0.782   1.810   4.413  2.6262  1.2494  2.4281
15084TIP3   OH266666   3.470   4.737  15.502 -0.1619 -0.0044  0.1701
15084TIP3    H166667   3.431   4.768  15.585  2.5335 -0.9964  1.8750
15084TIP3    H266668   3.544   4.683  15.529  0.2261 -1.1104 -2.9195
15085TIP3   OH266669   0.271   4.447  10.358 -0.3357  0.0008 -0.4452
15085TIP3    H166670   0.213   4.407  10.422 -0.8339 -1.6788 -1.9219
15085TIP3    H266671   0.354   4.401  10.368 -0.8211 -1.2583 -1.9313
15086TIP3   OH266672   5.599   4.785  11.756 -0.0861 -0.5128  0.1389
15086TIP3    H166673   5.533   4.841  11.797 -1.4133 -1.5661 -0.5148
15086TIP3    H266674   5.583   4.699  11.793  2.3070 -0.3822  1.5599
15087TIP3   OH266675   2.373   2.213  11.264  0.3465  0.9557 -0.5956
15087TIP3    H166676   2.346   2.128  11.230  1.8544 -0.1594  0.9015
15087TIP3    H266677   2.338   2.215  11.353 -0.7516  2.4456 -1.0385
15088TIP3   OH266678   2.644   0.171   6.627  0.4946 -0.3044  0.1894
15088TIP3    H166679   2.568   0.224   6.653  0.4918 -1.0931  1.8649
15088TIP3    H266680   2.610   0.083   6.618  0.6541 -0.1735 -1.8905
15089TIP3   OH266681   5.942   6.307   2.432 -0.0052 -0.2198 -0.7163
15089TIP3    H166682   5.889   6.264   2.499  0.2608  1.5772  0.6928
15089TIP3    H266683   5.879   6.339   2.368 -0.4044 -0.5439 -0.4812
15090TIP3   OH266684   1.364   4.284   5.730 -0.6838  0.1821 -0.4410
15090TIP3    H166685   1.337   4.195   5.708  0.5255 -0.0005 -1.2375
15090TIP3    H266686   1.298   4.314   5.792 -0.4346 -1.7212  0.8129
15091TIP3   OH266687   5.078   5.363   3.080  0.1591  0.5565  0.0487
15091TIP3    H166688   5.116   5.426   3.018 -1.1089 -0.8802 -2.2517
15091TIP3    H266689   5.086   5.279   3.036 -0.7824 -0.5061  1.8686
15092TIP3   OH266690   1.024   5.100  11.925 -0.1493 -0.0810  0.3972
15092TIP3    H166691   1.119   5.093  11.920 -0.1990 -0.0525 -0.5659
15092TIP3    H266692   1.001   5.047  12.002  0.7161  0.6514  1.1708
15093TIP3   OH266693   0.061   5.802   4.724 -0.3150  0.4663  0.5088
15093TIP3    H166694   0.022   5.749   4.793  1.2189  0.1754  1.1741
15093TIP3    H266695   0.099   5.877   4.770  2.1197 -0.5323  0.1861
15094TIP3   OH266696   1.272   3.214  11.408 -0.2594  0.3858  0.1218
15094TIP3    H166697   1.333   3.243  11.476  1.0162 -0.4146 -0.6408
15094TIP3    H266698   1.245   3.294  11.364 -0.4588  0.8343  1.0543
15095TIP3   OH266699   1.635   2.899  13.647  0.4177 -0.5382 -0.9186
15095TIP3    H166700   1.654   2.836  13.578 -0.2454  0.2524 -1.8429
15095TIP3    H266701   1.667   2.983  13.613  0.0485 -0.1357 -0.2875
15096TIP3   OH266702   6.141   1.880   0.309 -0.3972 -0.1453 -0.3786
15096TIP3    H166703   6.222   1.860   0.263 -0.8850 -1.0126 -0.8726
15096TIP3    H266704   6.076   1.820   0.271 -0.3274 -2.5313  2.9905
15097TIP3   OH266705   5.283   5.300  15.406 -0.9156 -0.5115  0.4809
15097TIP3    H166706   5.268   5.207  15.423  0.8078 -0.8361  0.3288
15097TIP3    H266707   5.196   5.339  15.410 -2.2131 -2.7386 -3.3015
15098TIP3   OH266708   2.541   2.576   1.193 -0.1888  0.2802 -0.1237
15098TIP3    H166709   2.561   2.485   1.169 -1.6708  0.3367 -1.6570
15098TIP3    H266710   2.543   2.623   1.110  1.6283  1.8805  0.8032
15099TIP3   OH266711   2.847   2.641   6.161 -0.1518  0.0901 -0.0535
15099TIP3    H166712   2.760   2.643   6.200  0.2870 -0.1145  0.9289
15099TIP3    H266713   2.891   2.567   6.201  0.5743  0.3521 -0.3452
15100TIP3   OH266714   2.844   1.151  11.782  0.2398  0.0245 -0.1538
15100TIP3    H166715   2.820   1.141  11.874  0.5127  2.4831  0.2070
15100TIP3    H266716   2.931   1.190  11.784  0.3404 -0.1109 -1.4782
15101TIP3   OH266717   2.606   3.136  13.840  0.5847  0.1585  0.9444
15101TIP3    H166718   2.529   3.176  13.881  1.2424  0.9383  1.4148
15101TIP3    H266719   2.641   3.205  13.783 -0.7225 -1.1230 -1.4918
15102TIP3   OH266720   1.725   2.752  12.546  0.0707  0.0169 -0.3210
15102TIP3    H166721   1.810   2.773  12.586 -0.8849 -0.5518  2.0999
15102TIP3    H266722   1.671   2.723  12.619 -1.7657 -1.0819 -2.0629
15103TIP3   OH266723   0.045   1.682  11.806 -0.1332  0.2943  0.1141
15103TIP3    H166724   0.084   1.605  11.846 -0.8220 -0.4139 -0.5628
15103TIP3    H266725   0.057   1.671  11.712 -1.4650  0.3156 -0.0768
15104TIP3   OH266726   2.942   0.885   1.872 -0.1519  0.0273 -0.1051
15104TIP3    H166727   2.981   0.971   1.888 -0.0971 -0.2032  1.0213
15104TIP3    H266728   2.858   0.889   1.918 -0.5706 -0.1932 -0.8407
15105TIP3   OH266729   6.071   0.135  14.183  0.0931 -0.5805 -0.2489
15105TIP3    H166730   6.064   0.214  14.237 -0.5400 -1.5636  1.1624
15105TIP3    H266731   5.999   0.079  14.215 -0.6420 -0.9621 -2.5079
15106TIP3   OH266732   2.798   5.487   2.329 -0.2056  0.4611 -0.3449
15106TIP3    H166733   2.708   5.486   2.295 -0.4748 -2.3258  0.3639
15106TIP3    H266734   2.833   5.401   2.306  2.1003  1.3005 -0.0739
15107TIP3   OH266735   1.303   1.412  16.443  0.4720 -0.1412  0.5765
15107TIP3    H166736   1.311   1.507  16.434 -1.0781 -0.1874 -1.5118
15107TIP3    H266737   1.393   1.383  16.458  1.1703  1.5081 -0.2086
15108TIP3   OH266738   3.378   4.762   5.748 -0.6597  0.5456 -0.0405
15108TIP3    H166739   3.417   4.772   5.835  1.5750  2.1296 -1.1824
15108TIP3    H266740   3.405   4.674   5.720 -2.0211 -0.2822  1.1121
15109TIP3   OH266741   4.741   5.820  15.920 -0.3099 -0.2596 -0.0882
15109TIP3    H166742   4.777   5.810  15.831  0.0972  0.1778  0.0248
15109TIP3    H266743   4.698   5.905  15.919 -0.9335 -0.5721 -0.0784
15110TIP3   OH266744   2.955   1.562   6.099 -0.0626 -0.1941  0.2860
15110TIP3    H166745   2.937   1.561   6.005  0.3360 -1.7251  0.2001
15110TIP3    H266746   3.048   1.584   6.105 -0.4840  1.6223  0.4217
15111TIP3   OH266747   2.999   0.892  15.644 -0.0350  0.4613 -0.0493
15111TIP3    H166748   2.990   0.933  15.730  0.1364  0.4015 -0.0017
15111TIP3    H266749   3.022   0.801  15.664 -1.9007 -0.0552 -0.1116
15112TIP3   OH266750   2.492   0.106   1.796  0.3500  0.4679 -0.6248
15112TIP3    H166751   2.433   0.173   1.762 -0.3319  1.1624  1.8657
15112TIP3    H266752   2.577   0.151   1.804  0.0143  0.8918  0.5621
15113TIP3   OH266753   3.790   0.947   1.679 -0.5267 -0.0088 -0.5075
15113TIP3    H166754   3.815   1.003   1.753 -0.1774 -0.5250 -0.2341
15113TIP3    H266755   3.807   1.001   1.602 -0.0023  0.1971 -0.2536
15114TIP3   OH266756   3.204   4.074   5.912  0.3811  0.0773 -0.7794
15114TIP3    H166757   3.251   4.025   5.845  0.7397  0.9920 -1.2028
15114TIP3    H266758   3.253   4.156   5.921  1.3922 -0.7342  1.8611
15115TIP3   OH266759   6.242   3.166  11.870  0.2997 -0.0792 -0.0423
15115TIP3    H166760   6.310   3.107  11.900 -0.1545 -0.2942  0.5872
15115TIP3    H266761   6.270   3.253  11.900  0.1639 -0.2056  0.4626
15116TIP3   OH266762   2.952   4.605   1.357 -0.1963 -0.4403  0.8537
15116TIP3    H166763   2.920   4.526   1.313 -1.7466 -0.8393  2.6716
15116TIP3    H266764   3.046   4.588   1.371 -0.2438 -1.3939  0.0533
15117TIP3   OH266765   4.104   5.329   2.833 -0.2096  0.0841 -0.2656
15117TIP3    H166766   4.108   5.251   2.777  1.2661  0.1331 -0.2675
15117TIP3    H266767   4.067   5.297   2.915 -0.3512 -0.4617 -0.5385
15118TIP3   OH266768   0.241   0.896  16.961 -0.2093  0.5619 -0.2708
15118TIP3    H166769   0.260   0.977  16.914 -0.3077  0.1824 -0.9623
15118TIP3    H266770   0.291   0.829  16.916 -1.2072 -0.0040 -0.5551
15119TIP3   OH266771   6.401   4.350   5.526 -0.0396 -0.3277  0.1780
15119TIP3    H166772   6.386   4.260   5.495 -1.8606  0.0068  0.0501
15119TIP3    H266773   6.465   4.340   5.597 -0.2897 -1.7451  0.2296
15120TIP3   OH266774   4.645   2.930   3.173 -0.6039 -0.5158 -0.2105
15120TIP3    H166775   4.731   2.889   3.179  0.0725  0.9657  0.4217
15120TIP3    H266776   4.593   2.886   3.240 -0.9869 -2.8610 -1.9514
15121TIP3   OH266777   2.004   1.004   1.911  0.1440  0.3380 -0.0862
15121TIP3    H166778   1.932   0.972   1.855  0.7472 -0.9600 -0.1310
15121TIP3    H266779   1.961   1.032   1.992 -0.4181 -0.3683 -0.1402
15122TIP3   OH266780   2.088   2.042  11.100  0.1837 -0.0777  0.4404
15122TIP3    H166781   2.131   1.980  11.042 -0.4255 -0.2683  0.1945
15122TIP3    H266782   2.104   2.007  11.188  2.0086  0.7751  0.4660
15123TIP3   OH266783   1.736   1.598  13.151 -0.0690 -0.1690 -0.3168
15123TIP3    H166784   1.791   1.643  13.215 -2.0878 -1.4936  2.5047
15123TIP3    H266785   1.730   1.659  13.077  0.9971  2.1640  1.4535
15124TIP3   OH266786   2.951   1.354   3.634  0.0864 -0.3974  0.4235
15124TIP3    H166787   2.982   1.404   3.558  1.1223  1.3610  1.9706
15124TIP3    H266788   2.877   1.405   3.668 -2.0438 -2.4876 -0.8365
15125TIP3   OH266789   4.365   0.375   1.628 -0.2399 -0.1475  0.4206
15125TIP3    H166790   4.291   0.435   1.630  0.8165  1.2077 -0.9067
15125TIP3    H266791   4.440   0.429   1.603  0.8489 -1.8772 -0.1356
15126TIP3   OH266792   3.862   1.093   6.366  0.5627  0.3276 -0.1069
15126TIP3    H166793   3.893   1.003   6.360  0.8956  0.5488 -1.7032
15126TIP3    H266794   3.772   1.089   6.332  0.8145  0.7252 -0.8083
15127TIP3   OH266795   0.179   0.706   5.242 -0.4344  0.0911 -0.1939
15127TIP3    H166796   0.222   0.789   5.218 -0.4248 -0.3589 -1.7947
15127TIP3    H266797   0.241   0.639   5.216 -1.3602 -0.5048 -0.8827
15128TIP3   OH266798   6.008   5.540  14.385 -0.3161  0.3682 -1.0110
15128TIP3    H166799   5.977   5.462  14.340  1.1830  0.4812 -2.2509
15128TIP3    H266800   6.102   5.527  14.395 -0.3753  1.0426  0.7436
15129TIP3   OH266801   5.211   5.522  16.845 -0.2079  0.8656  0.0583
15129TIP3    H166802   5.192   5.596  16.902 -0.4267  0.5051  0.4624
15129TIP3    H266803   5.133   5.466  16.852  0.5005 -0.0466  0.7899
15130TIP3   OH266804   0.483   4.227  11.342  0.1222  0.8546 -0.8144
15130TIP3    H166805   0.471   4.264  11.255 -0.1508 -2.2209 -2.1498
15130TIP3    H266806   0.480   4.132  11.329  2.4289  0.2709  2.2108
15131TIP3   OH266807   0.090   0.983  12.033 -0.5163 -0.1029 -1.1193
15131TIP3    H166808   0.155   0.924  12.072  1.0650  1.0436 -1.9787
15131TIP3    H266809   0.009   0.963  12.080 -0.1952 -3.4036 -1.8136
15132TIP3   OH266810   4.071   4.590   2.159 -0.3086  0.1355 -0.3008
15132TIP3    H166811   3.986   4.631   2.176  0.2396  2.3637 -2.5810
15132TIP3    H266812   4.080   4.590   2.064  2.4933  0.5596 -0.1082
15133TIP3   OH266813   6.300   3.100  14.978 -0.0238 -0.4071 -0.4903
15133TIP3    H166814   6.287   3.192  14.957  0.4852 -0.4477 -1.0060
15133TIP3    H266815   6.360   3.068  14.910 -0.0952 -1.0834 -0.2413
15134TIP3   OH266816   5.033   4.630  14.571  0.2437 -0.3859  0.1970
15134TIP3    H166817   5.008   4.550  14.523  1.9728  0.0221 -1.4712
15134TIP3    H266818   4.964   4.693  14.550  0.3509 -0.5874 -0.8208
15135TIP3   OH266819   1.858   0.129  10.657  0.6064  0.1530 -0.2724
15135TIP3    H166820   1.772   0.129  10.617  0.5310  1.9659 -0.1265
15135TIP3    H266821   1.919   0.142  10.584  0.5628  1.9349  0.0052
15136TIP3   OH266822   5.099   1.125  10.944  0.1532 -0.0857  0.2059
15136TIP3    H166823   5.151   1.128  10.864 -0.1985  1.9416  0.0187
15136TIP3    H266824   5.020   1.076  10.920 -0.8458  2.1523 -1.2690
15137TIP3   OH266825   1.581   3.615   5.677  0.2039 -0.4760 -0.4887
15137TIP3    H166826   1.523   3.545   5.706  0.8972 -0.9527 -0.2460
15137TIP3    H266827   1.591   3.601   5.583 -0.8814  0.2152 -0.7252
15138TIP3   OH266828   4.775   3.876   0.619  0.3547 -0.1122 -0.3670
15138TIP3    H166829   4.750   3.968   0.607 -0.1130 -0.0892  0.7425
15138TIP3    H266830   4.830   3.856   0.543  1.1502  1.3310 -0.1871
15139TIP3   OH266831   2.817   2.883  16.777  0.1302 -0.2557 -0.3486
15139TIP3    H166832   2.743   2.939  16.800  0.3973  0.7121 -1.8052
15139TIP3    H266833   2.790   2.795  16.805 -0.2457  0.5821  2.0697
15140TIP3   OH266834   2.773   4.811   4.427  0.1906  0.6235  0.2006
15140TIP3    H166835   2.722   4.730   4.433  2.0410 -0.4495  2.2911
15140TIP3    H266836   2.719   4.870   4.376 -1.7992 -1.4900 -0.2169
15141TIP3   OH266837   4.749   2.047   5.269 -0.1447  0.2802  0.6289
15141TIP3    H166838   4.668   2.023   5.313 -0.3529 -0.0302  0.0735
15141TIP3    H266839   4.794   1.964   5.253 -0.4499  0.3178 -0.4822
15142TIP3   OH266840   0.512   1.492   5.498  0.2708  0.3511  0.2179
15142TIP3    H166841   0.514   1.474   5.591 -0.2370  1.5323  0.4748
15142TIP3    H266842   0.442   1.557   5.488  0.3603  0.2781 -0.9675
15143TIP3   OH266843   0.720   1.432   4.434  0.4407  0.3074 -0.1985
15143TIP3    H166844   0.795   1.422   4.493 -0.1480  2.7567  0.9768
15143TIP3    H266845   0.759   1.457   4.350  0.7948  4.8256  1.2321
15144TIP3   OH266846   3.398   5.537   5.379  0.0710 -0.2174 -0.2478
15144TIP3    H166847   3.482   5.560   5.418  0.8753 -2.2459 -0.7336
15144TIP3    H266848   3.390   5.594   5.303 -0.5300  2.2822  1.6038
15145TIP3   OH266849   3.863   6.515  16.013  0.4457  0.0670  0.3485
15145TIP3    H166850   3.947   6.528  16.057  1.7666  0.9557 -2.3482
15145TIP3    H266851   3.886   6.470  15.931 -1.7276  0.2134 -0.3675
15146TIP3   OH266852   1.370   3.873   0.441 -0.1596 -0.4302 -0.5169
15146TIP3    H166853   1.367   3.791   0.490  1.3034  0.4432  1.1193
15146TIP3    H266854   1.322   3.936   0.496 -0.4204  0.0401 -1.2744
15147TIP3   OH266855   4.940   4.845  13.432  0.0148 -0.6785  0.6582
15147TIP3    H166856   4.970   4.869  13.344 -3.7028  2.3189  0.0530
15147TIP3    H266857   4.889   4.765  13.418 -1.1762  0.1868 -0.1044
15148TIP3   OH266858   1.479   5.159  16.529  0.1323 -0.2664  0.1123
15148TIP3    H166859   1.516   5.131  16.445  1.1578  2.4975 -0.3984
15148TIP3    H266860   1.484   5.081  16.585 -0.8385 -2.2338 -2.4514
15149TIP3   OH266861   1.437   1.489   2.085  0.3084 -0.1575 -0.1977
15149TIP3    H166862   1.504   1.543   2.043  0.9702  0.0158  1.0504
15149TIP3    H266863   1.472   1.400   2.081 -0.8878 -0.5613 -2.4628
15150TIP3   OH266864   2.799   1.171  15.727  0.7491  0.3806  0.1695
15150TIP3    H166865   2.843   1.250  15.758  1.2174  0.5145 -0.8075
15150TIP3    H266866   2.849   1.144  15.650 -1.1910  0.8686 -1.3211
15151TIP3   OH266867   5.859   2.095  11.073 -1.3573  0.6829  0.2004
15151TIP3    H166868   5.952   2.106  11.093 -1.2246  0.3432 -0.2131
15151TIP3    H266869   5.846   2.145  10.992 -1.2235 -0.4002 -0.5006
15152TIP3   OH266870   4.269   3.893   1.226  0.2250 -0.1361  0.0685
15152TIP3    H166871   4.326   3.831   1.272  0.5809  0.0376 -0.1425
15152TIP3    H266872   4.252   3.962   1.291 -2.8086 -2.0573  1.4166
15153TIP3   OH266873   2.439   5.875   2.747 -0.0750  0.5403 -0.1707
15153TIP3    H166874   2.437   5.882   2.842  0.7980 -1.4276  0.0035
15153TIP3    H266875   2.381   5.801   2.727  0.4887  0.3441 -1.1066
15154TIP3   OH266876   2.251   5.719   5.413  0.4337 -0.4735 -0.2122
15154TIP3    H166877   2.178   5.766   5.374  0.4045 -1.1637 -1.0077
15154TIP3    H266878   2.211   5.655   5.470  0.4393 -0.3142 -0.0290
15155TIP3   OH266879   3.052   3.498   1.937  0.7548 -0.0609  0.4848
15155TIP3    H166880   3.143   3.500   1.910  0.7920  0.0320  0.6189
15155TIP3    H266881   3.029   3.405   1.938  0.8201 -0.0784  0.3636
15156TIP3   OH266882   4.261   3.205  17.235 -0.2175  0.1513  0.6444
15156TIP3    H166883   4.296   3.288  17.266 -1.0471  0.6789  0.2053
15156TIP3    H266884   4.278   3.205  17.141  1.8989 -1.2488  0.9909
15157TIP3   OH266885   4.946   0.502  16.040  0.3374  0.7290  0.1627
15157TIP3    H166886   4.945   0.443  15.964  2.2724 -0.0290  0.7134
15157TIP3    H266887   4.994   0.454  16.107  0.3342  2.2061  1.2406
15158TIP3   OH266888   1.117   6.580  15.350  0.4161 -0.2995  0.4603
15158TIP3    H166889   1.041   6.575  15.407  0.4494 -0.8627  0.4660
15158TIP3    H266890   1.174   6.645  15.391  0.9516 -1.5234  1.7077
15159TIP3   OH266891   2.885   2.555   4.834  0.3464 -0.5196  0.3725
15159TIP3    H166892   2.965   2.573   4.783 -0.4210  1.0972 -0.2859
15159TIP3    H266893   2.815   2.593   4.782 -0.5217  0.7308  2.4284
15160TIP3   OH266894   3.432   6.719   2.783 -0.2108 -0.2592 -0.2436
15160TIP3    H166895   3.398   6.656   2.847  1.5718 -0.5167  0.4884
15160TIP3    H266896   3.369   6.791   2.784 -1.3100 -1.2149  0.2515
15161TIP3   OH266897   3.927   2.203  14.647 -0.3502 -0.3075  0.7215
15161TIP3    H166898   3.984   2.220  14.722 -0.6973 -0.6881  1.0749
15161TIP3    H266899   3.856   2.266  14.657 -0.2396 -0.1563  0.5477
15162TIP3   OH266900   5.170   0.167   4.869 -0.4875 -0.7174  0.2475
15162TIP3    H166901   5.091   0.221   4.872 -0.8820 -1.3637  1.3654
15162TIP3    H266902   5.158   0.111   4.792 -1.4948 -1.3847  0.8778
15163TIP3   OH266903   2.163   6.758   5.878 -0.3668 -0.2530 -0.0834
15163TIP3    H166904   2.208   6.674   5.879 -1.8071 -1.0275  1.1811
15163TIP3    H266905   2.145   6.777   5.970  0.4730  1.7478 -0.2918
15164TIP3   OH266906   5.444   6.457  14.775  0.3482 -0.1540  0.5430
15164TIP3    H166907   5.381   6.403  14.823  1.5499 -0.1158  2.2426
15164TIP3    H266908   5.508   6.394  14.742 -0.6612 -0.2127 -1.3314
15165TIP3   OH266909   1.506   4.367  15.263 -0.0208 -0.0116 -0.2508
15165TIP3    H166910   1.523   4.331  15.175  0.4360  0.8310 -0.5115
15165TIP3    H266911   1.433   4.315  15.296  0.3929 -0.9396 -0.7758
15166TIP3   OH266912   0.635   4.828  13.457  0.2433 -0.8997  0.4023
15166TIP3    H166913   0.638   4.759  13.392  1.6721 -0.5154  0.0575
15166TIP3    H266914   0.601   4.904  13.410  0.5580 -0.8269  0.2920
15167TIP3   OH266915   6.694   2.130   2.130 -0.3589  0.1501  0.1001
15167TIP3    H166916   6.693   2.039   2.100  1.3335 -0.0071  0.4634
15167TIP3    H266917   6.777   2.139   2.177 -0.6403  1.8066  0.3180
15168TIP3   OH266918   1.418   6.344  10.961  0.2897  0.2897 -0.9776
15168TIP3    H166919   1.485   6.291  11.004 -1.0307 -1.8162 -1.3742
15168TIP3    H266920   1.351   6.356  11.028 -0.3967 -0.4243 -1.5184
15169TIP3   OH266921   5.293   5.034   5.070  0.0023 -0.0865 -0.0852
15169TIP3    H166922   5.236   5.105   5.099  1.1524  0.0997  1.8170
15169TIP3    H266923   5.378   5.053   5.110  1.1420 -0.9405 -1.9723
15170TIP3   OH266924   6.685   0.886   3.405  0.1529 -0.0478 -0.3565
15170TIP3    H166925   6.701   0.929   3.489  1.7178  0.0252 -0.6832
15170TIP3    H266926   6.695   0.793   3.423 -2.4860 -0.2774  0.1803
15171TIP3   OH266927   5.886   5.913  11.119  0.0131 -0.2570 -0.0157
15171TIP3    H166928   5.830   5.865  11.180 -0.5221  0.2536 -0.1071
15171TIP3    H266929   5.905   5.995  11.164  1.1670 -0.6709  0.2638
15172TIP3   OH266930   0.114   4.442  15.054 -0.5772  0.0468  0.1682
15172TIP3    H166931   0.098   4.432  14.960  2.0036 -0.5698 -0.2385
15172TIP3    H266932   0.119   4.353  15.087 -0.8821  0.2623  0.8029
15173TIP3   OH266933   2.479   4.562   6.085 -0.0604 -0.1236  0.1661
15173TIP3    H166934   2.392   4.602   6.083  0.2145  0.4608 -0.1946
15173TIP3    H266935   2.538   4.632   6.059  0.6654 -0.1236  1.7245
15174TIP3   OH266936   1.293   5.308  14.744 -0.1927 -0.7606  0.0496
15174TIP3    H166937   1.269   5.329  14.835 -2.1309 -0.6773 -0.4504
15174TIP3    H266938   1.330   5.389  14.710 -0.1609 -0.5602  0.5514
15175TIP3   OH266939   1.274   1.185  13.366  0.3973 -0.8448 -0.2622
15175TIP3    H166940   1.345   1.212  13.423 -0.1467 -0.8161  0.4060
15175TIP3    H266941   1.309   1.196  13.278  0.1877  2.0470 -0.0267
15176TIP3   OH266942   5.123   4.383  11.848  0.0381 -0.1553 -0.0180
15176TIP3    H166943   5.190   4.314  11.843 -1.2761 -1.4676  0.2837
15176TIP3    H266944   5.118   4.418  11.759  0.8249 -0.3478 -0.1413
15177TIP3   OH266945   6.067   2.332   3.859 -0.0827  0.1734  0.0618
15177TIP3    H166946   6.029   2.340   3.772  2.5129  0.3768 -1.0859
15177TIP3    H266947   6.097   2.242   3.864  1.5338  0.7010  0.0047
15178TIP3   OH266948   4.267   1.861   1.533 -0.0425  0.3429  0.9626
15178TIP3    H166949   4.329   1.805   1.580 -0.1308 -0.7467 -0.2102
15178TIP3    H266950   4.313   1.945   1.525  1.0204 -0.2634  0.6741
15179TIP3   OH266951   6.042   4.018   0.483 -0.2972 -0.1464 -0.8658
15179TIP3    H166952   6.025   4.106   0.448  2.9622 -0.7308 -4.2095
15179TIP3    H266953   6.057   3.964   0.406  1.7287 -2.7531  1.2678
15180TIP3   OH266954   1.230   3.840   5.143  0.4417 -0.3214 -0.5124
15180TIP3    H166955   1.282   3.914   5.174  2.2951 -1.6244 -0.4370
15180TIP3    H266956   1.205   3.793   5.222 -1.0317  0.3922 -0.5363
15181TIP3   OH266957   2.792   3.837  16.423  0.1920 -0.4252  0.1234
15181TIP3    H166958   2.785   3.750  16.464 -1.2638  0.7790  2.5631
15181TIP3    H266959   2.703   3.871  16.424  1.0536  1.9448  1.1997
15182TIP3   OH266960   2.832   5.660  14.172 -0.5083 -0.4817  0.2003
15182TIP3    H166961   2.819   5.738  14.226  0.8400 -0.4334  0.4736
15182TIP3    H266962   2.806   5.687  14.084  1.1332  0.6774  0.0457
15183TIP3   OH266963   0.106   2.456   5.478 -0.2592 -0.9373 -0.6074
15183TIP3    H166964   0.032   2.480   5.535  0.3831  0.4506 -0.3372
15183TIP3    H266965   0.084   2.496   5.393  0.6664  0.3991 -0.2395
15184TIP3   OH266966   1.765   1.619  15.484  0.0881  0.2703 -0.8965
15184TIP3    H166967   1.848   1.571  15.485 -0.1098 -0.0949 -1.7326
15184TIP3    H266968   1.791   1.712  15.481  0.4617  0.1440 -1.5955
15185TIP3   OH266969   5.729   3.042  16.343  0.2307 -0.3867 -0.2606
15185TIP3    H166970   5.759   3.091  16.419 -0.8980  2.4025 -1.5063
15185TIP3    H266971   5.781   3.077  16.270 -2.0603  0.5396 -1.5116
15186TIP3   OH266972   2.131   6.244   3.088  0.1245 -0.0203  0.0185
15186TIP3    H166973   2.107   6.167   3.141  0.2445 -0.6406 -0.8285
15186TIP3    H266974   2.172   6.304   3.151 -1.7147  0.1755  1.0787
15187TIP3   OH266975   0.305   4.217   2.949  0.0323  0.1326  0.5785
15187TIP3    H166976   0.334   4.227   3.039 -0.1892  1.2840  0.5291
15187TIP3    H266977   0.385   4.209   2.898  0.1928  0.8464  0.7218
15188TIP3   OH266978   5.508   5.885   4.984 -0.1556  0.6336 -0.3010
15188TIP3    H166979   5.536   5.969   4.948  0.3817  0.6235  0.0912
15188TIP3    H266980   5.579   5.858   5.043 -1.1516  0.7874  0.9971
15189TIP3   OH266981   1.953   3.078   1.275  1.1904 -0.4651  0.0518
15189TIP3    H166982   1.869   3.048   1.242  0.4346 -0.3152  1.7875
15189TIP3    H266983   1.969   3.161   1.231  1.4592 -1.4832 -1.8680
15190TIP3   OH266984   4.876   1.173  16.440 -0.0813  0.1101  0.5869
15190TIP3    H166985   4.812   1.223  16.390 -0.7903 -1.4646 -0.1123
15190TIP3    H266986   4.845   1.180  16.531 -1.2144 -0.5536  0.2700
15191TIP3   OH266987   1.118   4.114  14.402 -0.4684  0.0325 -0.0724
15191TIP3    H166988   1.081   4.113  14.490  1.3864 -0.2223  0.7220
15191TIP3    H266989   1.162   4.029  14.394 -0.1866  0.2635 -1.0678
15192TIP3   OH266990   1.122   4.736   2.849 -0.0135  0.0048  0.2561
15192TIP3    H166991   1.035   4.698   2.852 -0.1814  0.1945 -1.4977
15192TIP3    H266992   1.134   4.761   2.757  1.5631  0.7188  0.6355
15193TIP3   OH266993   3.741   4.676  13.308 -0.2534 -0.4607  0.1010
15193TIP3    H166994   3.659   4.684  13.357 -0.9989 -0.4896 -1.1206
15193TIP3    H266995   3.722   4.612  13.240  0.8084 -0.4953 -0.1763
15194TIP3   OH266996   4.015   5.477  17.113  0.0324  0.5966 -0.0386
15194TIP3    H166997   4.091   5.424  17.087 -1.3137 -0.6575 -1.5160
15194TIP3    H266998   4.051   5.564  17.126  1.6417  0.1804 -1.4009
15195TIP3   OH266999   5.130   2.779   5.152 -0.0836 -0.6776 -0.0207
15195TIP3    H167000   5.175   2.862   5.170  0.9370 -1.2977  0.2960
15195TIP3    H267001   5.095   2.790   5.064  0.2223  0.0155 -0.0597
15196TIP3   OH267002   2.471   3.644  17.237 -0.1973 -0.1615  0.4704
15196TIP3    H167003   2.544   3.662  17.179  0.9622  0.0608  1.9685
15196TIP3    H267004   2.476   3.712  17.304 -0.7899 -1.1046  1.4952
15197TIP3   OH267005   5.077   3.078  13.428  0.0852  0.5519 -0.2742
15197TIP3    H167006   5.023   3.156  13.443  0.5720  0.6744  0.9322
15197TIP3    H267007   5.115   3.092  13.341 -0.7212  1.1223 -0.5455
15198TIP3   OH267008   0.526   0.424  14.495 -0.5484 -0.4059  0.0309
15198TIP3    H167009   0.576   0.450  14.418 -0.9409  1.6493  0.4400
15198TIP3    H267010   0.588   0.428  14.568 -0.7607 -0.0163  0.1928
15199TIP3   OH267011   0.201   2.614  10.196 -0.2212 -0.5255 -0.2700
15199TIP3    H167012   0.131   2.592  10.135  1.8116 -0.7693 -2.5831
15199TIP3    H267013   0.241   2.530  10.219 -0.1459 -0.3182  0.3897
15200TIP3   OH267014   2.500   4.791  13.992  0.3479  0.0488 -0.8573
15200TIP3    H167015   2.543   4.855  13.935 -0.0122 -0.4293 -1.6853
15200TIP3    H267016   2.548   4.709  13.975  0.3007 -0.0724 -0.3978
15201TIP3   OH267017   5.018   1.768   2.510  0.1347  0.4449  0.4153
15201TIP3    H167018   4.927   1.748   2.534  0.0523  0.4532  0.1134
15201TIP3    H267019   5.062   1.782   2.594  0.4091 -1.9638  0.7244
15202TIP3   OH267020   3.424   3.432   3.198 -0.9684 -0.6892 -0.1511
15202TIP3    H167021   3.330   3.412   3.199 -1.3360  0.5617 -3.1178
15202TIP3    H267022   3.430   3.523   3.225 -0.6689 -0.6079 -0.4890
15203TIP3   OH267023   3.725   3.711  14.319 -0.1981  0.2615  0.0452
15203TIP3    H167024   3.632   3.699  14.340 -0.3566  0.6328 -0.4508
15203TIP3    H267025   3.765   3.735  14.403 -0.7069  1.0100  0.0762
15204TIP3   OH267026   6.270   3.140   4.509 -0.1751  0.1341  0.1841
15204TIP3    H167027   6.319   3.201   4.564 -1.9175  1.4018  0.3721
15204TIP3    H267028   6.196   3.112   4.563 -0.1210 -1.1079 -0.3709
15205TIP3   OH267029   6.090   5.896   1.180 -0.0015 -0.4715 -0.4043
15205TIP3    H167030   5.998   5.886   1.204 -0.3963 -0.1367 -1.7370
15205TIP3    H267031   6.138   5.854   1.252 -1.2167 -1.3572 -0.0919
15206TIP3   OH267032   3.794   3.824   6.591 -0.0641 -0.5270  0.6592
15206TIP3    H167033   3.767   3.766   6.663 -0.0635  0.3247  1.3491
15206TIP3    H267034   3.890   3.822   6.593 -0.0656 -0.8045  0.4388
15207TIP3   OH267035   6.475   2.656   0.744  0.0262 -0.1697 -0.2328
15207TIP3    H167036   6.451   2.585   0.685 -1.1637 -0.0297  0.0737
15207TIP3    H267037   6.540   2.708   0.695  0.3590 -1.0485 -0.7233
15208TIP3   OH267038   3.238   5.986   1.121 -0.0507 -0.0943  0.0762
15208TIP3    H167039   3.299   5.967   1.049  1.3536  1.8886  0.6989
15208TIP3    H267040   3.223   5.900   1.162 -0.0735 -1.0887 -1.9381
15209TIP3   OH267041   1.574   2.513  11.314  0.2099  0.1937  0.0787
15209TIP3    H167042   1.518   2.589  11.328 -1.6376 -1.1781  0.2684
15209TIP3    H267043   1.633   2.539  11.243 -1.7963  1.0747 -1.2888
15210TIP3   OH267044   2.743   6.720   4.874  0.2710  0.0820 -0.2276
15210TIP3    H167045   2.731   6.811   4.902  0.9880  0.1319 -0.0658
15210TIP3    H267046   2.838   6.710   4.867  0.2353 -0.9043  0.6167
15211TIP3   OH267047   1.869   4.411  16.383 -0.3295  0.1069  0.4668
15211TIP3    H167048   1.907   4.337  16.430  0.6585  0.8634  0.8895
15211TIP3    H267049   1.944   4.455  16.343 -0.7872  1.5028  1.1278
15212TIP3   OH267050   3.648   3.051   6.522 -0.0768  0.0603  0.2580
15212TIP3    H167051   3.665   3.051   6.428 -1.1766  1.5512  0.0449
15212TIP3    H267052   3.600   2.969   6.538 -0.0300 -0.1181 -0.5051
15213TIP3   OH267053   5.168   1.121  11.522  0.2461 -0.2431 -0.0721
15213TIP3    H167054   5.223   1.148  11.596  1.6842 -1.8200 -0.5263
15213TIP3    H267055   5.203   1.036  11.496 -0.7701 -0.0901 -2.0444
15214TIP3   OH267056   0.576   1.693   5.837  0.4948 -0.0633  0.2019
15214TIP3    H167057   0.570   1.604   5.802  1.1755  0.0622 -0.2311
15214TIP3    H267058   0.617   1.683   5.922  0.3375 -0.1888  0.2643
15215TIP3   OH267059   5.193   1.730   1.670  0.4072 -0.1717  0.1045
15215TIP3    H167060   5.237   1.709   1.753  1.7875 -0.6674 -0.7459
15215TIP3    H267061   5.226   1.665   1.608 -1.1147 -0.2027 -0.6881
15216TIP3   OH267062   4.197   2.898   1.587 -0.0270  0.2034  0.1901
15216TIP3    H167063   4.155   2.939   1.662 -1.2005  0.2143 -0.4710
15216TIP3    H267064   4.272   2.852   1.625 -0.5412  0.2976  1.3583
15217TIP3   OH267065   4.406   5.465   4.945  0.3225  0.3615 -0.4709
15217TIP3    H167066   4.490   5.510   4.931  0.0052  1.2696  0.4507
15217TIP3    H267067   4.345   5.536   4.964 -0.1337 -0.4991  1.3145
15218TIP3   OH267068   0.229   2.808   1.935 -0.1713 -0.3324  0.7632
15218TIP3    H167069   0.136   2.826   1.951 -0.3879 -1.8253  1.3036
15218TIP3    H267070   0.229   2.722   1.893  0.9382 -0.1203  0.3298
15219TIP3   OH267071   3.591   0.446  15.383  0.3190 -0.0934 -0.2929
15219TIP3    H167072   3.534   0.450  15.460 -0.7293  2.0810 -1.1421
15219TIP3    H267073   3.667   0.396  15.412 -0.6169 -0.3774  1.7741
15220TIP3   OH267074   0.252   4.041   4.477 -0.3157  0.5457 -0.4033
15220TIP3    H167075   0.205   3.972   4.429 -0.2588  0.7966 -0.8160
15220TIP3    H267076   0.341   4.038   4.443 -0.2943  0.7740 -0.3682
15221TIP3   OH267077   4.017   2.980  16.269 -0.0318 -0.6687 -0.1093
15221TIP3    H167078   4.035   3.067  16.304  0.6615 -1.0451  0.5063
15221TIP3    H267079   4.078   2.970  16.196 -0.6092 -0.3601 -0.6336
15222TIP3   OH267080   3.747   0.888  13.589 -0.6621  0.0819  0.2853
15222TIP3    H167081   3.803   0.813  13.569 -1.1196 -0.0452 -0.5344
15222TIP3    H267082   3.802   0.965  13.573 -1.2635  0.0094 -2.2689
15223TIP3   OH267083   0.533   5.884   0.708 -0.5116 -0.2412 -0.2520
15223TIP3    H167084   0.472   5.860   0.639  0.9953 -1.0912 -1.3141
15223TIP3    H267085   0.529   5.980   0.711 -0.6194 -0.1970 -1.5066
15224TIP3   OH267086   3.341   3.101  14.185 -0.7482 -0.2428 -0.2127
15224TIP3    H167087   3.367   3.192  14.199  1.6602 -1.0511  0.8151
15224TIP3    H267088   3.322   3.095  14.091 -3.0409  1.7946  0.0555
15225TIP3   OH267089   4.379   3.510  10.863 -0.5987  0.2238  0.7432
15225TIP3    H167090   4.375   3.456  10.784  0.4918  0.4873  0.5046
15225TIP3    H267091   4.430   3.586  10.838 -1.4167  0.9755  1.3248
15226TIP3   OH267092   3.332   4.672  13.631 -0.0242 -0.0583  0.4357
15226TIP3    H167093   3.397   4.690  13.563  0.7903 -0.4376  1.1039
15226TIP3    H267094   3.354   4.733  13.702 -0.4767 -0.0988  0.6137
15227TIP3   OH267095   1.163   4.858   0.215 -0.0246  0.2097  0.2225
15227TIP3    H167096   1.119   4.819   0.291  1.0299  0.2435  0.8648
15227TIP3    H267097   1.134   4.804   0.141 -1.0267  0.1488  0.6533
15228TIP3   OH267098   1.554   1.748  15.353  0.6215  0.2199 -0.1984
15228TIP3    H167099   1.645   1.726  15.371  0.7231  0.6583 -0.1777
15228TIP3    H267100   1.505   1.669  15.376  1.0689 -0.2681 -0.8938
15229TIP3   OH267101   1.677   1.381  13.920  0.2443  0.0249 -0.2397
15229TIP3    H167102   1.748   1.446  13.921  1.3526 -1.1564 -0.0215
15229TIP3    H267103   1.637   1.387  14.006 -0.4078  1.2181 -0.6232
15230TIP3   OH267104   6.109   4.449   2.535  0.1685  0.3440  0.2746
15230TIP3    H167105   6.177   4.394   2.497  1.3602  1.3996  0.8484
15230TIP3    H267106   6.101   4.523   2.476  1.1064  1.3388  1.3867
15231TIP3   OH267107   5.234   1.125   3.222 -0.0754  0.5010  0.1332
15231TIP3    H167108   5.182   1.053   3.258  2.7978 -2.7390 -1.9086
15231TIP3    H267109   5.306   1.136   3.285  0.8143 -0.0974 -0.7571
15232TIP3   OH267110   6.433   1.378   0.434 -0.1949 -0.2844  0.4214
15232TIP3    H167111   6.355   1.391   0.488  0.1869 -0.8111  1.1054
15232TIP3    H267112   6.484   1.459   0.446 -0.8470  0.2420 -0.3772
15233TIP3   OH267113   3.925   2.232  15.805  0.3437  0.4172 -0.2294
15233TIP3    H167114   3.898   2.321  15.781  2.6102  1.1165 -0.3037
15233TIP3    H267115   3.987   2.244  15.877  0.5257 -1.1199 -0.1125
15234TIP3   OH267116   5.410   1.804   3.119 -0.2396 -0.4423  0.1453
15234TIP3    H167117   5.382   1.737   3.057 -1.1095  0.4765 -0.4779
15234TIP3    H267118   5.410   1.885   3.068  1.1295 -0.0280  0.7972
15235TIP3   OH267119   0.765   1.370   0.428 -0.6970 -0.3302  0.2894
15235TIP3    H167120   0.714   1.431   0.482 -0.3853  1.2952 -1.1910
15235TIP3    H267121   0.845   1.418   0.406 -0.3147 -1.3861 -0.6857
15236TIP3   OH267122   5.204   1.502   2.693 -0.5771 -0.6985 -0.1432
15236TIP3    H167123   5.284   1.536   2.733 -1.1095  1.0350 -0.5313
15236TIP3    H267124   5.229   1.479   2.604 -0.7328  0.7756 -0.5776
15237TIP3   OH267125   4.173   5.846   5.251 -0.4652 -0.4202 -0.0037
15237TIP3    H167126   4.097   5.894   5.219 -0.0823 -1.8099 -3.2313
15237TIP3    H267127   4.147   5.754   5.248  1.3013 -0.9170 -1.1620
15238TIP3   OH267128   6.252   0.741  16.136  0.0777  0.9685  0.2721
15238TIP3    H167129   6.162   0.772  16.147 -0.2718 -0.5281  1.9457
15238TIP3    H267130   6.266   0.684  16.212  1.7227 -0.4808 -1.0947
15239TIP3   OH267131   2.354   4.728   2.672 -0.3811 -0.5658  0.7727
15239TIP3    H167132   2.341   4.634   2.685 -0.5127 -0.5761  0.5761
15239TIP3    H267133   2.437   4.736   2.626 -0.1335 -0.5552  1.2215
15240TIP3   OH267134   4.683   5.721  11.863 -0.9416  0.1965  0.4642
15240TIP3    H167135   4.695   5.658  11.792 -2.2823  0.1509  0.2602
15240TIP3    H267136   4.759   5.709  11.920 -0.5635 -0.7325 -0.2282
15241TIP3   OH267137   1.869   0.517   3.193  0.2810 -0.4814 -0.4764
15241TIP3    H167138   1.906   0.447   3.247  0.1229 -0.6596 -0.5981
15241TIP3    H267139   1.844   0.474   3.111  0.6105 -0.1906 -0.7297
15242TIP3   OH267140   5.146   0.733  13.892 -0.7460 -0.1428 -0.1937
15242TIP3    H167141   5.191   0.801  13.944 -0.3147  0.1750 -0.9747
15242TIP3    H267142   5.217   0.681  13.854 -1.0335  0.2378 -1.2721
15243TIP3   OH267143   5.649   4.647  16.031  0.2816  0.2780 -0.5711
15243TIP3    H167144   5.626   4.571  16.085  2.0324 -0.1041 -0.3592
15243TIP3    H267145   5.653   4.613  15.942 -0.4831  0.4618 -0.6830
15244TIP3   OH267146   1.252   1.803  11.134 -0.5229  0.3484 -0.4677
15244TIP3    H167147   1.235   1.849  11.216  2.2701  1.6557 -0.5608
15244TIP3    H267148   1.263   1.711  11.159  1.1949  0.8756  0.7656
15245TIP3   OH267149   0.186   3.309   1.183 -0.0328  0.0610 -0.0603
15245TIP3    H167150   0.279   3.331   1.173  0.4447 -2.0328 -0.4933
15245TIP3    H267151   0.177   3.223   1.143 -2.1551  0.1713  0.0966
15246TIP3   OH267152   2.954   6.215  16.110  0.8479 -0.7211  0.9073
15246TIP3    H167153   2.970   6.129  16.070  2.0589 -1.1454  2.2387
15246TIP3    H267154   3.027   6.269  16.082 -1.3759  0.7902 -2.2688
15247TIP3   OH267155   5.809   3.291  16.891  0.5514 -0.1916  0.3023
15247TIP3    H167156   5.821   3.383  16.916 -0.2156  0.3727 -1.3058
15247TIP3    H267157   5.893   3.266  16.851  0.0304  0.5075 -1.2777
15248TIP3   OH267158   2.076   2.830   5.182  0.5875  0.2173 -0.1666
15248TIP3    H167159   1.984   2.803   5.186 -0.1643  2.8704  1.1295
15248TIP3    H267160   2.091   2.877   5.264  2.7132  0.9584 -0.9626
15249TIP3   OH267161   2.807   5.978   1.629 -0.0489 -0.4170  0.1453
15249TIP3    H167162   2.717   5.958   1.605 -0.4625  1.1107  0.4048
15249TIP3    H267163   2.805   5.989   1.724  0.4662 -0.6246  0.1838
15250TIP3   OH267164   4.572   4.291   6.199  0.5647  0.3247 -0.2865
15250TIP3    H167165   4.610   4.256   6.280  0.2114 -0.5495 -0.4883
15250TIP3    H267166   4.636   4.354   6.167  1.2773 -0.2436  0.0217
15251TIP3   OH267167   2.922   0.377   2.553  0.5473  0.0558 -0.0099
15251TIP3    H167168   2.909   0.466   2.585  1.6695  0.0241  0.5803
15251TIP3    H267169   2.834   0.339   2.549  0.1567  0.8865  0.6476
15252TIP3   OH267170   6.452   2.042   3.305 -0.2411  0.1656  0.5671
15252TIP3    H167171   6.368   1.996   3.305 -0.9330  1.4026  0.8315
15252TIP3    H267172   6.512   1.983   3.260 -0.7344 -1.6669  2.2610
15253TIP3   OH267173   0.214   3.070  16.859  0.3237 -0.4130 -0.0109
15253TIP3    H167174   0.151   3.141  16.860  0.0078 -0.6801 -0.9492
15253TIP3    H267175   0.195   3.021  16.779 -0.0075 -2.0436  1.0284
15254TIP3   OH267176   0.018   2.744   5.304  0.6884  0.5364 -0.2236
15254TIP3    H167177   0.097   2.751   5.250  0.5702  0.6339 -0.3868
15254TIP3    H267178   0.034   2.802   5.378  0.6673  0.7458 -0.3839
15255TIP3   OH267179   3.952   5.510   3.018  0.0503  0.8600 -0.3666
15255TIP3    H167180   3.883   5.565   2.981  0.8552  1.6797 -0.6898
15255TIP3    H267181   4.007   5.487   2.943  0.9078  1.3738  0.0883
15256TIP3   OH267182   2.891   6.169   4.347  0.3474 -0.3181  0.2001
15256TIP3    H167183   2.830   6.111   4.300  0.8656 -0.4663 -0.2911
15256TIP3    H267184   2.951   6.110   4.392 -0.3619 -0.1804  1.3436
15257TIP3   OH267185   6.633   2.155  16.993  0.3331  0.0333  0.4837
15257TIP3    H167186   6.626   2.220  17.063 -0.7335 -0.0729  0.4838
15257TIP3    H267187   6.572   2.086  17.019 -0.4970  0.2561 -0.8461
15258TIP3   OH267188   2.945   6.473  13.734  0.6327 -0.1355 -0.4984
15258TIP3    H167189   2.924   6.380  13.723  1.6671 -0.4671  0.2717
15258TIP3    H267190   2.942   6.488  13.828 -0.0378  0.7467 -0.6481
15259TIP3   OH267191   5.516   6.526  15.190  0.2302  0.2953  0.2330
15259TIP3    H167192   5.516   6.432  15.168 -0.3850  0.6817 -1.4750
15259TIP3    H267193   5.453   6.533  15.262 -2.1735 -0.1702 -1.7209
15260TIP3   OH267194   5.413   2.595   3.660 -0.2659  0.2838  0.3411
15260TIP3    H167195   5.415   2.682   3.702 -2.1978  0.3993  0.2695
15260TIP3    H267196   5.499   2.585   3.621 -0.3253  2.5892 -0.4500
15261TIP3   OH267197   4.474   4.321   2.729 -0.7121  0.1229 -0.4111
15261TIP3    H167198   4.398   4.302   2.783 -0.5733 -0.1154 -0.2975
15261TIP3    H267199   4.471   4.416   2.714 -0.3956  0.2849  0.5461
15262TIP3   OH267200   4.705   6.058   1.824  0.0734  0.3062  0.2869
15262TIP3    H167201   4.665   6.138   1.859 -0.2700  0.2698 -0.0195
15262TIP3    H267202   4.631   5.998   1.812  0.6352 -0.9887  2.9848
15263TIP3   OH267203   3.450   5.607  15.322  1.1271 -0.3630 -0.2217
15263TIP3    H167204   3.397   5.629  15.246  1.7171 -1.3348 -0.9293
15263TIP3    H267205   3.457   5.689  15.372  1.5430  0.5112 -1.7022
15264TIP3   OH267206   2.474   5.759   5.715 -0.1282 -0.2215 -0.1431
15264TIP3    H167207   2.426   5.677   5.716 -0.6714  0.0976  0.2621
15264TIP3    H267208   2.424   5.818   5.772  1.3512 -0.2300  1.2290
15265TIP3   OH267209   5.524   6.497  11.861 -0.2268  1.0333  0.2136
15265TIP3    H167210   5.501   6.587  11.883 -1.3201  1.2371 -1.6796
15265TIP3    H267211   5.606   6.504  11.812 -1.3173  1.2099 -1.6442
15266TIP3   OH267212   0.932   5.708  14.038  0.4837 -0.8655  0.4076
15266TIP3    H167213   0.939   5.636  14.100  2.3478 -1.2905 -0.2523
15266TIP3    H267214   0.844   5.744  14.052  0.1963 -2.1273  1.9718
15267TIP3   OH267215   1.007   5.297  15.350 -0.1327 -0.5634  0.1540
15267TIP3    H167216   1.036   5.243  15.277  1.6467  0.1925  0.2705
15267TIP3    H267217   0.998   5.235  15.423  0.0295 -0.9937 -0.1899
15268TIP3   OH267218   4.434   0.204  16.873 -0.1267  0.6033  0.3898
15268TIP3    H167219   4.428   0.288  16.920  1.2949  1.8851 -1.6035
15268TIP3    H267220   4.463   0.229  16.785  0.4438 -2.0289 -0.1897
15269TIP3   OH267221   2.798   0.105   2.870 -0.3999  0.1871  0.3652
15269TIP3    H167222   2.788   0.017   2.834  0.1656 -0.0695  0.8238
15269TIP3    H267223   2.713   0.125   2.909 -1.0131  0.4590 -1.0700
15270TIP3   OH267224   0.442   2.773  13.813 -0.3760 -0.4880 -0.3117
15270TIP3    H167225   0.350   2.754  13.795 -0.3159 -0.5967 -0.5106
15270TIP3    H267226   0.459   2.729  13.897 -0.3952 -0.8277 -0.4816
15271TIP3   OH267227   6.574   2.379   1.863 -0.2364  0.1325 -0.0406
15271TIP3    H167228   6.585   2.474   1.853  0.3752 -0.2790 -4.0292
15271TIP3    H267229   6.663   2.344   1.862 -0.3976 -0.4345  2.5860
15272TIP3   OH267230   3.041   5.193  14.805 -0.4996  0.2376 -0.2629
15272TIP3    H167231   3.016   5.180  14.714  0.6960 -1.2649 -0.3936
15272TIP3    H267232   3.019   5.110  14.848 -0.6216  0.7695  0.7271
15273TIP3   OH267233   3.601   0.570   3.188  0.1094 -0.4191  0.2157
15273TIP3    H167234   3.660   0.498   3.167  1.2431  0.4034  0.5207
15273TIP3    H267235   3.630   0.642   3.131 -1.5224 -0.4476 -0.6622
15274TIP3   OH267236   3.977   2.826   3.599  0.1390  0.0451  0.2246
15274TIP3    H167237   3.938   2.777   3.527 -0.3356  1.7920 -0.7110
15274TIP3    H267238   3.926   2.798   3.676 -0.2317 -0.8029 -0.3103
15275TIP3   OH267239   4.907   4.680  15.362  0.4830  0.2553 -0.2934
15275TIP3    H167240   4.870   4.604  15.317 -0.4594  1.4819 -1.6161
15275TIP3    H267241   4.966   4.720  15.298  2.9644 -0.7780  1.2532
15276TIP3   OH267242   5.768   3.549  16.993 -0.2851  0.1040 -0.0324
15276TIP3    H167243   5.839   3.575  17.051 -1.8300 -0.9194  2.4082
15276TIP3    H267244   5.761   3.620  16.929  2.0570  0.8253  0.4839
15277TIP3   OH267245   0.782   4.608  12.144 -0.2256  0.1594 -0.2175
15277TIP3    H167246   0.796   4.514  12.158 -1.3238  0.2223  1.4689
15277TIP3    H267247   0.862   4.649  12.178 -0.1708 -0.1153 -0.0075
15278TIP3   OH267248   1.395   6.166  15.009 -0.2601 -0.3742 -0.1757
15278TIP3    H167249   1.338   6.232  14.969 -0.7255 -0.3591  0.4998
15278TIP3    H267250   1.433   6.119  14.935 -0.0016  0.5886 -0.6607
15279TIP3   OH267251   4.501   5.331   0.625 -0.0091 -0.1102 -0.5609
15279TIP3    H167252   4.475   5.261   0.685  0.1745  0.1834 -0.1375
15279TIP3    H267253   4.456   5.408   0.659  0.6987  0.2105 -0.3586
15280TIP3   OH267254   2.860   1.581   3.880  0.0661  0.2999 -0.4756
15280TIP3    H167255   2.821   1.625   3.956 -0.0455 -0.0297 -0.3422
15280TIP3    H267256   2.787   1.569   3.819  0.2583  1.0371 -0.8585
15281TIP3   OH267257   5.381   3.743  14.697 -0.4908  0.6593 -0.3493
15281TIP3    H167258   5.329   3.663  14.703 -2.1894  1.8127  0.4717
15281TIP3    H267259   5.339   3.804  14.758  0.5377  2.3170 -1.2711
15282TIP3   OH267260   5.486   4.620  13.101  0.1409 -0.1476  0.0723
15282TIP3    H167261   5.576   4.603  13.076  0.5515  1.0914  0.6623
15282TIP3    H267262   5.487   4.617  13.197 -0.5189 -0.5079  0.0714
15283TIP3   OH267263   0.800   6.430   3.478 -0.4214  0.1789 -0.2629
15283TIP3    H167264   0.718   6.446   3.524 -0.7101 -0.8366 -0.4098
15283TIP3    H267265   0.808   6.335   3.475  0.6600  0.2656 -0.4355
15284TIP3   OH267266   2.294   1.268  14.846  0.5977 -0.2597  0.4379
15284TIP3    H167267   2.371   1.302  14.892  1.3402 -0.3038 -0.7706
15284TIP3    H267268   2.257   1.344  14.802  0.4501 -0.4173  0.2907
15285TIP3   OH267269   1.316   4.359  16.133 -0.2345  0.4437 -0.1579
15285TIP3    H167270   1.409   4.340  16.144 -0.1171  0.7262 -0.6936
15285TIP3    H267271   1.278   4.274  16.109  0.2545  0.8037 -2.2815
15286TIP3   OH267272   5.106   1.312   3.061  0.2462  0.3085  0.6366
15286TIP3    H167273   5.143   1.253   3.128 -1.9502  0.7318  2.2800
15286TIP3    H267274   5.014   1.285   3.054 -0.8361  3.6087  1.5305
15287TIP3   OH267275   2.124   2.522   5.293  0.2621  0.4568 -0.2848
15287TIP3    H167276   2.056   2.455   5.294  0.0886  0.6285  1.8181
15287TIP3    H267277   2.091   2.590   5.233  1.2257 -2.0683 -3.8282
15288TIP3   OH267278   5.307   6.028  15.279  0.0439  0.2056 -0.2109
15288TIP3    H167279   5.332   5.980  15.358  4.7061  0.9054 -1.0905
15288TIP3    H267280   5.273   6.112  15.312  0.2304 -0.2155  1.1031
15289TIP3   OH267281   0.811   2.055   0.146 -0.0260  0.5103 -0.2964
15289TIP3    H167282   0.893   2.098   0.121  0.0448  0.6118  0.1151
15289TIP3    H267283   0.823   1.964   0.118 -0.7648  1.0848 -2.5425
15290TIP3   OH267284   5.974   5.052  17.113  0.1235 -0.3289 -0.3292
15290TIP3    H167285   6.011   5.077  17.029  2.0310 -1.2906  0.1916
15290TIP3    H267286   5.938   4.964  17.098  1.3811 -0.9338  0.0905
15291TIP3   OH267287   6.183   4.121  16.273  0.1910  0.4613 -0.2733
15291TIP3    H167288   6.198   4.149  16.363  0.5236  2.5058 -0.9503
15291TIP3    H267289   6.206   4.197  16.220 -0.0396 -0.7120 -2.0900
15292TIP3   OH267290   5.271   3.497   5.259 -0.3055  0.4592  0.9459
15292TIP3    H167291   5.314   3.513   5.343  1.0848 -0.3319  0.4037
15292TIP3    H267292   5.343   3.484   5.197 -1.3412 -1.0358  0.0319
15293TIP3   OH267293   2.912   4.261  16.327 -0.1020 -0.1408  0.4844
15293TIP3    H167294   2.925   4.300  16.413  1.0701  0.7253 -0.0711
15293TIP3    H267295   2.820   4.278  16.306 -0.1051  0.5982  1.0842
15294TIP3   OH267296   2.353   1.042  14.717 -0.0886 -0.2554 -0.4907
15294TIP3    H167297   2.286   0.984  14.753 -1.0229  1.5158  0.7139
15294TIP3    H267298   2.332   1.128  14.753  2.2603  0.5243 -0.8957
15295TIP3   OH267299   5.804   6.330   1.635 -0.2604  0.3351 -0.2226
15295TIP3    H167300   5.744   6.255   1.632 -0.3490  0.3774  0.5471
15295TIP3    H267301   5.798   6.367   1.547  3.6718 -3.5283 -2.3270
15296TIP3   OH267302   0.220   3.395   2.990 -0.2722  0.1261  0.2203
15296TIP3    H167303   0.275   3.472   3.008 -0.9766  0.9266 -0.9649
15296TIP3    H267304   0.137   3.431   2.960 -1.0069 -1.1040  0.7346
15297TIP3   OH267305   0.191   3.069   0.569  0.1003  0.3769 -0.2386
15297TIP3    H167306   0.232   3.155   0.563  0.8764  0.0247 -0.0790
15297TIP3    H267307   0.236   3.027   0.643 -0.2960 -0.1501 -0.2978
15298TIP3   OH267308   4.220   4.879   0.892 -0.0026 -0.2587 -0.5184
15298TIP3    H167309   4.155   4.898   0.825  1.4561  0.9003 -1.6275
15298TIP3    H267310   4.173   4.892   0.975 -0.8827  1.7007 -1.2816
15299TIP3   OH267311   3.779   2.431  14.691 -0.3633  0.1417 -0.5500
15299TIP3    H167312   3.794   2.460  14.781 -2.1198  0.7795 -0.4384
15299TIP3    H267313   3.684   2.435  14.680 -0.1707  0.0533 -2.4306
15300TIP3   OH267314   5.292   6.184   3.330  0.0104  0.0937 -0.2740
15300TIP3    H167315   5.379   6.219   3.348 -0.7636  1.6388  0.4974
15300TIP3    H267316   5.297   6.093   3.360  1.1494  0.3568  0.3744
15301TIP3   OH267317   5.677   0.634   1.145  0.4984  0.0576  0.4515
15301TIP3    H167318   5.742   0.659   1.210  1.1435  1.5656 -0.7503
15301TIP3    H267319   5.628   0.714   1.127 -0.4786 -0.6292 -0.0382
15302TIP3   OH267320   5.934   2.651  14.408 -0.3709 -0.2679  0.2042
15302TIP3    H167321   6.008   2.666  14.468  0.2616 -0.0804 -0.6142
15302TIP3    H267322   5.889   2.735  14.405  1.3541  0.6312 -1.9261
15303TIP3   OH267323   6.034   4.042  12.875 -0.3340 -0.3485  0.4041
15303TIP3    H167324   6.068   3.957  12.845  1.3580  0.6993 -0.7557
15303TIP3    H267325   6.104   4.078  12.930 -0.8901  0.4583  0.5945
15304TIP3   OH267326   2.677   4.804   3.268  0.0495 -0.4115  0.3475
15304TIP3    H167327   2.604   4.770   3.321  0.3716  0.8304  1.6521
15304TIP3    H267328   2.637   4.872   3.214 -0.0057 -0.6391  0.1039
15305TIP3   OH267329   3.261   2.292  15.068 -0.6023  0.1366 -0.2743
15305TIP3    H167330   3.244   2.304  15.161  1.6018 -0.0736  0.1849
15305TIP3    H267331   3.304   2.374  15.040  0.5565 -0.5731 -0.6257
15306TIP3   OH267332   2.102   4.691  17.216 -0.0228  0.0056  0.0123
15306TIP3    H167333   2.172   4.756  17.219 -0.2261  0.3360 -1.7218
15306TIP3    H267334   2.088   4.676  17.123 -2.9645  0.7153  0.2803
15307TIP3   OH267335   2.791   6.637   2.914 -0.5236  0.2619 -0.1151
15307TIP3    H167336   2.716   6.615   2.970 -1.7422  1.0016 -1.4196
15307TIP3    H267337   2.785   6.576   2.840  1.2300 -0.8885  0.6694
15308TIP3   OH267338   6.660   3.851  11.543 -0.2813  0.1176  0.0967
15308TIP3    H167339   6.748   3.818  11.525  0.7966  1.3219  2.7862
15308TIP3    H267340   6.673   3.944  11.564 -2.4278  0.7490 -1.1633
15309TIP3   OH267341   4.018   1.537   2.612 -0.4467 -0.2342 -0.2778
15309TIP3    H167342   3.998   1.445   2.630 -1.3237  0.3519  1.9239
15309TIP3    H267343   4.112   1.544   2.628 -0.7507 -0.3146  1.6758
15310TIP3   OH267344   1.771   2.689  15.042 -0.2175  0.9439 -0.1994
15310TIP3    H167345   1.764   2.768  14.987  0.8592 -0.3574 -2.2712
15310TIP3    H267346   1.786   2.618  14.980 -1.3307 -0.9436  1.6327
15311TIP3   OH267347   1.673   5.844  15.559 -0.4807 -0.3619  0.4577
15311TIP3    H167348   1.591   5.875  15.598  0.0003  0.5977  0.7183
15311TIP3    H267349   1.735   5.844  15.632 -0.1351 -0.6682  0.1638
15312TIP3   OH267350   0.457   0.748  10.881  0.4616  0.0360 -0.0108
15312TIP3    H167351   0.549   0.732  10.902  0.3705  1.0385  1.2087
15312TIP3    H267352   0.418   0.661  10.876  1.8478 -0.5058 -2.3677
15313TIP3   OH267353   4.202   0.975  12.107  0.0083  0.0129 -0.8239
15313TIP3    H167354   4.209   1.001  12.015  0.6739  0.7425 -0.5788
15313TIP3    H267355   4.110   0.986  12.128 -0.3813 -1.3567 -1.7454
15314TIP3   OH267356   1.455   0.299  16.189 -0.2293 -0.3104  0.0005
15314TIP3    H167357   1.510   0.297  16.111  1.8290  0.3045  1.3837
15314TIP3    H267358   1.465   0.388  16.223 -1.6253 -0.3727  0.5949
15315TIP3   OH267359   4.389   5.268   4.605 -0.1770 -0.2053 -0.1272
15315TIP3    H167360   4.478   5.255   4.572  0.2341 -1.2686  1.3454
15315TIP3    H267361   4.385   5.214   4.684 -1.6257  1.0747  0.6871
15316TIP3   OH267362   5.112   4.651   2.731  0.3355 -0.4892 -0.0907
15316TIP3    H167363   5.111   4.564   2.772  0.8192  0.5343  2.1723
15316TIP3    H267364   5.180   4.699   2.778 -0.6384  1.4627 -0.6066
15317TIP3   OH267365   3.441   1.102  11.696  0.3506  0.1414 -0.2540
15317TIP3    H167366   3.478   1.182  11.734  2.4066 -0.2416 -1.3422
15317TIP3    H267367   3.442   1.118  11.602 -0.0205 -0.8489 -0.4298
15318TIP3   OH267368   5.143   4.578   3.019  0.4607  0.5410  0.3319
15318TIP3    H167369   5.140   4.487   2.991 -0.2670  1.2306 -1.9474
15318TIP3    H267370   5.067   4.588   3.076 -0.6173  0.2021 -1.0157
15319TIP3   OH267371   5.473   4.448  12.771  0.1876  0.9402 -0.0614
15319TIP3    H167372   5.524   4.370  12.796 -1.2283  0.3070  0.9189
15319TIP3    H267373   5.518   4.482  12.693  0.5362 -1.1516 -0.8133
15320TIP3   OH267374   4.292   6.037  16.877  0.0369  0.4379 -0.0431
15320TIP3    H167375   4.262   6.027  16.786 -0.0469  0.3116 -0.0006
15320TIP3    H267376   4.336   5.954  16.897 -1.5063 -0.2505  0.6241
15321TIP3   OH267377   6.368   2.194  11.511 -0.5331  0.1619  0.3727
15321TIP3    H167378   6.417   2.276  11.518 -3.0123  1.6967  0.4118
15321TIP3    H267379   6.316   2.204  11.431 -0.3737 -1.6517  0.0267
15322TIP3   OH267380   4.123   2.354   2.939  0.3034 -0.2004  0.1710
15322TIP3    H167381   4.152   2.327   3.026  0.5855 -0.8830 -0.1290
15322TIP3    H267382   4.162   2.440   2.926  0.7845 -0.3691  0.4645
15323TIP3   OH267383   6.146   0.380  13.367  0.0386  0.2465  0.3157
15323TIP3    H167384   6.066   0.339  13.398 -1.0131  1.2076 -1.0306
15323TIP3    H267385   6.191   0.312  13.317 -0.4274 -0.0168  0.2552
15324TIP3   OH267386   6.711   0.421   0.872  0.1752 -0.3748  0.6840
15324TIP3    H167387   6.658   0.423   0.792 -1.5407 -0.2771  1.8002
15324TIP3    H267388   6.788   0.370   0.848 -0.8657 -1.3463 -0.7054
15325TIP3   OH267389   1.841   4.149   0.272  0.0591  0.5746 -0.5076
15325TIP3    H167390   1.802   4.061   0.275  2.3635 -0.4929 -1.0331
15325TIP3    H267391   1.802   4.189   0.194 -1.3748  0.2319  0.0040
15326TIP3   OH267392   1.024   5.877   4.153  0.0151 -0.2317 -0.2028
15326TIP3    H167393   1.109   5.876   4.197  0.7371 -2.9675 -1.5250
15326TIP3    H267394   0.962   5.855   4.223  0.6856 -0.5557  0.3060
15327TIP3   OH267395   2.667   1.491   3.683 -0.4342 -0.3852  0.4841
15327TIP3    H167396   2.638   1.407   3.646 -2.1497  0.8087 -0.9817
15327TIP3    H267397   2.594   1.550   3.667  1.1867  1.6785  0.5099
15328TIP3   OH267398   2.284   1.891  16.676  0.7442  0.2607  0.6438
15328TIP3    H167399   2.360   1.848  16.637  0.1496 -1.2056  1.0894
15328TIP3    H267400   2.278   1.975  16.630 -0.0575 -1.4980 -2.6277
15329TIP3   OH267401   5.478   0.063   0.822 -0.4902 -0.3297  0.0392
15329TIP3    H167402   5.388   0.069   0.789 -0.7171 -1.0294  0.5253
15329TIP3    H267403   5.476   0.113   0.904  0.4098  2.5846 -1.6745
15330TIP3   OH267404   3.044   6.556   1.191 -0.2541  0.4404  0.4786
15330TIP3    H167405   3.058   6.508   1.273 -0.2102  0.7374  0.6496
15330TIP3    H267406   2.978   6.506   1.144 -0.2806  0.2680  0.7011
15331TIP3   OH267407   1.403   0.235  13.844  0.2516 -0.2234 -0.1415
15331TIP3    H167408   1.383   0.320  13.883  0.5293 -1.2751  2.3901
15331TIP3    H267409   1.490   0.212  13.877  0.1878 -1.4862 -0.7861
15332TIP3   OH267410   3.630   2.573   1.299 -0.5875  0.4444 -0.1848
15332TIP3    H167411   3.581   2.655   1.309 -1.5247  0.0030 -1.1120
15332TIP3    H267412   3.586   2.511   1.358  0.9052  0.9313  1.4924
15333TIP3   OH267413   2.034   3.533   3.282 -0.2776  0.3589 -0.5002
15333TIP3    H167414   1.950   3.578   3.279 -0.3391  0.2717 -0.1149
15333TIP3    H267415   2.012   3.440   3.281 -0.1398  0.3291 -1.6143
15334TIP3   OH267416   0.182   5.167   4.456  0.4866 -0.0097 -0.1043
15334TIP3    H167417   0.198   5.216   4.536  5.0533  0.6734 -1.2682
15334TIP3    H267418   0.152   5.232   4.393  0.9605  0.2726 -0.0454
15335TIP3   OH267419   5.997   3.766  11.265  0.3959 -0.5734  0.0854
15335TIP3    H167420   5.997   3.814  11.182 -1.3215  1.1717  1.0599
15335TIP3    H267421   6.077   3.792  11.308 -0.3576  1.1803  0.4532
15336TIP3   OH267422   2.769   5.302  16.790 -0.7097  0.1887 -0.1128
15336TIP3    H167423   2.781   5.222  16.840 -0.4608 -0.1489 -0.7032
15336TIP3    H267424   2.858   5.332  16.770 -0.7852  1.2443  1.0862
15337TIP3   OH267425   2.343   3.367   0.256 -0.0621 -0.1050 -0.1582
15337TIP3    H167426   2.366   3.376   0.164  1.4640 -1.6601  0.0436
15337TIP3    H267427   2.277   3.298   0.258 -0.4351  0.2500 -0.1272
15338TIP3   OH267428   1.746   3.628   4.592 -0.5289  0.2209 -0.0924
15338TIP3    H167429   1.812   3.558   4.589  0.2530  0.9366  0.1549
15338TIP3    H267430   1.682   3.604   4.524 -0.5234 -0.9797  0.3196
15339TIP3   OH267431   4.270   2.992   3.819  0.1949 -0.1709 -0.1609
15339TIP3    H167432   4.338   3.050   3.787  0.2777 -1.0407 -1.5777
15339TIP3    H267433   4.189   3.025   3.781  0.1299 -0.5029 -0.3120
15340TIP3   OH267434   5.693   0.010   2.124  0.0864 -0.3077 -0.1040
15340TIP3    H167435   5.608  -0.027   2.147  0.8439 -0.9763  1.6879
15340TIP3    H267436   5.696   0.006   2.028 -1.6307 -0.8389 -0.1540
15341TIP3   OH267437   3.203   5.551   4.913  0.1358 -0.5859 -0.3861
15341TIP3    H167438   3.285   5.584   4.878 -0.5626  1.2241 -0.3523
15341TIP3    H267439   3.142   5.624   4.906 -1.8186 -2.2609 -1.5440
15342TIP3   OH267440   2.589   6.369   0.249 -0.7212  0.3655 -0.5872
15342TIP3    H167441   2.567   6.427   0.322  2.1333  1.7433 -0.7725
15342TIP3    H267442   2.533   6.399   0.177  0.6815  2.9229 -0.6599
15343TIP3   OH267443   5.796   0.946  11.315  0.1793  0.6639  0.1625
15343TIP3    H167444   5.803   0.868  11.260  0.9749  1.4105 -0.8081
15343TIP3    H267445   5.818   1.018  11.257  3.4390  1.2528  2.0580
15344TIP3   OH267446   3.193   4.735  16.438  0.1101  0.2076  0.1909
15344TIP3    H167447   3.113   4.700  16.399  1.1033 -1.4446 -0.4130
15344TIP3    H267448   3.262   4.716  16.374  1.3518 -0.3734  1.6686
15345TIP3   OH267449   4.289   1.498  16.738  0.2368  0.2998  0.6469
15345TIP3    H167450   4.247   1.569  16.690 -1.2479 -0.9141  0.1134
15345TIP3    H267451   4.351   1.542  16.797 -0.1775  1.9775 -0.1438
15346TIP3   OH267452   5.578   4.339  15.156  0.2571  0.4011  0.7939
15346TIP3    H167453   5.580   4.343  15.251 -0.3464 -0.4183  0.8445
15346TIP3    H267454   5.488   4.316  15.135  0.8540 -1.3734  0.1012
15347TIP3   OH267455   1.965   6.378   5.819 -0.5430 -0.0611 -0.0266
15347TIP3    H167456   2.034   6.341   5.875  1.5295  0.2528 -2.2863
15347TIP3    H267457   1.918   6.438   5.877  0.8585 -0.5327  1.6687
15348TIP3   OH267458   0.072   0.726  14.828 -0.7482  1.2853 -0.7346
15348TIP3    H167459   0.026   0.801  14.865 -0.9427  1.1142 -0.6238
15348TIP3    H267460   0.003   0.660  14.814 -0.4821  0.8900 -0.2176
15349TIP3   OH267461   1.835   5.118   1.935 -1.0642 -0.2437  0.1981
15349TIP3    H167462   1.859   5.121   1.842 -0.6981  2.0841  0.3458
15349TIP3    H267463   1.762   5.178   1.943 -0.6318  0.1218  1.5429
15350TIP3   OH267464   0.572   2.164   4.209  0.0258  0.4386  0.1865
15350TIP3    H167465   0.597   2.141   4.299 -0.6696 -1.1870 -0.0250
15350TIP3    H267466   0.625   2.241   4.189 -1.9638  2.6329  3.0460
15351TIP3   OH267467   4.655   4.028   2.028 -0.2612 -0.2829 -0.2435
15351TIP3    H167468   4.743   4.006   1.996  0.1097  0.8194 -0.0026
15351TIP3    H267469   4.630   3.954   2.083  0.0082 -1.1709 -1.3008
15352TIP3   OH267470   1.263   4.978   4.211 -0.8144  0.5821  0.3014
15352TIP3    H167471   1.292   5.063   4.180  3.1588 -0.1199  1.7988
15352TIP3    H267472   1.290   4.974   4.303 -1.5279 -2.0102  0.4642
15353TIP3   OH267473   3.902   5.422   6.719  0.1597  0.4029 -0.3402
15353TIP3    H167474   3.864   5.504   6.686  0.1154  0.7108  0.4348
15353TIP3    H267475   3.830   5.380   6.765  0.6856  0.8916  0.9647
15354TIP3   OH267476   2.823   1.444   2.268  0.7496 -0.5793 -0.3074
15354TIP3    H167477   2.871   1.375   2.313  0.9560  0.6295  1.3587
15354TIP3    H267478   2.847   1.524   2.314 -1.1455  0.3333 -0.8582
15355TIP3   OH267479   5.348   5.053   0.618 -0.0875 -0.1075 -0.7255
15355TIP3    H167480   5.358   5.007   0.702 -0.0467  0.7327 -0.2678
15355TIP3    H267481   5.330   4.983   0.555  0.2232 -0.7840 -0.0785
15356TIP3   OH267482   0.341   4.352   1.800 -0.5074 -0.5581  0.9109
15356TIP3    H167483   0.288   4.421   1.840  1.6095  1.6031  0.1135
15356TIP3    H267484   0.302   4.338   1.714 -1.6823 -1.2511  1.5437
15357TIP3   OH267485   0.665   2.996  14.327 -0.3898 -0.1075 -0.0476
15357TIP3    H167486   0.662   3.066  14.262 -0.5828  0.2099  0.2951
15357TIP3    H267487   0.646   3.041  14.410  0.0317 -0.4779  0.2479
15358TIP3   OH267488   6.136   6.697   1.468 -0.4927 -0.0489 -0.0547
15358TIP3    H167489   6.144   6.792   1.468 -0.2483 -0.0650  0.3285
15358TIP3    H267490   6.218   6.666   1.507 -0.9143 -0.3817  0.5801
15359TIP3   OH267491   6.334   5.735  14.186 -0.8163  0.0880 -0.1089
15359TIP3    H167492   6.339   5.799  14.257 -1.1528 -0.9189  0.8436
15359TIP3    H267493   6.271   5.671  14.216 -0.0504 -1.0133 -0.7933
15360TIP3   OH267494   3.526   1.717  11.035  0.0466 -0.3492 -0.6562
15360TIP3    H167495   3.518   1.750  10.945 -0.8853  0.0848 -0.4144
15360TIP3    H267496   3.449   1.662  11.047  0.0739 -0.2591 -0.0638
15361TIP3   OH267497   4.529   2.116   3.974  0.2608  0.0651  0.1007
15361TIP3    H167498   4.610   2.069   3.952 -0.3284 -0.7656 -0.3171
15361TIP3    H267499   4.539   2.201   3.931 -0.0071 -0.8111 -1.7803
15362TIP3   OH267500   4.938   5.242  14.009  0.7248 -0.1636 -0.0196
15362TIP3    H167501   4.882   5.264  14.084  0.2735 -0.2047 -0.3443
15362TIP3    H267502   4.965   5.327  13.975  2.1459 -0.1524  1.0908
15363TIP3   OH267503   4.917   1.628  14.882 -0.1606 -0.2547 -0.1532
15363TIP3    H167504   4.989   1.642  14.943 -1.4981  0.0033  1.4142
15363TIP3    H267505   4.862   1.561  14.925 -1.4972  0.4553 -0.7253
15364TIP3   OH267506   5.711   0.202   4.231  0.1718  0.4424  0.0727
15364TIP3    H167507   5.728   0.296   4.241  3.0907 -0.1248  0.8443
15364TIP3    H267508   5.778   0.159   4.284 -2.1501 -2.0917  1.0745
15365TIP3   OH267509   3.411   6.652   5.392  0.2257  0.2321 -0.0562
15365TIP3    H167510   3.384   6.570   5.352 -3.3990 -0.0686  2.6987
15365TIP3    H267511   3.387   6.719   5.328  1.3175 -0.6770 -1.4416
15366TIP3   OH267512   1.323   4.449   3.585 -0.0858  0.0567 -0.0292
15366TIP3    H167513   1.342   4.493   3.502 -1.5287  0.7252 -0.0274
15366TIP3    H267514   1.262   4.507   3.630 -0.6808 -1.1199  0.7301
15367TIP3   OH267515   4.355   5.115  12.752 -0.4907 -0.2807  0.0933
15367TIP3    H167516   4.424   5.048  12.755 -0.0862  0.1435  0.6034
15367TIP3    H267517   4.276   5.069  12.781  0.2191 -0.0525  2.5547
15368TIP3   OH267518   4.073   1.943  12.151  0.0496  0.0239  0.4693
15368TIP3    H167519   4.149   1.985  12.193 -0.2098  1.8672 -0.8819
15368TIP3    H267520   3.997   1.979  12.197 -0.1256  0.1036  0.1148
15369TIP3   OH267521   4.061   1.777  14.697  0.2992  0.2261  0.3865
15369TIP3    H167522   4.133   1.796  14.757  0.9472 -2.8097  0.6666
15369TIP3    H267523   3.986   1.759  14.754 -0.1720  1.4158  0.1506
15370TIP3   OH267524   1.190   1.899  16.988  0.3883  0.4207  0.8604
15370TIP3    H167525   1.227   1.968  16.933  1.3157 -0.2250  0.6740
15370TIP3    H267526   1.163   1.831  16.927  0.7303  0.0265  1.1430
15371TIP3   OH267527   1.452   5.790   2.428 -0.4287 -0.4535  0.1104
15371TIP3    H167528   1.384   5.735   2.468 -0.0296 -1.2791 -0.3232
15371TIP3    H267529   1.407   5.839   2.360 -0.8780  0.0778  0.7913
15372TIP3   OH267530   0.932   2.966   3.210 -0.1340 -0.1266  0.2372
15372TIP3    H167531   0.882   2.900   3.258 -0.1572  0.1898  0.6548
15372TIP3    H267532   0.899   3.049   3.243  0.5633  0.0869  0.4049
15373TIP3   OH267533   2.621   1.747   4.259  0.5213  0.0441 -0.4631
15373TIP3    H167534   2.605   1.794   4.177 -0.6331  0.4218 -0.0384
15373TIP3    H267535   2.676   1.807   4.310 -1.8749  1.5126  0.5334
15374TIP3   OH267536   6.247   0.399   4.456 -0.0409 -0.4941 -0.8676
15374TIP3    H167537   6.182   0.353   4.403 -1.1738 -0.3896  0.4160
15374TIP3    H267538   6.225   0.491   4.446  0.5046 -0.3952 -1.1858
15375TIP3   OH267539   4.670   1.968  15.862 -0.0916  0.1796  0.4842
15375TIP3    H167540   4.712   2.040  15.814  0.7525 -1.4215 -1.2845
15375TIP3    H267541   4.576   1.986  15.856  0.1025  1.0235 -0.1561
15376TIP3   OH267542   1.825   1.769   5.777 -0.2359  0.4656  0.2926
15376TIP3    H167543   1.830   1.856   5.816 -0.2146 -0.4425  2.3865
15376TIP3    H267544   1.916   1.741   5.770 -0.3176 -0.0428  1.1808
15377TIP3   OH267545   4.181   1.012  16.137  0.3982 -0.1005  0.1212
15377TIP3    H167546   4.180   0.959  16.057 -0.8789 -2.5227  1.6784
15377TIP3    H267547   4.256   0.978  16.187 -0.5673 -0.6046  1.2389
15378TIP3   OH267548   4.984   0.489   4.613  0.2476 -0.0493 -0.1467
15378TIP3    H167549   4.913   0.427   4.629 -0.5731  1.0755  0.6383
15378TIP3    H267550   4.970   0.559   4.677  0.8773  1.1736 -1.3178
15379TIP3   OH267551   3.340   2.709  12.057 -0.2933 -0.6123  0.0101
15379TIP3    H167552   3.328   2.792  12.011 -0.3578 -1.1765 -1.0324
15379TIP3    H267553   3.261   2.698  12.109  0.7133  1.0577  1.9259
15380TIP3   OH267554   1.370   2.260   5.509 -0.3114  0.1491 -0.4359
15380TIP3    H167555   1.401   2.174   5.480  2.3837  1.1540 -0.6653
15380TIP3    H267556   1.357   2.310   5.429  1.7154  1.1216 -0.1860
15381TIP3   OH267557   6.397   4.026  14.448  0.3095  0.5404 -0.7522
15381TIP3    H167558   6.393   4.121  14.460  0.1799  0.6107 -1.3364
15381TIP3    H267559   6.318   3.993  14.491  1.4273  0.4854  1.3548
15382TIP3   OH267560   5.234   5.932  12.943  0.0542  0.5755  0.0267
15382TIP3    H167561   5.298   5.964  12.879  0.8986 -0.2436  0.4667
15382TIP3    H267562   5.161   5.994  12.936  1.2849  2.0714  0.1982
15383TIP3   OH267563   6.421   5.268  16.653  0.5455  0.0748 -0.5186
15383TIP3    H167564   6.513   5.280  16.627  0.7629 -0.6193 -0.0992
15383TIP3    H267565   6.375   5.341  16.612  1.0998 -0.2297 -1.7107
15384TIP3   OH267566   1.394   2.688   1.454 -0.0398 -0.0040 -0.2072
15384TIP3    H167567   1.307   2.714   1.482  0.0797  0.6350 -0.3998
15384TIP3    H267568   1.379   2.631   1.378 -0.2776  0.4230 -0.4826
15385TIP3   OH267569   6.733   4.940  12.783 -0.2940 -0.5926  0.6284
15385TIP3    H167570   6.753   4.860  12.734  1.4868 -0.1973  0.6863
15385TIP3    H267571   6.817   4.967  12.819 -0.6921  1.9036 -0.2667
15386TIP3   OH267572   1.514   0.091   5.653 -0.3423 -0.2642 -0.1579
15386TIP3    H167573   1.513   0.091   5.557  1.8320 -1.4321 -0.1993
15386TIP3    H267574   1.533   0.182   5.677  0.3247 -0.2156 -0.8614
15387TIP3   OH267575   4.899   3.626  12.061  0.1886 -0.3135  0.0987
15387TIP3    H167576   4.882   3.552  12.119  1.2853 -0.8318 -0.2254
15387TIP3    H267577   4.941   3.587  11.984  0.3688  0.5924 -0.2722
15388TIP3   OH267578   3.964   1.570  15.168 -0.2641 -0.6877  0.4559
15388TIP3    H167579   4.058   1.557  15.160 -0.3830 -0.9111 -0.7268
15388TIP3    H267580   3.949   1.584  15.262  1.2982  2.1773  0.3198
15389TIP3   OH267581   4.363   2.178   1.108  0.3090 -0.1605 -0.2558
15389TIP3    H167582   4.433   2.184   1.173  0.3194  0.1202 -0.2947
15389TIP3    H267583   4.389   2.237   1.038 -1.1186  1.7723  0.7938
15390TIP3   OH267584   1.701   2.635   5.353  0.4967 -0.0759 -0.4680
15390TIP3    H167585   1.664   2.547   5.366  0.3219  0.1589  0.7435
15390TIP3    H267586   1.734   2.659   5.440  0.9095  0.8886 -0.8941
15391TIP3   OH267587   3.375   6.392  12.680 -0.0138 -0.1446 -0.7294
15391TIP3    H167588   3.345   6.452  12.748  0.9408  0.4261 -0.8075
15391TIP3    H267589   3.295   6.362  12.638 -0.5114  0.8247 -0.4795
15392TIP3   OH267590   1.453   6.532  17.121 -0.7193 -0.2413  0.3876
15392TIP3    H167591   1.375   6.490  17.087 -0.5618  0.2035 -0.5369
15392TIP3    H267592   1.432   6.553  17.212 -2.0051  0.7102 -0.1254
15393TIP3   OH267593   6.356   6.010  15.379  0.6631  0.4779 -0.0812
15393TIP3    H167594   6.425   5.967  15.430  0.7138  0.8342  0.1516
15393TIP3    H267595   6.399   6.037  15.298  0.5866 -0.0751 -0.3138
15394TIP3   OH267596   2.996   0.834  12.224 -0.4937  0.4008 -0.2663
15394TIP3    H167597   3.052   0.827  12.302 -1.9682 -0.3314  0.7550
15394TIP3    H267598   3.053   0.871  12.157  1.4754 -1.1050  0.5052
15395TIP3   OH267599   5.308   1.884  16.278  0.1614 -0.6325  0.1557
15395TIP3    H167600   5.373   1.827  16.319  1.3770  2.8686  3.4424
15395TIP3    H267601   5.228   1.870  16.327 -0.2963 -1.4599 -0.8082
15396TIP3   OH267602   1.036   6.347   1.705  0.2869 -0.4283  0.3785
15396TIP3    H167603   0.968   6.402   1.667 -0.9411 -1.4778  1.0035
15396TIP3    H267604   1.114   6.402   1.705  0.1158 -0.1178 -2.8391
15397TIP3   OH267605   5.940   5.062   0.933 -1.1593 -0.0580 -0.0168
15397TIP3    H167606   5.977   4.989   0.884  0.5783  1.6707 -1.3698
15397TIP3    H267607   5.860   5.086   0.885 -0.9905 -0.1943 -0.3632
15398TIP3   OH267608   1.598   1.332  15.558 -0.1019 -0.2116 -0.3353
15398TIP3    H167609   1.506   1.315  15.577 -0.0141  1.6209  1.8224
15398TIP3    H267610   1.644   1.253  15.588 -0.7145 -0.1347  0.8211
15399TIP3   OH267611   4.346   4.053  13.582  0.1381  0.3919 -0.3936
15399TIP3    H167612   4.404   4.104  13.526  1.4713 -0.6661  0.0033
15399TIP3    H267613   4.377   3.963  13.574  0.1596  0.1822  1.7917
15400TIP3   OH267614   5.424   0.960  15.521 -0.1898  0.3262 -0.2268
15400TIP3    H167615   5.378   0.876  15.519 -1.4585  1.0093 -0.5410
15400TIP3    H267616   5.516   0.937  15.524 -0.5392 -1.0893  0.3362
15401TIP3   OH267617   4.502   4.608   2.879 -0.3195  0.4437  0.6850
15401TIP3    H167618   4.516   4.514   2.890 -1.4899  0.2449  0.5820
15401TIP3    H267619   4.566   4.649   2.937  0.1259 -0.4166  0.8131
15402TIP3   OH267620   1.707   1.523  14.369 -0.4142  0.6146 -0.4055
15402TIP3    H167621   1.664   1.512  14.454 -0.4478 -0.2313 -0.5229
15402TIP3    H267622   1.787   1.470  14.376 -0.1456  0.9751 -0.7147
15403TIP3   OH267623   4.753   1.466  16.134  0.2708  0.0762 -0.3937
15403TIP3    H167624   4.721   1.412  16.206 -0.4493 -1.1746 -1.6437
15403TIP3    H267625   4.848   1.464  16.143  0.2382 -1.2540 -0.3395
15404TIP3   OH267626   2.938   6.204  13.676 -0.1614  1.0358  0.1164
15404TIP3    H167627   2.921   6.125  13.728 -0.2657  1.5167  0.8228
15404TIP3    H267628   2.946   6.173  13.586 -1.8017  0.4133  0.1727
15405TIP3   OH267629   2.622   3.000  14.377 -0.4589  0.1145  0.2616
15405TIP3    H167630   2.563   3.075  14.375 -0.3252  0.2011 -0.8803
15405TIP3    H267631   2.616   2.966  14.466 -1.6329  0.5913  0.3615
15406TIP3   OH267632   4.585   6.548   1.247 -0.3995  0.0119  0.0282
15406TIP3    H167633   4.586   6.512   1.159  2.1619 -1.9409  0.8062
15406TIP3    H267634   4.657   6.612   1.248  0.3293 -0.8110  1.0178
15407TIP3   OH267635   0.829   3.078  17.217 -0.1301 -0.2008 -0.3994
15407TIP3    H167636   0.743   3.102  17.250 -0.2785 -1.6354  0.2882
15407TIP3    H267637   0.816   3.061  17.124 -0.5793 -0.3945 -0.2985
15408TIP3   OH267638   2.550   2.890  13.973 -0.7635 -0.2620  0.3713
15408TIP3    H167639   2.534   2.974  13.929 -1.6880 -1.4046 -1.5147
15408TIP3    H267640   2.640   2.868  13.950 -0.0694  0.8116  1.9386
15409TIP3   OH267641   3.657   6.490   6.327  0.6255 -0.0276 -0.0942
15409TIP3    H167642   3.709   6.432   6.272 -1.5358 -1.5782 -0.5803
15409TIP3    H267643   3.669   6.456   6.416 -1.2437 -1.7982 -0.4623
15410TIP3   OH267644   1.193   3.434  12.520 -0.3964  0.0318  0.2956
15410TIP3    H167645   1.257   3.385  12.468 -0.9498 -0.5055  0.1245
15410TIP3    H267646   1.203   3.400  12.609 -0.5711 -0.1764  0.2340
15411TIP3   OH267647   6.159   5.816   5.323 -0.2918  0.2652 -0.2636
15411TIP3    H167648   6.156   5.772   5.238  0.4124  0.0008 -0.1540
15411TIP3    H267649   6.176   5.908   5.301 -0.9754  0.3453 -0.4527
15412TIP3   OH267650   3.877   3.415   0.008 -0.4366 -0.1035 -0.3576
15412TIP3    H167651   3.896   3.390   0.098  0.7786 -0.0533 -0.5860
15412TIP3    H267652   3.917   3.346  -0.045  0.7717  1.0064 -0.9130
15413TIP3   OH267653   6.744   0.935  15.007  0.2023  0.1807  0.1988
15413TIP3    H167654   6.687   0.994  14.959 -0.6150  0.3897  1.3984
15413TIP3    H267655   6.758   0.978  15.091  1.8647 -0.0244  0.0323
15414TIP3   OH267656   2.356   0.055  13.555 -0.7957  0.4252 -0.1369
15414TIP3    H167657   2.371   0.148  13.537  0.5705  0.1385 -0.4947
15414TIP3    H267658   2.420   0.010  13.501 -0.5165 -0.6804  1.1183
15415TIP3   OH267659   1.749   2.742   1.856 -0.0509  0.6413  0.1602
15415TIP3    H167660   1.726   2.830   1.887 -0.1889 -0.4201  3.2606
15415TIP3    H267661   1.757   2.751   1.761  1.9038  4.4324  0.5932
15416TIP3   OH267662   4.920   0.239   0.537 -0.2116 -0.2676  0.0508
15416TIP3    H167663   4.962   0.154   0.523  0.1814  0.2008 -1.7214
15416TIP3    H267664   4.842   0.219   0.589  1.4065 -1.3327  2.1459
15417TIP3   OH267665   3.281   1.790  12.748  0.4481 -0.2030 -0.4566
15417TIP3    H167666   3.359   1.742  12.724  0.6090 -0.6739  0.9676
15417TIP3    H267667   3.271   1.776  12.843 -0.7111  0.7736 -0.4074
15418TIP3   OH267668   4.745   5.862   3.126  0.1783 -0.4062  0.2365
15418TIP3    H167669   4.804   5.842   3.054  0.4683 -2.0198  0.8925
15418TIP3    H267670   4.659   5.874   3.085  0.0660 -2.6552 -0.2751
15419TIP3   OH267671   6.173   6.172   6.484  0.0566 -0.2822  0.7660
15419TIP3    H167672   6.197   6.263   6.469 -0.6727 -0.1717  0.2446
15419TIP3    H267673   6.112   6.151   6.413  0.2807 -1.1960  0.8348
15420TIP3   OH267674   1.348   3.082   1.974  0.6521  0.0700 -0.0722
15420TIP3    H167675   1.392   3.141   1.913  0.2271 -1.5096 -1.9409
15420TIP3    H267676   1.342   2.999   1.927 -2.2904 -0.3849  1.0130
15421TIP3   OH267677   4.843   4.641   2.769  0.2465  0.5051 -0.0225
15421TIP3    H167678   4.934   4.669   2.760  0.1746  0.8626  0.3514
15421TIP3    H267679   4.803   4.663   2.685  0.6367 -0.1518 -0.3805
15422TIP3   OH267680   1.424   1.438  12.826 -0.6150  0.2221 -0.3122
15422TIP3    H167681   1.512   1.406  12.840 -0.0967  1.2816 -1.0204
15422TIP3    H267682   1.368   1.361  12.831  0.3233 -0.4088  0.4039
15423TIP3   OH267683   3.155   5.262   6.024  0.4660 -0.2380  0.6584
15423TIP3    H167684   3.212   5.243   5.949 -0.1331 -0.0325  0.1423
15423TIP3    H267685   3.175   5.193   6.087  1.5911  0.0799  0.6643
15424TIP3   OH267686   3.002   3.164   4.343 -0.4876  0.3162 -0.1083
15424TIP3    H167687   2.945   3.121   4.279 -0.1433 -0.4034  0.0594
15424TIP3    H267688   3.043   3.092   4.391 -1.0966  0.8551  1.2389
15425TIP3   OH267689   6.508   1.384  11.769 -0.2290 -0.2714  0.6753
15425TIP3    H167690   6.503   1.443  11.845  0.6635  1.4417 -0.5479
15425TIP3    H267691   6.560   1.433  11.705 -1.8036 -1.2665 -1.4203
15426TIP3   OH267692   4.435   0.851  13.264  0.0161 -0.2634 -0.6277
15426TIP3    H167693   4.446   0.894  13.180 -0.1614  0.3525 -0.3352
15426TIP3    H267694   4.349   0.811  13.259 -0.5969  0.9940 -0.1928
15427TIP3   OH267695   1.560   4.977  16.780 -0.0843 -0.4146  0.4001
15427TIP3    H167696   1.507   5.027  16.842  0.1614  0.0913  0.2060
15427TIP3    H267697   1.500   4.911  16.745 -0.8347  0.7394 -0.5011
15428TIP3   OH267698   4.932   0.668  16.316 -0.1855  0.1541  0.2644
15428TIP3    H167699   4.932   0.678  16.221 -0.7527 -0.6531  0.1723
15428TIP3    H267700   4.923   0.757  16.350  2.3796  0.6868 -0.3808
15429TIP3   OH267701   4.182   1.512  12.861  0.4548  0.4822 -0.4074
15429TIP3    H167702   4.136   1.578  12.914 -0.5788 -0.7767  0.2694
15429TIP3    H267703   4.145   1.429  12.888  1.9834 -0.4240 -1.0462
15430TIP3   OH267704   6.074   4.497   3.015 -0.0237  0.2562  0.0309
15430TIP3    H167705   6.108   4.424   2.962 -0.3821  0.5412 -0.6018
15430TIP3    H267706   5.982   4.475   3.030 -0.0278  0.3777  0.1881
15431TIP3   OH267707   2.280   1.958  10.798 -0.3915  0.0842 -0.1656
15431TIP3    H167708   2.277   2.036  10.854 -0.8566  0.8350 -1.2182
15431TIP3    H267709   2.259   1.885  10.857  2.7624  0.3949  1.4419
15432TIP3   OH267710   1.097   2.381  11.994 -0.4663  0.0965  0.1796
15432TIP3    H167711   1.038   2.336  11.934 -0.6469 -0.4748  0.7686
15432TIP3    H267712   1.099   2.324  12.072 -3.0025  2.5742  2.1344
15433TIP3   OH267713   6.232   0.488  12.767  0.0488 -0.6413 -0.2887
15433TIP3    H167714   6.245   0.446  12.682 -1.1877 -0.2718 -0.6674
15433TIP3    H267715   6.234   0.416  12.830  1.0439 -0.9085 -0.6208
15434TIP3   OH267716   2.814   6.028  16.838  0.5626 -0.1869 -0.0680
15434TIP3    H167717   2.761   5.950  16.855 -0.8188  0.7467  0.0006
15434TIP3    H267718   2.775   6.096  16.893  1.3016  0.7443 -0.6801
15435TIP3   OH267719   5.746   0.032   4.715 -0.4949  0.1471 -0.0353
15435TIP3    H167720   5.753   0.087   4.636  2.5367  2.4649  1.7571
15435TIP3    H267721   5.703   0.088   4.779 -1.2203 -1.0720  0.5497
15436TIP3   OH267722   1.142   0.726  13.495  0.4426  0.7708 -0.5335
15436TIP3    H167723   1.101   0.707  13.410 -0.3592 -0.7632  0.1814
15436TIP3    H267724   1.070   0.722  13.558  1.7552 -2.8806  0.8604
15437TIP3   OH267725   2.554   4.715  15.188 -0.3589 -0.2297  0.6423
15437TIP3    H167726   2.473   4.766  15.193  0.3939  0.8297  2.2510
15437TIP3    H267727   2.525   4.627  15.164 -1.8139  0.5533 -0.5356
15438TIP3   OH267728   0.532   0.624   2.192 -0.2078 -0.0805 -0.0970
15438TIP3    H167729   0.506   0.587   2.276 -0.0597 -0.7077 -0.3290
15438TIP3    H267730   0.589   0.698   2.215  0.0919 -0.4475  0.3413
15439TIP3   OH267731   1.994   5.542   3.984  0.2723 -0.0776  0.2763
15439TIP3    H167732   1.974   5.629   4.018  0.3837  0.4398 -0.9400
15439TIP3    H267733   1.910   5.507   3.954 -0.0122 -1.0001  2.1253
15440TIP3   OH267734   5.862   4.847   4.878  0.1814 -0.0351  0.4419
15440TIP3    H167735   5.863   4.924   4.934 -2.4904  0.0692  0.4286
15440TIP3    H267736   5.905   4.779   4.929  1.8790  1.2447  0.7510
15441TIP3   OH267737   4.659   5.983   5.851 -0.1564  0.0010 -0.2105
15441TIP3    H167738   4.694   5.947   5.932 -1.6966 -1.7889 -0.3100
15441TIP3    H267739   4.586   6.039   5.880 -0.9632 -0.9587 -0.3859
15442TIP3   OH267740   4.876   2.611  12.022  0.3763  0.2860 -0.8778
15442TIP3    H167741   4.810   2.657  12.073  2.1027  0.5115  1.1758
15442TIP3    H267742   4.839   2.608  11.933 -1.1418  2.8278 -0.3662
15443TIP3   OH267743   4.174   4.950   3.196 -0.7271  0.3067 -0.0586
15443TIP3    H167744   4.242   4.894   3.156  0.1995  1.4678 -0.1223
15443TIP3    H267745   4.110   4.888   3.230  0.2815 -0.8107 -0.1485
15444TIP3   OH267746   2.195   1.277   4.507 -0.9556  0.0864  0.3689
15444TIP3    H167747   2.217   1.275   4.601 -0.5787  1.4807  0.3158
15444TIP3    H267748   2.257   1.339   4.469 -1.0635 -0.5266 -0.8289
15445TIP3   OH267749   3.128   0.256   0.380  0.4592 -0.0204  0.2569
15445TIP3    H167750   3.060   0.199   0.344 -0.3991  0.3808  1.2018
15445TIP3    H267751   3.091   0.289   0.462  0.2281  3.2581 -1.0686
15446TIP3   OH267752   1.066   1.372   0.685 -0.8064  0.8713  0.1154
15446TIP3    H167753   1.067   1.371   0.589 -0.2713 -1.2102  0.1226
15446TIP3    H267754   0.977   1.399   0.708 -0.9221  1.4312 -0.9527
15447TIP3   OH267755   6.087   3.241  16.799  0.6305  0.3216 -0.7486
15447TIP3    H167756   6.155   3.245  16.866  1.0478 -1.6994 -1.0191
15447TIP3    H267757   6.104   3.315  16.742  3.3384 -0.8086 -1.4633
15448TIP3   OH267758   4.337   1.284  12.051  0.4816 -0.0318  0.4706
15448TIP3    H167759   4.381   1.261  12.133  1.2238 -0.6206 -0.0824
15448TIP3    H267760   4.293   1.367  12.070 -0.1371 -0.6384  1.7383
15449TIP3   OH267761   0.132   1.758  16.195  0.0666 -0.3882  0.3186
15449TIP3    H167762   0.114   1.844  16.233  2.1582  0.4556 -0.5111
15449TIP3    H267763   0.168   1.778  16.108  2.5910 -2.0058  0.9628
15450TIP3   OH267764   4.367   3.072   2.529 -0.5857 -0.1893  0.5068
15450TIP3    H167765   4.434   3.005   2.515  1.4033  1.9377 -0.5568
15450TIP3    H267766   4.377   3.131   2.454 -1.7343  1.7354  1.8342
15451TIP3   OH267767   1.463   3.043   6.022 -0.0902 -0.1801 -0.0664
15451TIP3    H167768   1.462   3.087   6.107  0.1995 -1.8863  0.8446
15451TIP3    H267769   1.556   3.036   5.999 -0.1682  0.2875 -0.5233
15452TIP3   OH267770   2.148   1.476  12.505 -0.2995 -0.2903 -0.0554
15452TIP3    H167771   2.167   1.518  12.589  0.7937  0.7000 -0.8026
15452TIP3    H267772   2.112   1.546  12.450 -0.8542 -0.8980 -0.4797
15453TIP3   OH267773   2.132   4.901   2.611 -0.7062 -0.1995 -0.0055
15453TIP3    H167774   2.197   4.845   2.654  0.5746  2.2889  1.4282
15453TIP3    H267775   2.088   4.843   2.549  1.7785 -2.3531  0.1461
15454TIP3   OH267776   2.795   4.004  13.038  0.0172  0.3588 -0.7109
15454TIP3    H167777   2.786   4.064  12.964  2.9900 -1.5238 -2.7615
15454TIP3    H267778   2.878   4.029  13.079 -1.2202  0.8713  1.5729
15455TIP3   OH267779   4.868   3.034  15.706  0.3518 -0.7803 -0.6213
15455TIP3    H167780   4.921   2.955  15.716  0.9556 -0.1810  1.0543
15455TIP3    H267781   4.816   3.038  15.786  2.0034  1.7407  0.3977
15456TIP3   OH267782   2.811   0.305   6.435 -0.0552  0.3921 -0.5336
15456TIP3    H167783   2.765   0.257   6.505  0.7452  0.9955  0.4204
15456TIP3    H267784   2.768   0.390   6.433  0.4631  0.6651 -0.2034
15457TIP3   OH267785   2.087   5.140  12.919 -0.3287 -0.0390  0.4711
15457TIP3    H167786   2.159   5.140  12.982 -0.9179  2.6468  1.1728
15457TIP3    H267787   2.126   5.174  12.838 -0.6494  0.7311  0.6442
15458TIP3   OH267788   2.186   6.019  16.071 -0.0405  0.2732 -0.3565
15458TIP3    H167789   2.130   6.079  16.122 -0.9102 -1.0352  0.2485
15458TIP3    H267790   2.268   6.068  16.059 -0.8477  1.7222 -0.1703
15459TIP3   OH267791   2.907   2.797  16.153  0.1214 -0.3446  0.7197
15459TIP3    H167792   2.860   2.863  16.204  1.3014  0.4278  0.8227
15459TIP3    H267793   2.885   2.816  16.062 -1.4421 -1.3035  0.8734
15460TIP3   OH267794   5.585   2.533   0.470  0.1592 -0.1670  0.2591
15460TIP3    H167795   5.630   2.559   0.390 -0.2813  0.9064  0.3590
15460TIP3    H267796   5.506   2.489   0.439 -0.5531  1.2050  0.1013
15461TIP3   OH267797   1.475   4.088  10.786  0.1192  0.5283  0.0704
15461TIP3    H167798   1.424   4.132  10.854  2.0782  0.5715  1.5489
15461TIP3    H267799   1.480   4.151  10.715 -2.9262  0.0614 -0.6363
15462TIP3   OH267800   2.807   4.662   1.803 -0.6225 -0.2535 -0.1933
15462TIP3    H167801   2.851   4.747   1.792 -1.5160  0.1431 -0.7651
15462TIP3    H267802   2.836   4.631   1.889 -0.1054  0.5168 -0.0802
15463TIP3   OH267803   3.657   5.790  11.967 -0.1383 -0.1414  0.1194
15463TIP3    H167804   3.708   5.823  12.041  0.0500 -0.6960  0.2404
15463TIP3    H267805   3.566   5.800  11.995 -0.1018  0.8721 -0.1104
15464TIP3   OH267806   3.019   0.330  16.097  0.0719  0.1567  0.3572
15464TIP3    H167807   2.995   0.276  16.173  0.3622  0.8957  0.9810
15464TIP3    H267808   3.008   0.420  16.127  1.0944  0.4662 -0.1870
15465TIP3   OH267809   6.517   3.396  13.941  0.2947 -0.7201  0.5784
15465TIP3    H167810   6.598   3.348  13.926  0.3430 -0.5695  0.3537
15465TIP3    H267811   6.452   3.352  13.887 -0.1764 -1.9301  2.1032
15466TIP3   OH267812   5.154   0.285  11.437 -0.3422 -0.1349  0.7190
15466TIP3    H167813   5.202   0.234  11.372  3.0704 -0.1066  3.1255
15466TIP3    H267814   5.082   0.324  11.387  1.2447 -1.3567 -2.7048
15467TIP3   OH267815   0.001   4.873   5.396 -0.3436 -0.2482 -0.6957
15467TIP3    H167816   0.045   4.790   5.415 -0.2990  0.2683  1.5881
15467TIP3    H267817   0.071   4.929   5.361 -0.3798 -1.1549 -2.2723
15468TIP3   OH267818   6.169   0.203   4.237  0.4186 -0.2417  0.1126
15468TIP3    H167819   6.091   0.154   4.264  1.4797 -1.4013  1.1671
15468TIP3    H267820   6.241   0.156   4.279  1.5704  1.5513  0.1530
15469TIP3   OH267821   5.914   2.424  16.167  0.8511 -0.1066 -0.3116
15469TIP3    H167822   5.897   2.511  16.133  0.5626  1.0857  2.7513
15469TIP3    H267823   6.008   2.423  16.184  0.4845  0.4800  1.8854
15470TIP3   OH267824   3.472   0.255  14.834  0.3410 -0.2272 -0.2396
15470TIP3    H167825   3.494   0.269  14.926 -1.0553 -0.4218  0.1406
15470TIP3    H267826   3.433   0.338  14.806  0.0391 -0.4294 -0.4270
15471TIP3   OH267827   3.678   2.637  10.426  0.3388 -0.1418 -0.1917
15471TIP3    H167828   3.659   2.582  10.503  2.0311 -0.1906  0.2105
15471TIP3    H267829   3.592   2.669  10.398 -0.1260  1.9941  3.2859
15472TIP3   OH267830   5.097   1.523   2.061  0.4051 -0.4975  1.0402
15472TIP3    H167831   5.005   1.544   2.046  0.3282 -0.7175  1.2118
15472TIP3    H267832   5.096   1.454   2.127  0.6925 -0.5239  1.0183
15473TIP3   OH267833   3.915   2.147   1.630 -0.0149 -0.0897  0.2203
15473TIP3    H167834   3.909   2.153   1.725  0.9068 -1.9384  0.4185
15473TIP3    H267835   3.854   2.077   1.606 -0.3117  0.4253 -0.5650
15474TIP3   OH267836   1.529   0.293  13.037  0.3411  0.3074 -0.0506
15474TIP3    H167837   1.446   0.251  13.061 -0.9846  1.6709 -2.0521
15474TIP3    H267838   1.514   0.386  13.052  0.8076  0.7793 -2.3095
15475TIP3   OH267839   5.032   1.936   1.777  0.3989  0.0659  0.9993
15475TIP3    H167840   5.108   1.908   1.726 -0.8819 -2.6178  0.4537
15475TIP3    H267841   5.069   1.970   1.859  2.1910 -1.0441  0.6771
15476TIP3   OH267842   0.600   2.603   5.043  0.3894  0.2788 -0.0717
15476TIP3    H167843   0.613   2.694   5.018  0.9353  0.1590 -0.2216
15476TIP3    H267844   0.515   2.580   5.005  1.3597 -0.0124 -2.1529
15477TIP3   OH267845   0.397   5.402   2.172 -0.1418 -0.5665  0.1321
15477TIP3    H167846   0.368   5.315   2.200  1.7359 -1.3991 -0.3551
15477TIP3    H267847   0.490   5.389   2.150 -0.1844  1.2758 -1.1959
15478TIP3   OH267848   0.619   5.790   1.872 -0.2996  0.3695  0.2886
15478TIP3    H167849   0.610   5.855   1.803 -1.0278 -0.9798 -0.9008
15478TIP3    H267850   0.529   5.764   1.893  0.0522 -2.1015 -1.0572
15479TIP3   OH267851   0.586   6.384   4.261  0.1682 -0.5198  0.4591
15479TIP3    H167852   0.623   6.299   4.284  1.8818  0.4140  1.3004
15479TIP3    H267853   0.546   6.416   4.342 -1.5777 -1.0455 -0.1720
15480TIP3   OH267854   3.315   3.122  14.525  0.4770  0.5937  0.4009
15480TIP3    H167855   3.268   3.096  14.605  1.5978 -1.7018  0.3684
15480TIP3    H267856   3.248   3.160  14.469 -0.8728 -0.3400  1.3527
15481TIP3   OH267857   6.624   5.278   6.350 -0.7625 -0.2297 -0.5456
15481TIP3    H167858   6.701   5.333   6.368 -0.2029 -0.9693 -0.6578
15481TIP3    H267859   6.549   5.335   6.368 -0.1836  0.7520 -1.1958
15482TIP3   OH267860   2.130   1.618  13.353 -0.6595 -0.4412  0.0270
15482TIP3    H167861   2.144   1.614  13.447  0.1088 -1.4698 -0.1122
15482TIP3    H267862   2.045   1.659  13.342  0.1110  1.5134  1.1110
15483TIP3   OH267863   4.069   1.136  13.880  0.0358  0.1856  0.4039
15483TIP3    H167864   4.135   1.087  13.929  0.2668  0.1700  0.0774
15483TIP3    H267865   4.067   1.095  13.794 -0.3834  0.2028  0.4054
15484TIP3   OH267866   4.545   1.868   5.716 -0.2627 -0.1799 -0.9543
15484TIP3    H167867   4.628   1.886   5.673 -0.7347  1.7924 -1.0957
15484TIP3    H267868   4.513   1.788   5.674  1.6847 -1.1132 -0.6781
15485TIP3   OH267869   4.346   0.789   0.890 -0.2419  0.1116  0.4575
15485TIP3    H167870   4.410   0.780   0.820  0.3813  0.6148  0.9508
15485TIP3    H267871   4.354   0.881   0.917 -0.4429 -0.0897  1.2097
15486TIP3   OH267872   2.194   2.957   2.609  0.4123 -0.0821  0.5248
15486TIP3    H167873   2.178   2.870   2.646  1.1195 -1.3945 -2.0884
15486TIP3    H267874   2.281   2.981   2.639  0.9283 -1.0705 -0.1338
15487TIP3   OH267875   0.747   6.532   3.855  0.2300 -0.4174  0.3039
15487TIP3    H167876   0.753   6.441   3.883  0.1583 -0.7362 -0.6641
15487TIP3    H267877   0.838   6.560   3.844  0.2768  0.0428  1.8824
15488TIP3   OH267878   0.496   3.407  11.877 -0.5201  0.7637 -0.3656
15488TIP3    H167879   0.450   3.486  11.902  1.2780  1.5285  0.6552
15488TIP3    H267880   0.530   3.372  11.959 -3.0034 -2.2167 -0.5264
15489TIP3   OH267881   3.999   0.103  16.533  0.2039  0.2217  0.2606
15489TIP3    H167882   4.052   0.157  16.592  1.0540  0.3305 -0.5769
15489TIP3    H267883   3.971   0.163  16.464  2.0262 -0.5848 -1.2364
15490TIP3   OH267884   5.273   4.895  16.933  0.2131 -0.4666 -0.4058
15490TIP3    H167885   5.191   4.881  16.981  0.1291 -1.3520 -0.8031
15490TIP3    H267886   5.331   4.937  16.997 -0.0884 -1.1044  0.2942
15491TIP3   OH267887   3.007   5.711  12.483  0.2329  0.6048 -0.0252
15491TIP3    H167888   2.950   5.654  12.534 -0.0682  0.3553 -0.6372
15491TIP3    H267889   3.032   5.780  12.544 -0.6808  0.6905  0.2638
15492TIP3   OH267890   5.525   1.825   5.091 -0.2338 -0.1859  0.7193
15492TIP3    H167891   5.598   1.878   5.060 -0.2344 -0.0641  0.9199
15492TIP3    H267892   5.455   1.888   5.106 -1.0044 -0.5410 -1.3006
15493TIP3   OH267893   5.060   2.187  14.407  0.2245 -0.2432 -0.4326
15493TIP3    H167894   4.989   2.162  14.348 -0.3296 -0.4451  0.3148
15493TIP3    H267895   5.123   2.114  14.401  1.0251  0.5638 -2.1275
15494TIP3   OH267896   6.101   3.500  14.814  0.7383 -0.2749  0.5152
15494TIP3    H167897   6.086   3.434  14.747 -1.5664 -0.7095  1.4447
15494TIP3    H267898   6.047   3.574  14.788  0.8894  0.0714  1.1651
15495TIP3   OH267899   6.569   5.515   4.486  0.6599  0.3092 -0.7799
15495TIP3    H167900   6.611   5.528   4.401 -2.4401  3.2599 -1.9924
15495TIP3    H267901   6.502   5.448   4.470  1.4713 -0.6578 -0.1394
15496TIP3   OH267902   1.461   0.712   0.743  0.3344 -0.1907  0.1288
15496TIP3    H167903   1.528   0.654   0.707  0.5978  0.3878 -0.3230
15496TIP3    H267904   1.509   0.771   0.800  0.1656  0.0211  0.0496
15497TIP3   OH267905   5.112   3.003   6.452  0.2961  0.2430 -0.2514
15497TIP3    H167906   5.147   2.923   6.413 -0.2585  1.3022 -3.0182
15497TIP3    H267907   5.017   2.993   6.446  0.2206  1.3440 -1.1751
15498TIP3   OH267908   3.848   2.801  15.203  0.1978  0.3714  0.2202
15498TIP3    H167909   3.887   2.851  15.132  0.6089 -2.4713 -1.6411
15498TIP3    H267910   3.755   2.796  15.181 -0.2571  2.1169  1.5705
15499TIP3   OH267911   0.915   2.823  16.229 -0.7961 -0.3351  0.0401
15499TIP3    H167912   0.822   2.837  16.242 -0.6986  0.2579  0.1231
15499TIP3    H267913   0.949   2.804  16.317 -0.8025 -0.3280  0.0457
15500TIP3   OH267914   0.684   3.377  15.456  0.1520  0.0188  0.0990
15500TIP3    H167915   0.740   3.351  15.530  1.5744  0.6084 -0.7671
15500TIP3    H267916   0.744   3.391  15.384 -0.9799  2.0922 -0.4683
15501TIP3   OH267917   1.127   1.085  11.214 -0.2153  0.2324 -0.2548
15501TIP3    H167918   1.162   1.009  11.261 -0.3526 -0.2651 -0.9421
15501TIP3    H267919   1.192   1.102  11.145 -0.3608  0.5228 -0.3204
15502TIP3   OH267920   2.219   3.718  15.743 -0.7641 -0.7383 -0.0381
15502TIP3    H167921   2.194   3.792  15.798  1.8822  0.6256 -0.5781
15502TIP3    H267922   2.155   3.650  15.764 -0.2436 -0.0652  4.2516
15503TIP3   OH267923   1.646   5.937   5.102  0.4789 -0.0642  0.1989
15503TIP3    H167924   1.609   5.924   5.015  0.5699  0.2173  0.1189
15503TIP3    H267925   1.722   5.879   5.105  1.4006  1.0904 -0.4748
15504TIP3   OH267926   4.407   3.785   4.402 -0.0981 -0.4246 -0.2824
15504TIP3    H167927   4.342   3.716   4.412  0.8616 -1.0939  1.4101
15504TIP3    H267928   4.364   3.850   4.347 -2.0002 -1.1120  0.3636
15505TIP3   OH267929   4.565   6.780   4.751 -0.1740  0.1849  0.5268
15505TIP3    H167930   4.538   6.749   4.664  0.0000 -1.1387  0.9362
15505TIP3    H267931   4.497   6.844   4.775 -1.6217 -1.2855  0.4723
15506TIP3   OH267932   6.137   6.786   6.063  0.5145  0.5372  0.2509
15506TIP3    H167933   6.112   6.745   6.146 -0.2229  1.3740  0.4498
15506TIP3    H267934   6.089   6.869   6.062  0.4730  0.5043 -1.0438
15507TIP3   OH267935   0.742   3.546   3.044  0.1499 -0.6702 -0.0909
15507TIP3    H167936   0.736   3.625   3.098 -1.9059  0.0934 -1.3618
15507TIP3    H267937   0.800   3.571   2.971 -0.1531 -0.4671 -0.2630
15508TIP3   OH267938   2.013   5.495   4.341  0.8102  0.4408 -0.0499
15508TIP3    H167939   2.019   5.589   4.356  2.4708  0.2551  0.6104
15508TIP3    H267940   2.067   5.456   4.410  0.7256 -0.9457 -0.7390
15509TIP3   OH267941   2.333   4.530   3.006 -0.5515  0.3277  0.1623
15509TIP3    H167942   2.297   4.456   2.958  0.0458 -0.3863  0.8004
15509TIP3    H267943   2.281   4.605   2.977  0.1100  0.0124 -1.9825
15510TIP3   OH267944   3.817   5.053  11.046 -0.0023 -0.0047 -0.3777
15510TIP3    H167945   3.760   5.059  11.123  1.9172  2.4371  0.9212
15510TIP3    H267946   3.893   5.003  11.075  0.6367  0.7378 -0.7481
15511TIP3   OH267947   6.586   3.092  15.754  0.1799 -0.4107 -0.1457
15511TIP3    H167948   6.676   3.103  15.725  0.1646  0.7367  0.2323
15511TIP3    H267949   6.538   3.163  15.712 -0.6096 -1.2007 -0.5982
15512TIP3   OH267950   4.748   0.221  15.577  0.1598 -0.0050  0.0526
15512TIP3    H167951   4.671   0.166  15.588 -0.5174  0.9318  0.1433
15512TIP3    H267952   4.777   0.205  15.488  1.4776 -2.3845  0.8652
15513TIP3   OH267953   4.884   4.288  12.790 -0.1950 -0.2660 -0.1945
15513TIP3    H167954   4.955   4.291  12.726  0.3455 -1.1622  0.3425
15513TIP3    H267955   4.861   4.379  12.805  0.4803  0.0040 -0.7881
15514TIP3   OH267956   0.928   3.502   1.572  0.3740 -0.0311 -0.2766
15514TIP3    H167957   0.959   3.474   1.486  1.7491  0.8157 -0.0639
15514TIP3    H267958   0.999   3.556   1.607 -0.2114 -0.2981  1.3585
15515TIP3   OH267959   1.922   0.486  12.496 -0.7014 -0.4642 -0.1242
15515TIP3    H167960   1.907   0.580  12.510 -0.2317 -0.3517 -0.3557
15515TIP3    H267961   1.850   0.458  12.440 -2.9453 -1.0434  2.9625
15516TIP3   OH267962   5.806   0.391  12.020 -0.6378 -0.1566  0.2693
15516TIP3    H167963   5.901   0.379  12.017 -0.6872 -0.0191 -2.2025
15516TIP3    H267964   5.793   0.460  12.085  1.0723  1.0457 -0.6447
15517TIP3   OH267965   2.438   5.805  16.680  0.0715 -0.0840  0.3854
15517TIP3    H167966   2.495   5.874  16.646  0.1815  0.2147  1.1760
15517TIP3    H267967   2.370   5.797  16.614  0.7387 -0.0757 -0.3125
15518TIP3   OH267968   6.574   4.108   2.212  0.7504  0.7477 -0.2798
15518TIP3    H167969   6.502   4.130   2.152 -0.4195 -0.3050  0.7017
15518TIP3    H267970   6.580   4.012   2.208  0.9244  0.6993  0.9718
15519TIP3   OH267971   6.570   2.987  11.571  0.7163  0.3813  0.5160
15519TIP3    H167972   6.607   2.992  11.483  0.6685 -0.5210  0.4412
15519TIP3    H267973   6.533   3.073  11.587  1.4151  0.7908 -0.0477
15520TIP3   OH267974   3.965   1.788   0.129 -0.0593  0.4889  0.6183
15520TIP3    H167975   3.991   1.723   0.063 -0.0409  1.6142 -0.5195
15520TIP3    H267976   4.047   1.834   0.150 -0.2321  0.7397  0.7383
15521TIP3   OH267977   6.023   6.299   6.131 -0.7663 -0.1818  0.4755
15521TIP3    H167978   5.947   6.279   6.076 -1.4198  0.0943  1.2731
15521TIP3    H267979   5.985   6.333   6.212  0.2367  2.1344  0.0299
15522TIP3   OH267980   0.636   3.079   5.341 -0.6746 -0.0230 -0.0237
15522TIP3    H167981   0.590   3.162   5.325 -1.5499 -0.3795  0.6075
15522TIP3    H267982   0.571   3.024   5.383  0.1522 -0.7654  0.2845
15523TIP3   OH267983   6.457   2.114   5.640  0.6202  0.6428 -0.0045
15523TIP3    H167984   6.520   2.177   5.604  1.0522  0.4594  0.4126
15523TIP3    H267985   6.448   2.139   5.732  0.0456  0.6925 -0.0744
15524TIP3   OH267986   2.240   0.807  11.310 -0.1244 -0.7645 -0.2494
15524TIP3    H167987   2.238   0.898  11.339  1.2186 -0.6008 -0.6314
15524TIP3    H267988   2.181   0.761  11.370 -0.5576  0.2868  0.1460
15525TIP3   OH267989   0.839   1.534   3.737  0.4649  0.0279 -0.1582
15525TIP3    H167990   0.874   1.581   3.812  0.8070  1.2665 -1.0825
15525TIP3    H267991   0.757   1.495   3.768  1.3163 -0.6615  1.2537
15526TIP3   OH267992   5.843   4.464  11.583 -0.7748 -0.4435  0.3945
15526TIP3    H167993   5.790   4.515  11.522  0.1730 -0.4096 -0.4123
15526TIP3    H267994   5.915   4.431  11.530  0.5735  0.3583  1.7010
15527TIP3   OH267995   6.055   3.767  13.739 -0.6262  0.7914 -0.1160
15527TIP3    H167996   6.048   3.766  13.834 -2.1233 -0.5191 -0.2187
15527TIP3    H267997   6.085   3.855  13.718  1.6583  0.4678  1.6811
15528TIP3   OH267998   0.908   2.311   2.155  0.5098  0.0923 -0.1125
15528TIP3    H167999   0.841   2.353   2.100 -0.5299 -1.6866 -0.2330
15528TIP3    H268000   0.895   2.350   2.241  1.5896  2.2741 -0.8908
15529TIP3   OH268001   3.590   6.652   3.128  0.1401 -0.1439 -0.1768
15529TIP3    H168002   3.578   6.746   3.112 -0.2870 -0.0729  0.5368
15529TIP3    H268003   3.596   6.613   3.041  1.3203  0.6749 -0.4711
15530TIP3   OH268004   1.533   6.769  14.948  0.1586  0.6143  0.1308
15530TIP3    H168005   1.496   6.681  14.952 -0.2892  0.8263  0.7834
15530TIP3    H268006   1.601   6.764  14.881  1.3186 -0.6654  1.3778
15531TIP3   OH268007   3.082   0.148   2.506 -0.2669  0.3999  0.2235
15531TIP3    H168008   3.036   0.231   2.496 -0.8195  0.0705 -0.0106
15531TIP3    H268009   3.168   0.172   2.539 -0.8520  0.9670  1.3704
15532TIP3   OH268010   1.060   5.015   5.960 -0.4119 -0.1622  0.2362
15532TIP3    H168011   1.048   4.964   5.880 -0.6010  1.8193 -1.0368
15532TIP3    H268012   0.991   5.082   5.956  1.2470  1.6094  0.6799
15533TIP3   OH268013   5.826   5.175  12.005 -0.0822  0.8727  0.2529
15533TIP3    H168014   5.804   5.268  12.006 -0.9933  0.7137 -1.5379
15533TIP3    H268015   5.848   5.157  11.914 -0.5532 -0.7956  0.4444
15534TIP3   OH268016   2.467   5.868  13.995  0.3583 -0.1864  0.4341
15534TIP3    H168017   2.431   5.786  14.029  1.2786 -0.4487  0.7821
15534TIP3    H268018   2.424   5.936  14.046 -0.0823 -0.4640  0.4407
15535TIP3   OH268019   6.370   0.802   3.589 -0.0959  0.5302 -0.4540
15535TIP3    H168020   6.446   0.858   3.604  0.5100 -0.3790 -0.0772
15535TIP3    H268021   6.324   0.800   3.673  1.4017 -1.7537  0.3641
15536TIP3   OH268022   0.116   6.649   1.500 -0.2561  0.3125  0.2806
15536TIP3    H168023   0.064   6.647   1.581 -0.7271 -1.3529 -0.0400
15536TIP3    H268024   0.059   6.690   1.436 -0.5640  0.0227  0.3610
15537TIP3   OH268025   3.198   4.862   4.609 -0.4531  0.3896 -0.6787
15537TIP3    H168026   3.141   4.911   4.668 -0.7275  0.1106 -0.7107
15537TIP3    H268027   3.227   4.926   4.544 -0.5467  0.5825 -0.5299
15538TIP3   OH268028   3.171   1.324   2.248  0.1819 -0.2869  0.8314
15538TIP3    H168029   3.226   1.389   2.292 -1.1933  0.6785  1.1445
15538TIP3    H268030   3.228   1.248   2.238  2.3326  1.5044 -0.9804
15539TIP3   OH268031   1.117   1.604  13.979 -0.5234 -0.1552  0.0618
15539TIP3    H168032   1.210   1.617  13.995 -0.9775  1.5994  1.4072
15539TIP3    H268033   1.095   1.670  13.913 -1.0609  0.2953  0.6808
15540TIP3   OH268034   4.064   6.264  14.675  0.2608  0.0854 -0.9446
15540TIP3    H168035   4.145   6.224  14.707  0.0405 -0.1744 -0.7045
15540TIP3    H268036   4.052   6.228  14.587  0.4206  0.1454 -0.9921
15541TIP3   OH268037   2.771   4.515  12.689  0.3007 -0.6067  0.2813
15541TIP3    H168038   2.676   4.518  12.703 -0.0403  0.4089 -1.9589
15541TIP3    H268039   2.807   4.568  12.760 -0.8492 -0.5779  0.8555
15542TIP3   OH268040   3.346   1.172  13.375  0.2504 -0.7029 -0.2165
15542TIP3    H168041   3.264   1.124  13.387 -0.1266  0.2874  1.4063
15542TIP3    H268042   3.407   1.131  13.435 -0.4276  1.5666  2.1352
15543TIP3   OH268043   1.111   3.814  13.736  0.7482  0.1529  0.5235
15543TIP3    H168044   1.073   3.845  13.654  1.1536 -0.1479  0.2222
15543TIP3    H268045   1.117   3.719  13.725  0.7757  0.1092  0.9139
15544TIP3   OH268046   3.455   4.588   3.270  0.0128 -0.0230 -0.2495
15544TIP3    H168047   3.506   4.630   3.202 -1.7154 -1.7453 -2.7055
15544TIP3    H268048   3.402   4.658   3.307  0.3393  0.7861 -1.2958
15545TIP3   OH268049   0.669   5.200  14.388 -0.1818 -0.0636 -0.6533
15545TIP3    H168050   0.608   5.126  14.387 -0.2939  0.0353 -0.9425
15545TIP3    H268051   0.751   5.161  14.419 -0.8616  0.1807  1.5870
15546TIP3   OH268052   0.740   5.729  11.359 -0.4467  0.3954 -0.4042
15546TIP3    H168053   0.762   5.661  11.423 -1.1828 -0.8774 -1.4699
15546TIP3    H268054   0.669   5.691  11.307 -0.6589  1.8696 -1.2211
15547TIP3   OH268055   2.006   1.194   3.489 -0.4549 -0.1117 -0.6343
15547TIP3    H168056   1.914   1.196   3.513 -0.7169 -1.6236 -1.4197
15547TIP3    H268057   2.051   1.161   3.567 -0.1119  3.8503  0.9443
15548TIP3   OH268058   2.628   3.562  15.315 -0.2003  0.2543  0.1405
15548TIP3    H168059   2.621   3.508  15.236 -1.2513  0.1962  0.2652
15548TIP3    H268060   2.537   3.580  15.340  0.1310  1.1564  0.7314
15549TIP3   OH268061   0.108   0.928   4.750 -0.4952  0.2661  0.1323
15549TIP3    H168062   0.017   0.920   4.777 -0.7378 -1.3429 -1.0456
15549TIP3    H268063   0.112   0.881   4.666  1.4481  0.1674  0.2555
15550TIP3   OH268064   1.441   0.204  12.775  0.3962  0.1898 -0.5338
15550TIP3    H168065   1.484   0.226  12.693 -1.0961  1.0953 -1.0839
15550TIP3    H268066   1.463   0.275  12.835 -1.0826  1.1627 -1.1053
15551TIP3   OH268067   2.395   4.921   3.886 -0.2561  0.8083  0.1377
15551TIP3    H168068   2.330   4.969   3.937  0.2442  1.2540  0.3702
15551TIP3    H268069   2.392   4.962   3.799 -0.2045  0.9014  0.1800
15552TIP3   OH268070   1.148   0.723   2.163 -0.1623  0.3686  0.2582
15552TIP3    H168071   1.180   0.680   2.084 -0.7188  0.5209 -0.0540
15552TIP3    H268072   1.060   0.686   2.176 -0.4662  1.0772  0.2395
15553TIP3   OH268073   3.911   4.356   0.372  0.3341 -0.6804 -0.3696
15553TIP3    H168074   3.921   4.269   0.333  1.0399 -0.6797 -0.1951
15553TIP3    H268075   3.999   4.392   0.373  0.4143 -0.8950  1.7351
15554TIP3   OH268076   5.041   5.301  12.195  0.3933  0.1447  0.3223
15554TIP3    H168077   5.022   5.214  12.160 -0.7679  0.7554 -0.6368
15554TIP3    H268078   4.957   5.331  12.231  1.0369  0.4522  1.5795
15555TIP3   OH268079   1.981   0.204   5.035  0.4095 -0.0515  0.1417
15555TIP3    H168080   2.063   0.219   5.081  0.1179 -3.9716  2.1893
15555TIP3    H268081   1.918   0.263   5.078  1.4394  0.5772  0.7910
15556TIP3   OH268082   6.736   0.083  15.293 -0.0054 -0.0873  0.0309
15556TIP3    H168083   6.796   0.013  15.316  0.3474 -0.4002 -1.7173
15556TIP3    H268084   6.756   0.154  15.354 -0.0416 -1.3173  1.5003
15557TIP3   OH268085   1.555   3.059   1.314  0.1130 -0.2244  0.7477
15557TIP3    H168086   1.460   3.071   1.324  0.0149  0.1256 -0.5226
15557TIP3    H268087   1.594   3.133   1.361 -0.2581 -0.0324  0.7545
15558TIP3   OH268088   4.214   1.635  15.571 -0.0498 -0.4320 -0.3573
15558TIP3    H168089   4.216   1.561  15.631 -1.8187  0.5950  1.0429
15558TIP3    H268090   4.124   1.637  15.538  0.1841  0.6344 -0.9752
15559TIP3   OH268091   1.012   1.470  12.972  0.1404 -0.1780 -0.1682
15559TIP3    H168092   1.031   1.411  12.899  1.0935  1.2027 -1.0839
15559TIP3    H268093   0.974   1.414  13.040  2.7282 -2.1839 -0.2882
15560TIP3   OH268094   6.067   4.796   5.081 -1.0804  0.4078  0.7391
15560TIP3    H168095   6.139   4.733   5.091  1.3646  2.6421 -1.7972
15560TIP3    H268096   6.063   4.841   5.165 -0.7613 -0.9676  1.5102
15561TIP3   OH268097   2.715   4.549  11.563  0.8350 -0.2037  0.0216
15561TIP3    H168098   2.751   4.614  11.502  0.1839  0.0610 -0.0804
15561TIP3    H268099   2.620   4.556  11.553  0.7120 -0.0126  1.2208
15562TIP3   OH268100   5.115   5.564  12.127  0.2611  0.3002  0.1441
15562TIP3    H168101   5.105   5.474  12.157 -0.4006 -0.3070 -1.8165
15562TIP3    H268102   5.032   5.607  12.148 -0.0258  0.0052 -0.3843
15563TIP3   OH268103   6.508   2.686   0.148  1.4969 -0.9267  0.1263
15563TIP3    H168104   6.457   2.759   0.184  0.9168 -1.8613  1.2318
15563TIP3    H268105   6.595   2.723   0.135  0.7170  0.5306 -1.2529
15564TIP3   OH268106   3.661   3.407   5.815  0.2766  0.4263 -0.1906
15564TIP3    H168107   3.720   3.423   5.888  0.5628 -0.9488 -0.0938
15564TIP3    H268108   3.590   3.355   5.852  1.1345 -1.4886 -1.1402
15565TIP3   OH268109   1.465   5.533   0.262  0.6850  0.2931 -0.3229
15565TIP3    H168110   1.417   5.525   0.179 -0.2903 -3.1160  0.4695
15565TIP3    H268111   1.557   5.527   0.237  0.4250 -0.0647 -1.2298
15566TIP3   OH268112   5.887   3.113  15.000 -0.2832 -0.0460 -0.2159
15566TIP3    H168113   5.828   3.188  14.995  1.0064  1.0034  0.0736
15566TIP3    H268114   5.934   3.125  15.082 -0.4403 -1.4667  0.0958
15567TIP3   OH268115   6.033   0.719  12.021  0.5283 -0.5780 -0.6475
15567TIP3    H168116   6.116   0.760  12.047  0.4453 -0.8766  0.1147
15567TIP3    H268117   6.049   0.688  11.932  1.0393 -0.0961 -0.7259
15568TIP3   OH268118   3.914   5.297   3.687 -0.0645  0.0042 -0.2224
15568TIP3    H168119   3.979   5.231   3.661 -0.0185  1.0336 -2.8573
15568TIP3    H268120   3.846   5.291   3.621 -1.6316  0.4333  1.3246
15569TIP3   OH268121   1.144   3.097   0.755  0.4508  0.2087  0.2548
15569TIP3    H168122   1.129   3.005   0.730 -1.6475 -0.1647  2.7013
15569TIP3    H268123   1.147   3.144   0.671 -2.1604 -1.5859 -0.9229
15570TIP3   OH268124   1.213   3.274   5.379  0.1391 -0.4765  0.0005
15570TIP3    H168125   1.152   3.246   5.447 -0.8994 -0.2937 -0.8437
15570TIP3    H268126   1.253   3.193   5.347 -1.2541 -0.8202 -0.9280
15571TIP3   OH268127   6.320   4.122   6.228 -0.2200  0.2773 -0.2131
15571TIP3    H168128   6.307   4.150   6.319  1.7808 -0.0136  0.1979
15571TIP3    H268129   6.256   4.052   6.214 -2.6862  2.4292 -0.0481
15572TIP3   OH268130   5.017   4.372   1.910 -0.2007 -0.2984  0.4667
15572TIP3    H168131   4.925   4.393   1.897 -0.7416 -1.9547  1.4234
15572TIP3    H268132   5.041   4.419   1.990 -0.0351  0.6277 -0.1199
15573TIP3   OH268133   3.495   4.284  11.842 -0.2251  0.4470 -0.1215
15573TIP3    H168134   3.423   4.308  11.900 -0.1905  0.9480 -0.2830
15573TIP3    H268135   3.483   4.191  11.825 -2.0294  0.9505 -1.8168
15574TIP3   OH268136   5.273   3.231   6.132  0.0930  0.2851  0.4964
15574TIP3    H168137   5.335   3.167   6.167  0.8168  0.9277  0.4212
15574TIP3    H268138   5.291   3.233   6.038 -0.5305 -0.0415  0.3685
15575TIP3   OH268139   1.427   5.364   2.708  0.5000  0.0811 -0.2722
15575TIP3    H168140   1.427   5.425   2.635  1.4402  0.9962  0.4605
15575TIP3    H268141   1.494   5.399   2.768 -0.3973 -0.5175  1.1100
15576TIP3   OH268142   3.386   5.915   0.881 -0.3179  0.0400 -0.1448
15576TIP3    H168143   3.381   5.944   0.790 -0.2609 -0.7715 -0.4122
15576TIP3    H268144   3.390   5.819   0.876  0.1009  0.0061  0.6944
15577TIP3   OH268145   0.718   6.208  14.540  0.7703 -0.2172 -0.0466
15577TIP3    H168146   0.692   6.290  14.500  1.8856  0.5292  0.7209
15577TIP3    H268147   0.789   6.175  14.485  1.2361  0.0169  0.4097
15578TIP3   OH268148   1.567   6.691   0.854  0.4646 -0.3123  0.1064
15578TIP3    H168149   1.561   6.702   0.948  0.2413 -0.7405  0.1443
15578TIP3    H268150   1.487   6.729   0.819  0.5812 -0.0873  0.0838
15579TIP3   OH268151   4.751   2.743  14.469 -0.7727  0.3987 -0.0549
15579TIP3    H168152   4.824   2.701  14.424 -0.5566 -0.1412  0.7761
15579TIP3    H268153   4.693   2.670  14.493 -1.4624  0.7959 -0.4896
15580TIP3   OH268154   6.117   3.288   4.739  0.6544 -0.7808  0.0017
15580TIP3    H168155   6.094   3.217   4.798 -0.8027 -0.3830 -0.0609
15580TIP3    H268156   6.037   3.342   4.734  0.9420 -0.4885 -1.8512
15581TIP3   OH268157   4.233   3.963   4.288 -0.2352  0.5611  0.0163
15581TIP3    H168158   4.246   4.058   4.290  0.2073  0.5038 -0.1929
15581TIP3    H268159   4.141   3.952   4.310 -0.4750  1.0817 -0.6795
15582TIP3   OH268160   0.910   0.047  13.411  0.1579 -0.2293  0.2912
15582TIP3    H168161   0.859  -0.026  13.446 -0.4338  0.7935  1.6023
15582TIP3    H268162   0.968   0.073  13.483  0.3315  0.6030 -0.1403
15583TIP3   OH268163   6.246   5.989  14.062 -0.0681  0.5684  0.2163
15583TIP3    H168164   6.261   6.011  13.970 -0.6198  0.9741  0.2223
15583TIP3    H268165   6.299   5.911  14.077 -1.1447 -0.3851 -0.8550
15584TIP3   OH268166   1.428   2.504   2.194 -0.1717 -0.4173 -0.5588
15584TIP3    H168167   1.340   2.521   2.160 -0.8785 -0.6717  1.0968
15584TIP3    H268168   1.420   2.422   2.243  0.0429  1.4869  2.8437
15585TIP3   OH268169   4.171   6.500   6.494 -0.1711 -0.2366 -0.6499
15585TIP3    H168170   4.207   6.543   6.572 -0.2175 -0.2834 -0.6032
15585TIP3    H268171   4.127   6.571   6.447 -2.9651 -0.7863  1.0008
15586TIP3   OH268172   0.171   0.275   0.841  0.1456 -0.0358  0.0902
15586TIP3    H168173   0.184   0.340   0.910  0.7210  1.0358 -1.0219
15586TIP3    H268174   0.259   0.246   0.818  0.0988  0.9959 -1.4935
15587TIP3   OH268175   5.225   2.498  16.869  0.6839 -0.1195  0.3378
15587TIP3    H168176   5.303   2.443  16.862  0.0551 -1.0340  0.4262
15587TIP3    H268177   5.154   2.442  16.838 -0.3289 -0.1756  2.6301
15588TIP3   OH268178   4.777   5.459  11.990 -0.0605 -0.1567  0.0906
15588TIP3    H168179   4.836   5.532  11.974 -0.5785 -0.0116 -1.2167
15588TIP3    H268180   4.808   5.389  11.931 -0.8413 -0.2633 -0.2074
15589TIP3   OH268181   5.021   4.456  11.586  0.5440  0.0546  0.2401
15589TIP3    H168182   5.008   4.362  11.576 -1.1736  0.1278  1.5216
15589TIP3    H268183   4.974   4.495  11.512  0.5622 -0.0747  0.1605
15590TIP3   OH268184   4.579   5.553  12.362  0.5370  0.1842  0.4848
15590TIP3    H168185   4.598   5.471  12.316 -0.3484 -0.2130  0.8271
15590TIP3    H268186   4.501   5.587  12.319  0.9024  0.8605  0.3412
15591TIP3   OH268187   2.952   3.941   5.690  0.5241 -0.5589 -0.0271
15591TIP3    H168188   2.897   3.998   5.637 -1.5309 -1.5604  0.9149
15591TIP3    H268189   2.899   3.924   5.768  2.3974 -1.1971  1.1384
15592TIP3   OH268190   4.718   3.768   2.100  0.6786  0.1789 -0.3091
15592TIP3    H168191   4.774   3.718   2.159 -0.1853  0.1173  0.4723
15592TIP3    H268192   4.733   3.728   2.014  1.2396 -0.3457  0.0283
15593TIP3   OH268193   1.219   3.330  14.104 -0.5656 -0.0493 -0.2557
15593TIP3    H168194   1.142   3.379  14.131  1.3918  1.8141  2.1171
15593TIP3    H268195   1.230   3.264  14.172  0.2860  0.0722 -0.2793
15594TIP3   OH268196   2.789   6.521   5.078  0.3924 -0.0635  0.1957
15594TIP3    H168197   2.771   6.588   5.012  0.1476  0.1016  0.4297
15594TIP3    H268198   2.885   6.521   5.086  0.4670 -0.6501 -0.7407
15595TIP3   OH268199   2.590   6.544  14.441  0.2589 -0.0489 -0.3419
15595TIP3    H168200   2.676   6.569  14.407  0.2073  1.8589  0.8869
15595TIP3    H268201   2.575   6.457  14.405  2.4959 -0.2090 -0.9642
15596TIP3   OH268202   0.333   0.885  17.231  0.3494 -0.0112  0.1115
15596TIP3    H168203   0.317   0.967  17.279  0.1362 -0.7987  1.4169
15596TIP3    H268204   0.288   0.896  17.148 -0.3558  0.8813  0.6059
15597TIP3   OH268205   4.108   2.384   0.790  0.7469 -0.8194 -0.2309
15597TIP3    H168206   4.131   2.423   0.874 -0.1425 -1.1513  0.1744
15597TIP3    H268207   4.027   2.428   0.764  0.2550 -1.7110 -0.2272
15598TIP3   OH268208   3.283   2.159  13.925  0.2821 -0.1210 -0.5922
15598TIP3    H168209   3.328   2.146  14.009  0.6770 -0.9496 -0.9277
15598TIP3    H268210   3.336   2.111  13.862 -0.6303 -0.4225 -1.1319
15599TIP3   OH268211   1.886   2.563  12.759 -0.0344 -0.3897  0.2570
15599TIP3    H168212   1.899   2.637  12.700 -0.6263 -0.7387 -0.3186
15599TIP3    H268213   1.817   2.511  12.718 -0.9884 -0.2390  1.6334
15600TIP3   OH268214   2.374   4.487   3.472  0.4156  0.2275  0.2297
15600TIP3    H168215   2.449   4.460   3.524 -0.0170 -1.5538 -0.0601
15600TIP3    H268216   2.381   4.437   3.391  0.7201  2.4792 -1.2011
15601TIP3   OH268217   6.260   2.202  13.694 -0.1462  0.5240 -0.2863
15601TIP3    H168218   6.223   2.183  13.608 -1.0461 -0.0384  0.2184
15601TIP3    H268219   6.186   2.195  13.754  0.7230 -0.4123  0.7074
15602TIP3   OH268220   1.940   3.067   3.243 -0.4007  0.4476 -0.3162
15602TIP3    H168221   1.974   3.086   3.156 -1.5539  0.4356 -0.7812
15602TIP3    H268222   2.003   3.107   3.303  0.2827  0.6411 -1.1561
15603TIP3   OH268223   0.675   3.130   4.236 -0.0913 -0.5056 -0.0301
15603TIP3    H168224   0.594   3.159   4.279  0.2767 -0.2960  0.5175
15603TIP3    H268225   0.646   3.060   4.177 -1.0585  1.2925 -1.7319
15604TIP3   OH268226   6.203   3.744  11.435  0.2119 -0.0310  0.3852
15604TIP3    H168227   6.286   3.699  11.416  0.5738  1.2872 -1.2816
15604TIP3    H268228   6.228   3.818  11.491  0.5282  1.6848 -1.9437
15605TIP3   OH268229   5.683   0.630  11.364 -0.0173 -0.3838  0.0208
15605TIP3    H168230   5.755   0.595  11.417  0.2102 -0.2684 -0.2146
15605TIP3    H268231   5.725   0.661  11.284 -0.1730  0.7239  0.3576
15606TIP3   OH268232   5.626   5.538   6.000  0.5056  0.4243  0.3867
15606TIP3    H168233   5.673   5.605   5.950 -0.4718 -1.0474 -2.6272
15606TIP3    H268234   5.669   5.456   5.975 -2.6275 -0.7751 -1.2175
15607TIP3   OH268235   3.762   0.629   2.761  0.2237 -0.3119  0.2441
15607TIP3    H168236   3.725   0.672   2.838  1.0595  0.9061 -0.0252
15607TIP3    H268237   3.837   0.580   2.793 -0.1712 -0.8315  0.3942
15608TIP3   OH268238   1.742   2.263   5.113  0.4754 -0.0548  0.0453
15608TIP3    H168239   1.674   2.243   5.049 -0.6366 -0.8258  1.4531
15608TIP3    H268240   1.760   2.356   5.100  0.9988 -0.4155 -2.0590
15609TIP3   OH268241   4.744   0.063  17.074  0.0367  0.0706 -0.6170
15609TIP3    H168242   4.703   0.109  17.147  2.0894  0.6629  0.1705
15609TIP3    H268243   4.786   0.132  17.023  0.6748 -0.6196 -1.0295
15610TIP3   OH268244   1.451   2.317   3.887  0.2722  0.2780 -0.7198
15610TIP3    H168245   1.392   2.251   3.850  1.3405 -0.8450 -0.4477
15610TIP3    H268246   1.403   2.399   3.878 -1.9305 -0.7868  0.7346
15611TIP3   OH268247   1.188   3.789   6.105  0.4439 -0.3704 -0.4548
15611TIP3    H168248   1.240   3.793   6.186  0.3122  0.5513 -0.4046
15611TIP3    H268249   1.157   3.699   6.100 -1.4532  0.1140  1.7290
15612TIP3   OH268250   1.103   3.451  14.350  0.0380 -0.1635  0.2863
15612TIP3    H168251   1.156   3.523  14.316  0.4829 -0.9010 -0.6191
15612TIP3    H268252   1.019   3.460  14.304 -0.1092  0.1376  0.6193
15613TIP3   OH268253   5.686   6.226  11.942 -0.4736 -0.1271  0.3519
15613TIP3    H168254   5.648   6.313  11.945 -0.7652 -0.1746 -1.4359
15613TIP3    H268255   5.619   6.171  11.901  0.7148 -0.6145 -1.0053
15614TIP3   OH268256   6.567   1.587  15.580 -0.0410 -0.4407 -0.5596
15614TIP3    H168257   6.479   1.584  15.542  0.1640 -0.2696 -1.0573
15614TIP3    H268258   6.579   1.500  15.618 -0.8900 -0.0610  0.5923
15615TIP3   OH268259   1.448   2.150  12.825 -0.3182 -0.2224  0.4324
15615TIP3    H168260   1.414   2.094  12.755 -0.3009  0.8940 -0.4981
15615TIP3    H268261   1.381   2.148  12.893 -0.4276 -1.1665  0.2915
15616TIP3   OH268262   1.692   3.230   3.944  0.5030  0.7575 -0.5825
15616TIP3    H168263   1.764   3.278   3.984  0.8782  1.1017 -1.6418
15616TIP3    H268264   1.719   3.138   3.947  0.1352  0.6890  0.7330
15617TIP3   OH268265   6.657   3.415   5.562  0.6717  0.9771 -0.2174
15617TIP3    H168266   6.562   3.432   5.562  0.8371  1.9765  1.1052
15617TIP3    H268267   6.684   3.433   5.652  1.7512 -1.4974 -0.0105
15618TIP3   OH268268   3.290   2.191   1.119 -0.1228 -0.0266  0.6441
15618TIP3    H168269   3.267   2.192   1.212 -1.6686  2.8148  0.2939
15618TIP3    H268270   3.213   2.155   1.076  0.0830 -0.1064  0.3438
15619TIP3   OH268271   1.094   6.751  16.367  0.0926  0.1983  0.2831
15619TIP3    H168272   1.071   6.809  16.440  0.6634  0.2660  0.4122
15619TIP3    H268273   1.013   6.743  16.316 -0.5614 -0.6013  1.4410
15620TIP3   OH268274   1.660   3.543  13.903 -0.0189 -0.0683 -0.1305
15620TIP3    H168275   1.580   3.491  13.905  0.8194 -1.3637  1.2045
15620TIP3    H268276   1.679   3.561  13.995 -0.7337  3.3740 -0.5690
15621TIP3   OH268277   2.883   5.527   0.814 -0.2831 -0.0363 -0.6058
15621TIP3    H168278   2.848   5.445   0.778 -0.9401  0.2574 -0.6411
15621TIP3    H268279   2.907   5.578   0.737 -1.2095  0.3827 -0.6237
15622TIP3   OH268280   6.181   1.145   5.594  0.5127 -0.1788  0.1253
15622TIP3    H168281   6.225   1.148   5.679  1.2420 -1.2316 -0.2102
15622TIP3    H268282   6.200   1.230   5.554 -1.0977  0.9222  1.6209
15623TIP3   OH268283   1.320   4.339  13.294  0.6912  0.1604 -0.4967
15623TIP3    H168284   1.379   4.266  13.276 -0.4108 -1.4526  2.1551
15623TIP3    H268285   1.336   4.361  13.386 -2.6584 -0.2338  0.2622
15624TIP3   OH268286   5.854   4.785  11.673 -0.1272  0.3245  0.3200
15624TIP3    H168287   5.876   4.863  11.620 -0.2029  1.8084  2.4078
15624TIP3    H268288   5.759   4.791  11.685 -0.0511  0.2248  0.9600
15625TIP3   OH268289   4.192   4.275   3.636 -0.3506 -0.0300  0.1381
15625TIP3    H168290   4.142   4.207   3.680 -0.8314  0.2318 -0.0075
15625TIP3    H268291   4.131   4.349   3.627  0.2169  0.4909  0.4687
15626TIP3   OH268292   2.588   5.002   3.545  0.1226 -0.7819  0.7208
15626TIP3    H168293   2.492   5.008   3.547  0.0608  0.1765 -1.9857
15626TIP3    H268294   2.608   4.919   3.588 -1.8948 -0.7056  1.8503
15627TIP3   OH268295   2.866   3.501   3.896 -0.1154  0.1786 -0.0496
15627TIP3    H168296   2.868   3.595   3.879  0.8556  0.9513  3.7880
15627TIP3    H268297   2.940   3.486   3.955 -0.5592 -2.9221 -0.2157
15628TIP3   OH268298   1.033   2.191  15.725  0.1039 -0.0775 -0.3407
15628TIP3    H168299   0.984   2.159  15.801  0.4231  0.6110  0.1577
15628TIP3    H268300   1.042   2.285  15.740  0.2999  0.0402 -1.1635
15629TIP3   OH268301   1.871   0.727   3.584  0.6792 -0.3191  0.4598
15629TIP3    H168302   1.859   0.784   3.508  3.1418  0.3372  0.5372
15629TIP3    H268303   1.872   0.638   3.548  0.1136 -0.1178 -0.0585
15630TIP3   OH268304   4.740   5.809   1.365  0.6198 -0.3248 -0.1269
15630TIP3    H168305   4.809   5.743   1.361  0.8648  0.0396 -2.2642
15630TIP3    H268306   4.711   5.820   1.275 -3.2082 -1.4559  0.8779
15631TIP3   OH268307   5.663   3.369   4.943  0.1374 -0.1071 -0.3903
15631TIP3    H168308   5.751   3.340   4.919 -0.1200 -0.8849 -0.4009
15631TIP3    H268309   5.659   3.460   4.914  0.9247 -0.0810 -0.4237
15632TIP3   OH268310   3.495   6.543  16.550 -0.1824  0.0846 -0.1400
15632TIP3    H168311   3.580   6.566  16.588  0.3474  0.1014 -1.3134
15632TIP3    H268312   3.431   6.585  16.608  0.6509  1.2480 -0.0418
15633TIP3   OH268313   6.409   0.343   2.493  0.2624 -0.0614  0.0742
15633TIP3    H168314   6.493   0.309   2.524 -0.1893 -0.2559  1.1217
15633TIP3    H268315   6.350   0.268   2.497  0.7400 -0.7408 -3.6163
15634TIP3   OH268316   3.821   3.701  17.160 -0.6720 -0.2983 -0.2280
15634TIP3    H168317   3.866   3.617  17.158  1.0274  0.5679  0.0043
15634TIP3    H268318   3.728   3.679  17.165 -0.2022 -2.1502  0.9128
15635TIP3   OH268319   0.980   2.444  17.174  0.8094 -0.2403  0.2318
15635TIP3    H168320   0.957   2.457  17.266  2.5158 -1.0957  0.8018
15635TIP3    H268321   0.920   2.376  17.144  0.0655  0.2325  0.6441
15636TIP3   OH268322   5.914   0.719   1.317  0.1668 -0.3927  0.2142
15636TIP3    H168323   5.887   0.696   1.406 -0.4347 -1.1007 -0.1508
15636TIP3    H268324   5.986   0.659   1.298  0.4515 -0.0851  0.3009
15637TIP3   OH268325   4.720   3.376   3.608  0.2855  0.2814  0.2759
15637TIP3    H168326   4.685   3.424   3.534  1.0303  0.6580  0.1662
15637TIP3    H268327   4.696   3.427   3.685 -0.4251 -0.0735  0.2919
15638TIP3   OH268328   0.611   3.420  14.916  0.3543  0.2474 -0.5458
15638TIP3    H168329   0.590   3.513  14.905 -0.2325 -0.1013 -2.5292
15638TIP3    H268330   0.643   3.413  15.006 -2.3022  1.8871  0.5708
15639TIP3   OH268331   3.565   4.332  13.824 -0.3535 -0.2054  0.2083
15639TIP3    H168332   3.624   4.264  13.794 -1.1074 -0.3980 -0.9051
15639TIP3    H268333   3.553   4.316  13.917 -0.7549 -1.7850 -0.1023
15640TIP3   OH268334   4.323   0.899   3.148  0.3044  0.0345  0.5056
15640TIP3    H168335   4.349   0.821   3.197 -0.6271  0.3228  1.4740
15640TIP3    H268336   4.252   0.937   3.199 -0.2352  0.7110 -0.7267
15641TIP3   OH268337   2.706   1.410  13.992  0.2059 -0.2241 -0.2040
15641TIP3    H168338   2.615   1.393  14.015 -0.2611  1.1033 -1.0161
15641TIP3    H268339   2.716   1.505  14.000  2.1683 -0.5798  2.1772
15642TIP3   OH268340   6.164   6.723  12.700  0.2015 -0.5049 -0.5635
15642TIP3    H168341   6.142   6.635  12.672 -0.0778 -0.9506  0.9956
15642TIP3    H268342   6.085   6.755  12.743  0.4905  0.2948 -0.6087
15643TIP3   OH268343   6.352   0.108  11.474  0.2293 -0.8385 -0.9168
15643TIP3    H168344   6.368   0.092  11.381 -1.1328 -0.5269 -1.2154
15643TIP3    H268345   6.263   0.078  11.488  0.4964 -1.0592  0.3442
15644TIP3   OH268346   4.698   6.735  11.666 -0.0879  0.1108 -0.5875
15644TIP3    H168347   4.775   6.757  11.615 -1.2366  0.9390 -2.0020
15644TIP3    H268348   4.685   6.810  11.724  0.3213 -0.1438 -0.1670
15645TIP3   OH268349   3.913   0.242   0.995  0.1997  0.1465  0.1649
15645TIP3    H168350   3.990   0.188   0.979  0.2735  0.0354  0.8554
15645TIP3    H268351   3.947   0.319   1.042 -0.5175 -1.4128  3.3605
15646TIP3   OH268352   1.542   6.495  10.753  0.2888  0.6700 -0.1121
15646TIP3    H168353   1.563   6.586  10.775  2.4690  0.3221 -0.6865
15646TIP3    H268354   1.503   6.460  10.833 -1.7904  2.4550 -0.2766
15647TIP3   OH268355   4.720   4.823   1.563  0.3329 -0.6344  0.2450
15647TIP3    H168356   4.704   4.909   1.601 -1.3512 -0.6601 -0.3646
15647TIP3    H268357   4.700   4.833   1.470 -1.8103 -2.1347  0.4904
15648TIP3   OH268358   1.958   4.973   3.916  0.7429 -0.1625 -0.1288
15648TIP3    H168359   1.942   4.968   4.010 -3.1974 -1.5496 -0.7650
15648TIP3    H268360   1.936   5.063   3.892 -1.1961 -0.6260 -0.1549
15649TIP3   OH268361   0.647   1.454   2.231 -0.2249 -0.6544  0.8761
15649TIP3    H168362   0.687   1.407   2.304  1.8306 -0.4979 -0.1020
15649TIP3    H268363   0.714   1.454   2.163 -1.7623  0.0021 -0.6863
15650TIP3   OH268364   0.829   6.154  13.443 -0.1949 -0.0734 -0.7537
15650TIP3    H168365   0.908   6.126  13.489  0.2964  2.1010 -0.2584
15650TIP3    H268366   0.827   6.099  13.364  1.7327 -0.2490 -0.6925
15651TIP3   OH268367   4.554   2.922   4.988 -0.1699  0.0967 -0.3018
15651TIP3    H168368   4.510   2.880   5.061 -2.2221  0.1089 -1.5022
15651TIP3    H268369   4.577   2.850   4.929 -0.4615  0.2974 -0.6622
15652TIP3   OH268370   5.043   6.478   5.996 -0.2263  0.2462 -0.3196
15652TIP3    H168371   5.043   6.572   5.979  0.8731  0.3148  0.0036
15652TIP3    H268372   4.957   6.460   6.032 -1.7820  0.5016 -3.7175
15653TIP3   OH268373   2.629   3.786   1.639 -0.0532 -0.0101 -0.0648
15653TIP3    H168374   2.713   3.815   1.673  1.5609 -2.6038 -1.6838
15653TIP3    H268375   2.650   3.734   1.562 -3.1476 -0.5741 -0.6177
15654TIP3   OH268376   5.169   4.039  15.908  0.2212 -0.3210 -0.0495
15654TIP3    H168377   5.141   4.095  15.981 -0.3957 -1.1845  0.3753
15654TIP3    H268378   5.197   3.958  15.950  2.3498  0.1262 -0.5481
15655TIP3   OH268379   4.037   2.146  13.366  0.4135  0.3885 -0.5267
15655TIP3    H168380   4.095   2.076  13.396  2.1624  1.9637 -0.1805
15655TIP3    H268381   3.956   2.134  13.417  1.4277 -0.1701  0.9739
15656TIP3   OH268382   0.588   6.642   5.766 -0.0919  0.0232  0.5916
15656TIP3    H168383   0.600   6.578   5.836  2.4436 -0.5810 -0.3091
15656TIP3    H268384   0.677   6.660   5.736 -0.8452  3.2290  0.1494
15657TIP3   OH268385   0.718   1.741   0.356 -0.2527  0.2761 -0.7126
15657TIP3    H168386   0.725   1.730   0.262 -0.1373 -2.6848 -0.4061
15657TIP3    H268387   0.624   1.752   0.372 -0.3604 -0.1573 -1.0710
15658TIP3   OH268388   3.794   2.650  16.906  0.4059 -0.4811 -0.2293
15658TIP3    H168389   3.739   2.585  16.862  0.1114 -0.5964  0.3094
15658TIP3    H268390   3.814   2.714  16.838  0.1509 -0.7869 -0.5955
15659TIP3   OH268391   3.480   1.293   4.067  0.1995 -0.1265  0.1815
15659TIP3    H168392   3.393   1.286   4.108 -0.6180 -2.7420 -1.8671
15659TIP3    H268393   3.540   1.259   4.133 -0.8965 -2.5671 -0.0296
15660TIP3   OH268394   2.458   6.679  15.601 -0.2107  0.2696  0.3453
15660TIP3    H168395   2.375   6.643  15.633  0.0217  0.6191  1.3520
15660TIP3    H268396   2.522   6.654  15.667  0.3344  0.7360 -0.0061
15661TIP3   OH268397   6.719   2.441   4.278  0.1572 -0.2880 -0.0146
15661TIP3    H168398   6.677   2.524   4.258 -2.2393 -1.6525 -0.8981
15661TIP3    H268399   6.735   2.401   4.193  2.3087 -0.2874  0.3574
15662TIP3   OH268400   2.351   6.678   1.466  0.4037  0.4031  0.3629
15662TIP3    H168401   2.280   6.734   1.497  0.6802  0.2510  1.3014
15662TIP3    H268402   2.308   6.612   1.412 -0.0243  1.0046 -0.0333
15663TIP3   OH268403   2.741   5.925  11.759  0.1727  0.2998 -0.2232
15663TIP3    H168404   2.775   5.864  11.825  0.5399  0.5821 -0.1493
15663TIP3    H268405   2.765   6.011  11.792 -0.4422  0.4893 -0.2786
15664TIP3   OH268406   5.112   5.337   1.069  0.0675  0.2717 -0.3381
15664TIP3    H168407   5.152   5.317   1.153  0.1547 -0.0062 -0.4434
15664TIP3    H268408   5.145   5.269   1.010 -0.3120  0.2199 -0.4967
15665TIP3   OH268409   0.127   5.530   0.044 -0.2592  0.2745 -0.2012
15665TIP3    H168410   0.107   5.500   0.133  1.1829  2.3500  0.9041
15665TIP3    H268411   0.170   5.456   0.002  1.2553  0.0356  1.6980
15666TIP3   OH268412   0.731   1.765   1.107  0.2428 -0.3923  0.0980
15666TIP3    H168413   0.735   1.860   1.113 -0.2159 -0.3227 -0.6083
15666TIP3    H268414   0.666   1.748   1.039 -0.8056 -1.2349  1.2867
15667TIP3   OH268415   4.740   0.861   5.953  0.4218 -0.6678 -0.7311
15667TIP3    H168416   4.722   0.774   5.917 -0.3400 -0.6387 -0.4441
15667TIP3    H268417   4.766   0.914   5.878 -1.0471 -0.6326 -1.2430
15668TIP3   OH268418   5.627   1.100  17.129 -0.2504  0.2226  0.5479
15668TIP3    H168419   5.680   1.061  17.060  1.2347  2.4774  0.3542
15668TIP3    H268420   5.545   1.125  17.086  0.4084  1.0154 -0.2610
15669TIP3   OH268421   1.963   6.597  11.601  0.5478 -0.4562  0.0819
15669TIP3    H168422   2.006   6.647  11.532 -1.6596  0.7648 -0.4782
15669TIP3    H268423   1.973   6.506  11.574  0.3782 -0.0371 -1.4854
15670TIP3   OH268424   2.784   3.415   0.085 -0.3806 -0.2664  0.4321
15670TIP3    H168425   2.857   3.476   0.097 -0.0903 -0.2876 -1.2099
15670TIP3    H268426   2.718   3.444   0.148  0.9240 -0.0823  1.7448
15671TIP3   OH268427   3.410   5.950  14.378 -0.4294  0.3291 -0.1988
15671TIP3    H168428   3.429   5.973  14.287 -1.1641 -1.9206 -0.9512
15671TIP3    H268429   3.316   5.962  14.387 -0.7896 -1.9812 -0.5330
15672TIP3   OH268430   3.841   1.710  15.787 -0.1439  0.2733 -0.2879
15672TIP3    H168431   3.909   1.705  15.855  0.8927  1.7586 -1.1931
15672TIP3    H268432   3.882   1.672  15.709 -0.5929  0.5693 -0.6672
15673TIP3   OH268433   3.549   2.232  14.971  0.1059  0.2873 -0.4240
15673TIP3    H168434   3.574   2.179  15.047  1.2995  0.8911 -0.3887
15673TIP3    H268435   3.454   2.238  14.977  0.0515 -1.0245  0.1232
15674TIP3   OH268436   0.704   6.023  14.281 -0.3248 -0.1681 -0.0682
15674TIP3    H168437   0.773   6.088  14.298  1.5909 -1.8555 -1.1682
15674TIP3    H268438   0.727   5.948  14.336  0.7816 -2.1109 -3.0368
15675TIP3   OH268439   4.733   0.678   5.093 -0.1200 -0.1242 -0.2228
15675TIP3    H168440   4.661   0.703   5.037  0.1888 -0.4104 -0.7495
15675TIP3    H268441   4.715   0.587   5.116 -0.6363  0.2164  0.7475
15676TIP3   OH268442   6.631   5.865   5.732 -0.1641 -0.6522  0.1052
15676TIP3    H168443   6.577   5.944   5.732  1.6860  0.6435  0.6066
15676TIP3    H268444   6.697   5.881   5.800  1.7203 -1.6013 -1.4522
15677TIP3   OH268445   0.226   0.145  13.292 -0.0929  0.0961  0.0805
15677TIP3    H168446   0.281   0.187  13.359 -0.9594 -0.5692  1.2310
15677TIP3    H268447   0.212   0.213  13.226 -0.2431  1.1588  1.1949
15678TIP3   OH268448   2.753   1.710  13.414  0.4650 -0.2001  0.4857
15678TIP3    H168449   2.818   1.678  13.476  0.5624 -1.1725 -0.1036
15678TIP3    H268450   2.691   1.638  13.404 -0.9638  0.8728  1.3749
15679TIP3   OH268451   4.851   4.202   3.690  0.0786 -0.3942 -0.1561
15679TIP3    H168452   4.844   4.220   3.596  1.1161  1.0569  0.0147
15679TIP3    H268453   4.940   4.169   3.701  0.5980  1.1887  0.5535
15680TIP3   OH268454   4.337   3.183  14.619 -0.3652 -0.2064 -0.4732
15680TIP3    H168455   4.365   3.211  14.532  0.4428 -0.1096 -0.1830
15680TIP3    H268456   4.358   3.257  14.676 -1.9906  0.2224 -0.3794
15681TIP3   OH268457   6.697   0.184   3.588 -0.6110  0.1232  0.2052
15681TIP3    H168458   6.708   0.124   3.663 -1.6518  1.5459  1.5277
15681TIP3    H268459   6.612   0.161   3.552 -0.0060 -0.7201 -0.7050
15682TIP3   OH268460   6.362   5.766  10.291 -0.4570  0.4398  0.4329
15682TIP3    H168461   6.278   5.725  10.270 -0.0268 -0.5415  0.6294
15682TIP3    H268462   6.412   5.698  10.335 -0.2157  1.5510  1.9307
15683TIP3   OH268463   1.850   3.005  12.289  0.0225 -0.0730 -0.0421
15683TIP3    H168464   1.835   3.098  12.301  1.3221  0.1771 -0.2252
15683TIP3    H268465   1.914   2.982  12.357 -1.0751 -1.0512  0.6679
15684TIP3   OH268466   4.630   3.458   3.865  0.6047  0.3829 -0.2537
15684TIP3    H168467   4.608   3.417   3.949  1.9964  1.1990  0.5250
15684TIP3    H268468   4.663   3.544   3.888  1.5629  0.3918 -1.6126
15685TIP3   OH268469   5.173   0.309  16.510 -0.4845 -0.6650 -0.2908
15685TIP3    H168470   5.188   0.385  16.454 -1.1871 -0.3150 -0.0189
15685TIP3    H268471   5.155   0.237  16.449  2.4624 -1.1673 -0.6401
15686TIP3   OH268472   0.230   1.331  11.555 -0.6694  0.0872  0.8997
15686TIP3    H168473   0.258   1.412  11.597  2.1117  0.9606 -2.4234
15686TIP3    H268474   0.141   1.350  11.524 -0.8306  1.1134  1.9360
15687TIP3   OH268475   0.780   0.685   0.146 -0.0616 -0.2971 -0.9687
15687TIP3    H168476   0.716   0.613   0.145  1.4222 -1.6287 -2.0302
15687TIP3    H268477   0.755   0.740   0.071  0.6318 -1.3584 -1.9904
15688TIP3   OH268478   1.334   3.259  11.027 -0.3127 -0.2853  0.7801
15688TIP3    H168479   1.352   3.289  10.938 -1.4778 -0.1047  0.6069
15688TIP3    H268480   1.254   3.305  11.053  0.2274 -0.0424  2.0606
15689TIP3   OH268481   4.614   3.161  12.942 -0.5713  0.0349  0.1284
15689TIP3    H168482   4.644   3.163  12.851  0.3707 -0.0112  0.4251
15689TIP3    H268483   4.689   3.194  12.992 -1.7647  1.9028  0.7080
15690TIP3   OH268484   6.394   1.713   1.239  0.2332 -0.4396  0.1912
15690TIP3    H168485   6.314   1.754   1.274  0.7924 -0.5467  1.6363
15690TIP3    H268486   6.459   1.783   1.241  0.9144 -1.0911  1.6797
15691TIP3   OH268487   0.567   0.159   0.378 -0.3878 -0.5060  0.1190
15691TIP3    H168488   0.619   0.199   0.308  2.1125 -1.8538  1.1367
15691TIP3    H268489   0.626   0.096   0.418 -2.9839 -2.3788  1.1055
15692TIP3   OH268490   6.302   1.672   5.398  0.3955  0.5057 -0.0418
15692TIP3    H168491   6.331   1.762   5.388 -0.4212  0.7184 -0.4966
15692TIP3    H268492   6.274   1.646   5.310  1.7657 -0.5894 -0.1796
15693TIP3   OH268493   1.647   1.887   3.735 -0.3161 -0.3186 -0.0959
15693TIP3    H168494   1.567   1.856   3.691  0.3337 -2.6723  0.3326
15693TIP3    H268495   1.621   1.900   3.826 -0.2686 -0.9580  0.0154
15694TIP3   OH268496   6.198   1.258  11.714 -0.7876  0.1599 -0.2127
15694TIP3    H168497   6.183   1.300  11.630 -0.1320 -1.3176 -1.0959
15694TIP3    H268498   6.292   1.241  11.716 -0.5716  1.4304  1.4302
15695TIP3   OH268499   4.204   5.521   2.668  0.3476  0.0648 -0.3815
15695TIP3    H168500   4.165   5.467   2.736  0.0189 -1.5015 -1.7931
15695TIP3    H268501   4.131   5.572   2.632  0.1267 -0.7213 -1.0473
15696TIP3   OH268502   0.755   2.848  11.411  0.6323  0.0708  0.1104
15696TIP3    H168503   0.766   2.776  11.473 -0.9173 -1.1656 -1.0267
15696TIP3    H268504   0.662   2.849  11.389  0.7346  2.0104 -0.4017
15697TIP3   OH268505   1.953   6.650   1.936 -0.0188  0.7265  0.3022
15697TIP3    H168506   1.910   6.568   1.909 -1.1460  1.6857 -0.9218
15697TIP3    H268507   2.038   6.623   1.971  1.5656 -0.7135 -4.1949
15698TIP3   OH268508   3.910   6.445  13.784  0.0720  0.0285  0.3312
15698TIP3    H168509   3.941   6.424  13.872 -0.0331  2.3081  0.9541
15698TIP3    H268510   3.976   6.408  13.725  0.8042 -0.3943  1.4052
15699TIP3   OH268511   1.421   2.001   3.126 -0.0347  0.0612 -0.1604
15699TIP3    H168512   1.506   2.038   3.100 -0.2280  0.6811  0.0761
15699TIP3    H268513   1.443   1.920   3.171  0.4418  0.2705 -0.0100
15700TIP3   OH268514   2.922   5.716  16.572 -0.2440 -0.0936 -0.5502
15700TIP3    H168515   2.947   5.631  16.535  0.0986 -0.7359  1.1097
15700TIP3    H268516   2.868   5.694  16.648  1.0942  1.1391  0.7734
15701TIP3   OH268517   2.609   2.388  11.459  0.2306  0.0683 -0.3240
15701TIP3    H168518   2.666   2.462  11.482  0.0687 -0.3648  1.4639
15701TIP3    H268519   2.521   2.425  11.459  0.3627  0.4128 -1.7396
15702TIP3   OH268520   0.237   0.321  11.500 -0.2069 -0.0216  0.1324
15702TIP3    H168521   0.157   0.374  11.498 -0.1260  0.0701 -1.6009
15702TIP3    H268522   0.267   0.320  11.409  0.9307 -1.3253  0.5054
15703TIP3   OH268523   1.447   5.792   3.633  0.0105 -0.2282  0.1845
15703TIP3    H168524   1.472   5.704   3.605  0.6722  0.2366 -0.7223
15703TIP3    H268525   1.402   5.779   3.717  1.3020 -1.2870  0.7257
15704TIP3   OH268526   2.770   3.310   0.662  0.7795  0.0615  0.4277
15704TIP3    H168527   2.810   3.265   0.736  1.0677  1.8884  1.4135
15704TIP3    H268528   2.807   3.266   0.585  2.8159  0.1040  1.3404
15705TIP3   OH268529   1.319   4.442  15.707  0.3527 -0.1523  0.3408
15705TIP3    H168530   1.312   4.350  15.732 -0.5023 -0.3914 -0.7850
15705TIP3    H268531   1.256   4.487  15.763  0.6678 -0.2675  0.7903
15706TIP3   OH268532   2.828   6.106  14.999  0.5091  0.5727  0.8639
15706TIP3    H168533   2.856   6.180  14.945  1.3599 -0.8070 -0.6343
15706TIP3    H268534   2.897   6.097  15.066  0.0026  1.6086  1.5353
15707TIP3   OH268535   5.998   5.775  15.023 -0.0064 -0.3076 -0.3942
15707TIP3    H168536   6.059   5.797  14.952 -0.7163  1.2560 -0.5284
15707TIP3    H268537   6.041   5.806  15.102 -1.0899  1.7944 -0.6017
15708TIP3   OH268538   2.822   0.591  12.345  0.4073  0.1839  0.3215
15708TIP3    H168539   2.853   0.500  12.336  1.0351  0.3965  0.3239
15708TIP3    H268540   2.878   0.641  12.286  1.0920  0.8052  1.4894
15709TIP3   OH268541   5.230   4.157  14.291  0.0380  0.1083  0.4277
15709TIP3    H168542   5.306   4.132  14.343  0.0741  1.0450  0.8296
15709TIP3    H268543   5.267   4.190  14.209  0.0208 -0.3493  0.2320
15710TIP3   OH268544   6.636   0.531  10.937 -0.3380 -0.1341 -0.6372
15710TIP3    H168545   6.685   0.465  10.887  0.5194  0.4043 -0.5017
15710TIP3    H268546   6.682   0.537  11.020 -0.0238  1.1065 -0.8904
15711TIP3   OH268547   5.012   1.793   2.855  0.1578  0.6402 -0.0835
15711TIP3    H168548   5.085   1.743   2.892  0.7892  1.2587 -0.4800
15711TIP3    H268549   5.006   1.871   2.911  0.3440  1.0009 -0.5722
15712TIP3   OH268550   1.902   5.494   2.189 -0.2824 -0.2608  0.0080
15712TIP3    H168551   1.864   5.537   2.113  0.2468 -0.4529 -0.3646
15712TIP3    H268552   1.949   5.418   2.154 -0.8093 -0.8764  0.6124
15713TIP3   OH268553   0.291   0.656  12.708  0.1492 -1.2355  0.5770
15713TIP3    H168554   0.336   0.577  12.677  0.6092 -0.3556 -1.0209
15713TIP3    H268555   0.354   0.727  12.695 -1.1787 -0.2076 -0.4252
15714TIP3   OH268556   4.949   3.382   4.961  0.2599  0.0989 -0.2289
15714TIP3    H168557   4.946   3.477   4.973 -1.3984 -0.0407  0.5621
15714TIP3    H268558   4.984   3.348   5.043 -1.3707 -0.1306  0.3839
15715TIP3   OH268559   1.592   4.474  13.353  0.4289  0.4384  0.8719
15715TIP3    H168560   1.523   4.515  13.301  0.4209 -0.2869  0.2855
15715TIP3    H268561   1.659   4.450  13.289  0.4288 -0.4536  1.1879
15716TIP3   OH268562   1.182   3.866  11.103 -0.2381  0.1594  0.3522
15716TIP3    H168563   1.184   3.957  11.074  3.0186 -0.3873 -1.3668
15716TIP3    H268564   1.252   3.860  11.168  1.3588 -1.6931 -1.4725
15717TIP3   OH268565   5.253   4.946   5.569  0.3122  0.1556  0.0667
15717TIP3    H168566   5.301   4.864   5.558  0.0949 -0.4812  3.2809
15717TIP3    H268567   5.321   5.014   5.571  0.5280  0.0283 -2.0958
15718TIP3   OH268568   6.707   6.536  17.057  0.2338 -0.9142 -0.2266
15718TIP3    H168569   6.795   6.571  17.044  0.5248 -0.9549  1.5251
15718TIP3    H268570   6.671   6.587  17.130 -0.8415 -1.5396 -0.3088
15719TIP3   OH268571   4.705   4.446   3.720 -0.2680  0.9004  0.0481
15719TIP3    H168572   4.737   4.358   3.737  1.7225  1.1448 -2.2080
15719TIP3    H268573   4.610   4.436   3.712  0.0013 -1.1386 -0.7920
15720TIP3   OH268574   1.475   0.366  11.210 -0.3780 -0.7903 -0.2500
15720TIP3    H168575   1.406   0.303  11.232 -0.2191 -1.5222 -1.8179
15720TIP3    H268576   1.440   0.414  11.136 -0.6297  1.2135  1.1270
15721TIP3   OH268577   0.797   6.657   4.583 -0.5430  0.6515  0.7320
15721TIP3    H168578   0.865   6.603   4.544 -1.4574  0.5852 -0.7935
15721TIP3    H268579   0.812   6.650   4.678  0.4092 -0.8708  0.4819
15722TIP3   OH268580   1.223   1.716   6.872  0.1331 -0.0952 -0.4914
15722TIP3    H168581   1.315   1.742   6.868 -0.2924  1.1284 -2.6451
15722TIP3    H268582   1.174   1.796   6.853 -1.3691 -0.9138 -0.1313
15723TIP3   OH268583   4.924   0.639  15.568  0.2291  0.2582  0.3662
15723TIP3    H168584   4.881   0.586  15.501  0.0276 -1.2290  1.6416
15723TIP3    H268585   5.012   0.602  15.576 -0.4492 -0.9795  2.4167
15724TIP3   OH268586   0.627   3.189   1.234 -0.1504  0.4751  0.0439
15724TIP3    H168587   0.591   3.104   1.208 -0.4462  0.3744  0.7724
15724TIP3    H268588   0.651   3.177   1.326 -0.5294  1.2890  0.2501
15725TIP3   OH268589   2.805   0.472  16.397 -0.4072  0.0291 -0.4104
15725TIP3    H168590   2.768   0.387  16.373  1.0680 -0.5603 -0.6961
15725TIP3    H268591   2.849   0.457  16.480 -1.8075  1.0118  0.5213
15726TIP3   OH268592   2.955   5.683   2.491 -0.5342 -0.0745 -0.0463
15726TIP3    H168593   2.869   5.653   2.520 -0.8174 -0.5493 -1.3739
15726TIP3    H268594   2.944   5.701   2.398 -0.0509  2.9191  0.4020
15727TIP3   OH268595   6.729   0.975  13.949 -0.6887 -0.1057  0.5039
15727TIP3    H168596   6.688   0.979  14.036  1.7074 -0.7453  1.7090
15727TIP3    H268597   6.755   1.065  13.930 -0.0026 -0.1719  1.0830
15728TIP3   OH268598   3.359   0.227   0.227  0.0837  0.3169 -0.2414
15728TIP3    H168599   3.265   0.233   0.244  0.0401 -1.0482 -0.0038
15728TIP3    H268600   3.394   0.310   0.259 -1.1671  1.2777 -1.2721
15729TIP3   OH268601   6.098   4.377  11.529  0.1859  0.3080 -0.0389
15729TIP3    H168602   6.160   4.449  11.538 -0.1985  0.5823  0.4453
15729TIP3    H268603   6.136   4.320  11.462  1.8003 -0.4170  1.4635
15730TIP3   OH268604   2.822   3.662  15.028  0.4542 -0.2616  1.0731
15730TIP3    H168605   2.775   3.599  15.083  2.3013 -2.7708 -0.1349
15730TIP3    H268606   2.914   3.648  15.048  0.8999  2.2804  0.9740
15731TIP3   OH268607   0.089   6.688  13.147 -0.2918 -0.4460 -0.4624
15731TIP3    H168608   0.083   6.736  13.229 -0.1902 -0.0796 -0.6693
15731TIP3    H268609   0.176   6.650  13.147 -1.0311 -2.1979  0.5638
15732TIP3   OH268610   6.384   2.969   0.133 -0.3503  0.9225  1.3593
15732TIP3    H168611   6.434   3.051   0.130 -0.7665  1.1402  0.1461
15732TIP3    H268612   6.337   2.966   0.049  1.1674 -1.5053  0.5334
15733TIP3   OH268613   6.178   4.340  13.253 -0.0908  0.2145  0.2866
15733TIP3    H168614   6.137   4.367  13.171 -1.4040 -0.4287  0.7213
15733TIP3    H268615   6.126   4.383  13.321  0.8341  0.5423  0.8001
15734TIP3   OH268616   3.355   2.349   3.446  0.4387 -0.1062  0.1571
15734TIP3    H168617   3.273   2.311   3.416 -0.1400  1.9186 -0.9175
15734TIP3    H268618   3.329   2.418   3.507  1.4335 -0.8335  1.4421
15735TIP3   OH268619   5.003   1.209   1.029  0.4497 -0.7315  0.5402
15735TIP3    H168620   5.076   1.241   1.082  0.2380  2.3933 -0.9400
15735TIP3    H268621   5.043   1.170   0.952  0.6299  0.1619  0.1688
15736TIP3   OH268622   0.964   5.027  14.243 -0.0238 -0.6300 -0.5744
15736TIP3    H168623   1.023   4.956  14.270  1.6895  1.2946  0.9038
15736TIP3    H268624   0.992   5.102  14.295 -3.0479  0.6606 -0.7074
15737TIP3   OH268625   0.996   3.648   3.316  0.4924 -0.2349 -0.3665
15737TIP3    H168626   1.052   3.720   3.345 -0.5608  0.3334  0.2644
15737TIP3    H268627   1.057   3.579   3.291  1.4621  0.0200  1.2542
15738TIP3   OH268628   0.148   6.077  13.682 -0.3501  0.0475 -0.4935
15738TIP3    H168629   0.075   6.095  13.622 -0.6501  0.9217  0.1085
15738TIP3    H268630   0.126   6.128  13.761  0.1245 -0.9445  0.2850
15739TIP3   OH268631   3.242   3.650   6.185  0.4428  0.1137  0.0863
15739TIP3    H168632   3.264   3.557   6.195  0.7437 -0.0663 -2.0255
15739TIP3    H268633   3.283   3.675   6.102  0.7619  2.2584  0.8847
15740TIP3   OH268634   3.088   6.196   3.962  0.3984 -0.0921  0.3504
15740TIP3    H168635   3.020   6.243   4.010 -0.8964 -0.6634 -0.8915
15740TIP3    H268636   3.170   6.227   4.000 -0.4759  2.2398  0.3765
15741TIP3   OH268637   3.220   3.488  16.725 -0.3731 -0.0121  0.4395
15741TIP3    H168638   3.198   3.432  16.650 -1.3244 -0.1885  0.8495
15741TIP3    H268639   3.248   3.426  16.793  1.6823  0.2219 -0.1665
15742TIP3   OH268640   6.173   4.711   2.456  0.0732 -0.0056  0.1647
15742TIP3    H168641   6.154   4.797   2.494  2.1602 -0.0223  1.3395
15742TIP3    H268642   6.135   4.715   2.368 -0.1969  1.9846  0.3385
15743TIP3   OH268643   3.485   3.032  16.086  0.6111 -0.5806 -0.2860
15743TIP3    H168644   3.512   3.092  16.155 -0.4568 -0.6017  0.1668
15743TIP3    H268645   3.527   2.949  16.107  0.4008 -0.5469  0.2650
15744TIP3   OH268646   5.742   2.055   5.575  0.4650 -0.4284 -0.2504
15744TIP3    H168647   5.699   2.027   5.494  0.9469  1.0653 -1.0437
15744TIP3    H268648   5.798   1.982   5.600 -1.2851 -1.7571 -0.0916
15745TIP3   OH268649   2.706   5.231   4.489 -0.3454  0.2277 -0.1511
15745TIP3    H168650   2.623   5.266   4.522  0.3172  1.3067  0.3933
15745TIP3    H268651   2.707   5.254   4.397 -1.0912 -0.6566 -0.3925
15746TIP3   OH268652   4.567   4.903   2.819  0.3908  0.4094 -0.1039
15746TIP3    H168653   4.529   4.816   2.831  0.9799  0.1766  0.1071
15746TIP3    H268654   4.527   4.936   2.739 -1.1336  0.6535  0.7519
15747TIP3   OH268655   2.895   5.351   1.156 -0.5876  0.0635 -0.2133
15747TIP3    H168656   2.811   5.392   1.176 -1.2490 -1.5907  0.4364
15747TIP3    H268657   2.880   5.257   1.167  0.7831 -0.4161 -2.1803
15748TIP3   OH268658   1.580   3.489  12.336 -0.1189  0.3700  0.1152
15748TIP3    H168659   1.555   3.568  12.385 -0.0561  1.8734 -2.2002
15748TIP3    H268660   1.528   3.419  12.375 -0.4982  1.6353  1.9339
15749TIP3   OH268661   5.334   3.788   6.394  0.2714  0.4016 -0.1537
15749TIP3    H168662   5.408   3.798   6.453 -0.1565  1.6911  0.1833
15749TIP3    H268663   5.282   3.717   6.432  0.0550  1.1542  0.9623
15750TIP3   OH268664   2.804   1.926  15.903  0.0889  0.0087  0.9176
15750TIP3    H168665   2.848   1.974  15.973 -0.0381 -0.4911  1.3389
15750TIP3    H268666   2.797   1.836  15.935 -0.0107 -0.2132  0.2846
15751TIP3   OH268667   6.092   0.395   0.746  0.4600 -0.5701 -0.7002
15751TIP3    H168668   6.031   0.322   0.761 -1.0535  0.5421 -1.3198
15751TIP3    H268669   6.173   0.368   0.789 -1.2131 -1.0092  2.2522
15752TIP3   OH268670   2.334   5.277   5.630  0.1245 -0.6817 -0.4392
15752TIP3    H168671   2.288   5.204   5.589  0.3729  0.5426 -2.9749
15752TIP3    H268672   2.386   5.315   5.559 -0.2401  2.1570  0.7623
15753TIP3   OH268673   4.558   4.265  16.154  0.3831 -0.1953  0.2232
15753TIP3    H168674   4.590   4.183  16.115  0.1287  0.3133 -1.0949
15753TIP3    H268675   4.634   4.323  16.152 -0.0665  0.3680 -1.0680
15754TIP3   OH268676   6.154   2.485  13.401 -0.4836 -0.6475 -0.2046
15754TIP3    H168677   6.208   2.499  13.479 -0.6379  0.5615 -0.3129
15754TIP3    H268678   6.193   2.408  13.358  0.4531 -0.4644  0.3191
15755TIP3   OH268679   1.915   1.497   4.006  0.1499  0.2310 -0.5250
15755TIP3    H168680   1.991   1.458   3.963 -1.2927 -0.7090 -2.2952
15755TIP3    H268681   1.871   1.547   3.938 -1.2727  0.0715  0.2533
15756TIP3   OH268682   3.804   5.318  10.816  0.1015 -0.2953 -0.2727
15756TIP3    H168683   3.737   5.368  10.862  0.1033 -0.3571 -0.2029
15756TIP3    H268684   3.867   5.384  10.787  1.1669 -0.4584  1.5938
15757TIP3   OH268685   2.882   1.764   4.843  0.2178  0.1870 -1.0900
15757TIP3    H168686   2.931   1.832   4.797  0.6899  0.1153 -0.6979
15757TIP3    H268687   2.811   1.740   4.783 -1.2669  2.5538 -0.3698
15758TIP3   OH268688   3.805   2.782  16.662  0.3144  0.2640 -0.2995
15758TIP3    H168689   3.741   2.814  16.599 -1.1808  0.4665  1.3060
15758TIP3    H268690   3.826   2.859  16.716 -0.7035 -0.6027  1.3736
15759TIP3   OH268691   5.293   4.280  15.155  0.1495 -0.3030  0.0078
15759TIP3    H168692   5.282   4.209  15.091 -0.1666 -0.6043  0.3957
15759TIP3    H268693   5.232   4.258  15.226  0.4329  0.0813  0.3689
15760TIP3   OH268694   2.379   4.369  13.098 -0.6050  0.6364  0.6139
15760TIP3    H168695   2.409   4.362  13.189  0.3630 -0.8604  0.2033
15760TIP3    H268696   2.456   4.396  13.049 -0.8355  0.3211  0.0748
15761TIP3   OH268697   0.040   5.748   3.397  0.5262  0.4120  0.1103
15761TIP3    H168698   0.027   5.822   3.337  0.1289  2.4338  2.6108
15761TIP3    H268699   0.075   5.788   3.477 -0.9926 -1.9094  1.9874
15762TIP3   OH268700   5.403   3.992  15.763 -0.9176  0.5868 -0.1020
15762TIP3    H168701   5.476   4.052  15.775  0.7323 -1.5292  1.0193
15762TIP3    H268702   5.342   4.014  15.834 -1.1835  2.0867 -0.7829
15763TIP3   OH268703   0.954   0.438  15.122 -0.1345  0.7776  0.2453
15763TIP3    H168704   1.039   0.399  15.098  0.4816  2.4692 -0.4055
15763TIP3    H268705   0.890   0.372  15.097  1.0842 -1.3990  2.5793
15764TIP3   OH268706   0.814   1.218  11.496  0.3004 -0.4650 -0.6223
15764TIP3    H168707   0.814   1.307  11.530  0.0503 -1.2194  1.4581
15764TIP3    H268708   0.825   1.228  11.402  0.1608  1.7598 -0.4317
15765TIP3   OH268709   5.374   1.187   5.498  0.0144  0.1172 -0.9215
15765TIP3    H168710   5.396   1.270   5.456 -0.5125  0.2619 -0.9063
15765TIP3    H268711   5.371   1.124   5.426 -1.9530  0.5683 -1.2604
15766TIP3   OH268712   1.187   0.999  15.805  0.0730  0.3372 -0.0590
15766TIP3    H168713   1.154   0.914  15.776 -1.2052  0.3981  1.1716
15766TIP3    H268714   1.282   0.994  15.794  0.0212 -1.3312  0.2564
15767TIP3   OH268715   2.724   3.966  14.437 -0.4886 -0.3899  0.1296
15767TIP3    H168716   2.799   3.977  14.494 -0.6924  0.9035  0.1543
15767TIP3    H268717   2.648   3.974  14.494 -0.7162  1.8728 -0.4506
15768TIP3   OH268718   0.170   5.906  13.921 -0.4195  0.1354  0.5392
15768TIP3    H168719   0.132   5.941  13.841 -0.8600 -0.1239  0.6306
15768TIP3    H268720   0.124   5.823  13.935 -0.4503  0.2495  1.1363
15769TIP3   OH268721   1.755   5.317   0.923 -0.3208 -0.1993  0.3401
15769TIP3    H168722   1.793   5.328   0.837  0.0162  0.4163  0.5661
15769TIP3    H268723   1.830   5.313   0.983 -0.4792 -2.3780  0.4169
15770TIP3   OH268724   2.094   6.713   2.733  0.5646  0.0790  0.6658
15770TIP3    H168725   2.162   6.676   2.676 -1.4062  0.0389 -1.7235
15770TIP3    H268726   2.106   6.808   2.727  0.0690  0.0898 -0.1982
15771TIP3   OH268727   4.461   6.544   2.579  0.4405  0.4980  0.5491
15771TIP3    H168728   4.518   6.541   2.503 -1.3429  0.6716 -0.8218
15771TIP3    H268729   4.424   6.456   2.586  0.8246  0.3953  1.3972
15772TIP3   OH268730   4.490   4.430  15.392 -0.0347 -0.2640  0.0870
15772TIP3    H168731   4.397   4.410  15.408 -0.4374  1.2062 -0.3390
15772TIP3    H268732   4.513   4.491  15.462  0.4349 -0.1024 -0.2096
15773TIP3   OH268733   2.393   2.664   2.766 -0.2972 -0.1974 -0.0582
15773TIP3    H168734   2.353   2.585   2.731 -1.3935 -0.0669  0.8544
15773TIP3    H268735   2.319   2.717   2.796  0.4861  0.6884  0.3434
15774TIP3   OH268736   6.399   6.574   1.622 -0.2388 -0.1760  0.1073
15774TIP3    H168737   6.351   6.558   1.704 -1.4103 -0.7822 -0.6825
15774TIP3    H268738   6.430   6.488   1.595  0.8727  0.1448  0.3443
15775TIP3   OH268739   0.334   6.265   0.507 -0.2317  0.0735  0.1119
15775TIP3    H168740   0.350   6.297   0.419 -0.8807  3.9233  1.2823
15775TIP3    H268741   0.239   6.251   0.511 -0.0562 -1.1926 -0.1413
15776TIP3   OH268742   5.230   0.544   3.011 -0.5032 -0.1821  0.2744
15776TIP3    H168743   5.204   0.469   2.958  1.5500 -2.4827  2.3986
15776TIP3    H268744   5.321   0.562   2.985  0.2814 -0.8700  2.3715
15777TIP3   OH268745   4.099   4.531  15.241  0.5848  0.7001 -0.3066
15777TIP3    H168746   4.003   4.527  15.249  0.5775  1.3089 -0.0356
15777TIP3    H268747   4.115   4.599  15.175  0.8143  0.0930 -0.8791
15778TIP3   OH268748   6.635   3.919  14.295  0.0312 -0.7975  0.6543
15778TIP3    H168749   6.553   3.952  14.332  0.1638  0.3381 -0.0684
15778TIP3    H268750   6.608   3.866  14.220  0.0947  1.6004 -1.0790
15779TIP3   OH268751   0.846   0.150   0.614 -0.2442 -0.0845  0.3490
15779TIP3    H168752   0.836   0.087   0.543 -0.4726 -0.5255  0.7689
15779TIP3    H268753   0.862   0.233   0.571 -2.4284  0.0397 -0.2594
15780TIP3   OH268754   1.821   5.660  11.242  0.5797 -0.3071 -0.1597
15780TIP3    H168755   1.801   5.703  11.158  0.9359 -0.3754 -0.2785
15780TIP3    H268756   1.797   5.569  11.229 -0.4992 -0.0896  0.2036
15781TIP3   OH268757   4.862   3.777   0.368 -0.2522 -0.5713  0.1983
15781TIP3    H168758   4.772   3.793   0.339  0.1821  0.4591 -0.5993
15781TIP3    H268759   4.916   3.825   0.306  0.8307 -0.7314  1.0110
15782TIP3   OH268760   6.184   1.793  13.380  0.1276 -0.0794 -0.4553
15782TIP3    H168761   6.173   1.701  13.356  0.1124  0.3042 -2.0069
15782TIP3    H268762   6.095   1.829  13.373  0.4853  0.5270 -1.9868
15783TIP3   OH268763   3.301   5.894   5.648  0.0132 -0.0859 -0.0826
15783TIP3    H168764   3.396   5.890   5.661  0.3799 -0.5679 -2.6472
15783TIP3    H268765   3.276   5.805   5.624 -0.4152  0.8575 -3.4337
15784TIP3   OH268766   6.729   0.719   3.836  0.1768 -0.3685  0.3910
15784TIP3    H168767   6.673   0.685   3.905  0.6658 -0.2780  0.8407
15784TIP3    H268768   6.716   0.660   3.763 -0.6254 -0.2540  0.4369
15785TIP3   OH268769   5.669   0.082   3.455 -0.1249 -0.0873 -0.0335
15785TIP3    H168770   5.662   0.048   3.366  1.4537 -0.4239 -0.0494
15785TIP3    H268771   5.651   0.175   3.447  0.5096 -0.0257 -0.7901
15786TIP3   OH268772   4.486   5.131  11.013  0.0700  0.0312  0.0260
15786TIP3    H168773   4.553   5.177  11.063  1.6501 -2.1334 -0.0519
15786TIP3    H268774   4.519   5.131  10.923 -0.2202 -0.6967 -0.0827
15787TIP3   OH268775   3.860   4.402  14.123 -0.5020 -0.9744 -0.7351
15787TIP3    H168776   3.780   4.453  14.136  0.4765  0.4231 -0.0685
15787TIP3    H268777   3.874   4.403  14.028 -1.7479 -2.0054 -0.9535
15788TIP3   OH268778   6.311   3.248  15.823  0.4884  0.1325 -0.1102
15788TIP3    H168779   6.356   3.245  15.907  1.3843  0.7185 -0.5576
15788TIP3    H268780   6.218   3.245  15.845  0.7109  0.4831  0.9056
15789TIP3   OH268781   5.910   3.872  16.589 -0.3672 -0.7031  0.0283
15789TIP3    H168782   5.865   3.944  16.544  2.8549  1.0276 -0.5473
15789TIP3    H268783   5.890   3.795  16.537 -2.6333 -0.0050 -0.2091
15790TIP3   OH268784   1.027   5.592  13.417  0.5906  0.1727 -0.2575
15790TIP3    H168785   1.017   5.573  13.510  1.7629 -1.9585 -0.5365
15790TIP3    H268786   0.946   5.560  13.377  0.6939 -0.2295 -0.1482
15791TIP3   OH268787   6.272   1.143  16.630 -0.1377 -0.0056  0.3045
15791TIP3    H168788   6.312   1.219  16.672 -1.8369  0.1019  1.8167
15791TIP3    H268789   6.237   1.176  16.547 -0.0837  0.6629  0.5448
15792TIP3   OH268790   1.572   1.775  16.151 -0.3172 -0.5303 -0.1245
15792TIP3    H168791   1.558   1.687  16.184  1.3110 -0.4498  0.8163
15792TIP3    H268792   1.652   1.770  16.099  0.4195  0.6165  0.8699
15793TIP3   OH268793   2.982   0.027  13.774  0.4519  0.5477 -0.0961
15793TIP3    H168794   2.904  -0.026  13.754  1.0094  0.7062 -2.9751
15793TIP3    H268795   2.947   0.106  13.816 -0.8356  0.0749 -0.2465
15794TIP3   OH268796   1.237   3.736  17.101  0.3797  0.3949  0.0870
15794TIP3    H168797   1.274   3.720  17.188 -1.4064 -0.8305  0.6499
15794TIP3    H268798   1.166   3.798  17.116 -0.8585 -0.9151 -0.2734
15795TIP3   OH268799   2.177   1.620   3.258  0.1357 -0.5423 -0.6779
15795TIP3    H168800   2.248   1.685   3.262  0.5722 -0.9296 -2.0303
15795TIP3    H268801   2.197   1.560   3.330  1.3599 -0.8156 -1.2229
15796TIP3   OH268802   2.132   0.010   5.394  0.0290  0.0760  0.3283
15796TIP3    H168803   2.190   0.085   5.384 -0.7749  0.6828  0.1216
15796TIP3    H268804   2.116   0.003   5.488  1.4839 -0.9065  0.5076
15797TIP3   OH268805   0.467   5.307   4.038 -0.1818  0.4022  0.3437
15797TIP3    H168806   0.401   5.241   4.057 -1.6170  2.2053  1.7815
15797TIP3    H268807   0.546   5.275   4.080 -1.0381 -0.0664  1.6197
15798TIP3   OH268808   4.238   2.524  17.160  0.3114  0.1406  0.3118
15798TIP3    H168809   4.288   2.462  17.107  0.7699  1.2171 -0.5195
15798TIP3    H268810   4.261   2.501  17.251 -0.7013 -1.8882  0.0936
15799TIP3   OH268811   5.569   4.201   1.677 -0.3359  0.1355 -0.0318
15799TIP3    H168812   5.661   4.198   1.702 -0.4781  2.5682  0.9638
15799TIP3    H268813   5.524   4.151   1.745  0.0143  1.0216  0.8682
15800TIP3   OH268814   5.134   5.485  14.753 -0.2677  0.2625  0.2924
15800TIP3    H168815   5.109   5.569  14.791  2.2654  0.6194  1.2672
15800TIP3    H268816   5.169   5.434  14.827  2.5007  0.0947 -1.0643
15801TIP3   OH268817   5.484   3.976   5.301  0.4383  0.6036  0.2474
15801TIP3    H168818   5.452   3.933   5.381  0.6884  0.6099  0.3511
15801TIP3    H268819   5.444   4.063   5.304  1.2909  0.9869  0.9174
15802TIP3   OH268820   1.443   4.211  14.624  0.6116  0.0245  0.0399
15802TIP3    H168821   1.384   4.231  14.552  1.4643 -0.4445 -0.7891
15802TIP3    H268822   1.435   4.116  14.636  0.3605  0.1190  0.6741
15803TIP3   OH268823   1.187   1.623  15.575  0.2850  0.1790 -0.6334
15803TIP3    H168824   1.133   1.681  15.629  0.1770 -0.9411  0.4756
15803TIP3    H268825   1.263   1.677  15.551  1.2532  0.1631  2.1874
15804TIP3   OH268826   3.706   3.617   0.893 -0.2836 -0.3508 -0.2342
15804TIP3    H168827   3.749   3.580   0.816 -2.4333 -0.0177 -1.6722
15804TIP3    H268828   3.703   3.711   0.875  0.5813 -0.0854  0.9953
15805TIP3   OH268829   5.680   0.180  11.841  0.0255 -0.1055  0.3134
15805TIP3    H168830   5.713   0.187  11.752  0.1298  1.5599  0.4605
15805TIP3    H268831   5.714   0.258  11.886 -1.6567  0.1347  1.2467
15806TIP3   OH268832   1.198   6.372   0.687 -0.1112 -0.4807 -0.4097
15806TIP3    H168833   1.222   6.412   0.770 -1.1070 -2.8447  1.0711
15806TIP3    H268834   1.281   6.348   0.646  0.3664  0.2422  0.1260
15807TIP3   OH268835   3.831   3.691  15.245 -0.2951  0.1821 -0.2529
15807TIP3    H168836   3.797   3.672  15.332 -0.1017 -1.2067 -0.4712
15807TIP3    H268837   3.755   3.722  15.196 -0.7234 -0.4761 -0.0124
15808TIP3   OH268838   0.302   1.150  11.925 -0.3753  0.6608  0.4733
15808TIP3    H168839   0.253   1.232  11.918 -2.6260 -0.5633  1.1006
15808TIP3    H268840   0.234   1.084  11.942  1.4294 -1.2608  0.3633
15809TIP3   OH268841   6.655   5.289   3.639  0.2770 -0.0037 -0.6419
15809TIP3    H168842   6.724   5.344   3.602  1.1004 -0.4764  0.1518
15809TIP3    H268843   6.699   5.241   3.710 -1.2999  1.0434  1.0710
15810TIP3   OH268844   6.641   2.499   1.420 -0.3787  0.5801  0.5801
15810TIP3    H168845   6.644   2.583   1.373 -0.3261 -0.4048 -1.2063
15810TIP3    H268846   6.648   2.433   1.352  1.2086 -0.8901  2.1275
15811TIP3   OH268847   0.492   1.200   1.260 -0.2658  0.2340 -0.2031
15811TIP3    H168848   0.433   1.166   1.328 -0.5899  0.8433 -0.1823
15811TIP3    H268849   0.438   1.208   1.182 -0.1996  0.7700 -0.1920
15812TIP3   OH268850   5.121   5.213   3.943  0.5358  0.0448 -0.4779
15812TIP3    H168851   5.169   5.174   3.871  0.2054 -1.0220 -0.1303
15812TIP3    H268852   5.132   5.151   4.016 -1.1503 -0.1121 -0.3243
15813TIP3   OH268853   6.342   1.058  15.635  0.4892 -0.3613 -0.0950
15813TIP3    H168854   6.341   0.967  15.608  1.6900 -0.2655 -0.5290
15813TIP3    H268855   6.291   1.061  15.716 -0.6741 -1.1697 -0.7985
15814TIP3   OH268856   0.800   3.246  14.839 -0.3386 -0.0940  0.3933
15814TIP3    H168857   0.778   3.169  14.786  0.0874  0.6193 -0.8271
15814TIP3    H268858   0.716   3.286  14.859 -0.6388 -1.3681  1.8079
15815TIP3   OH268859   5.656   4.639   4.856 -0.3966 -0.2953  0.9217
15815TIP3    H168860   5.720   4.579   4.896  0.4265 -0.4509 -0.5620
15815TIP3    H268861   5.700   4.724   4.858 -0.2576 -0.3478  0.1647
15816TIP3   OH268862   4.109   4.791  15.394  0.1771 -0.0926  0.3170
15816TIP3    H168863   4.160   4.823  15.319 -1.9372  1.8793 -0.3356
15816TIP3    H268864   4.047   4.729  15.357 -0.2469  0.1745  0.5764
15817TIP3   OH268865   1.774   1.446   0.357 -0.7383 -0.6295  0.1780
15817TIP3    H168866   1.704   1.455   0.293 -1.2602 -2.6358  0.4448
15817TIP3    H268867   1.738   1.483   0.438 -0.9613 -0.3307 -0.0607
15818TIP3   OH268868   0.100   0.919   1.637 -0.0060  0.2188  0.0016
15818TIP3    H168869   0.058   0.842   1.598  0.5249  0.3722 -0.8885
15818TIP3    H268870   0.182   0.927   1.590  1.7171 -0.9194  2.6884
15819TIP3   OH268871   3.791   0.979   0.952 -0.5976  0.1974 -0.4991
15819TIP3    H168872   3.753   0.924   1.020 -2.5119  1.7124 -0.2964
15819TIP3    H268873   3.716   1.019   0.908  0.6425  0.2273 -2.7037
15820TIP3   OH268874   2.386   4.755   5.394 -0.2172 -0.0930  0.2189
15820TIP3    H168875   2.475   4.737   5.364 -0.8754 -2.7326 -0.3007
15820TIP3    H268876   2.349   4.811   5.326  0.4487 -0.5568 -0.5417
15821TIP3   OH268877   5.289   4.891   0.335  0.2884 -0.4650 -0.2367
15821TIP3    H168878   5.260   4.808   0.297  0.4368 -1.7196  2.2409
15821TIP3    H268879   5.209   4.941   0.348  0.1251 -0.4916 -1.1336
15822TIP3   OH268880   0.476   2.482  15.169 -0.9749 -0.1644 -0.0639
15822TIP3    H168881   0.560   2.437  15.157 -1.2441  0.0004 -2.9670
15822TIP3    H268882   0.498   2.575  15.165 -1.0647 -0.0715  1.1913
15823TIP3   OH268883   6.028   6.346  12.866 -0.0009 -0.2240  0.1715
15823TIP3    H168884   6.019   6.411  12.796 -0.2408 -0.5982 -0.1429
15823TIP3    H268885   5.944   6.301  12.868  0.5907 -1.3885 -0.4559
15824TIP3   OH268886   3.755   1.044   2.413 -0.6240 -0.7907  0.4133
15824TIP3    H168887   3.749   0.967   2.356  0.2793  0.1055 -0.9136
15824TIP3    H268888   3.671   1.088   2.402  0.4570  0.6885 -2.1418
15825TIP3   OH268889   1.510   5.349  12.457  0.9395  0.4225 -0.0806
15825TIP3    H168890   1.470   5.268  12.426 -0.7620  0.9303  0.7535
15825TIP3    H268891   1.586   5.319  12.508 -0.8349 -0.7832  1.9707
15826TIP3   OH268892   5.710   0.023  16.280 -0.5338  0.1125 -0.4320
15826TIP3    H168893   5.689  -0.045  16.216 -2.2355  1.1406 -0.9930
15826TIP3    H268894   5.679  -0.012  16.364  1.2440 -1.0215 -0.2283
15827TIP3   OH268895   0.704   4.332  15.616 -0.1819  0.0497 -0.6203
15827TIP3    H168896   0.610   4.333  15.635  0.2238 -3.1093  2.0220
15827TIP3    H268897   0.712   4.376  15.532 -4.1451 -0.5339 -1.4165
15828TIP3   OH268898   6.611   4.477  11.626 -0.2944 -0.4228 -0.3870
15828TIP3    H168899   6.620   4.385  11.604 -0.6616 -0.2947 -1.0732
15828TIP3    H268900   6.647   4.524  11.550 -0.6418  0.0057 -0.2887
15829TIP3   OH268901   3.470   4.531   2.144 -0.1337 -0.1089 -0.5924
15829TIP3    H168902   3.496   4.619   2.116  3.0921 -0.4322  1.1418
15829TIP3    H268903   3.452   4.484   2.062 -0.2951  1.6685 -1.6071
15830TIP3   OH268904   4.543   0.349   3.534 -0.7444  0.5507 -0.1240
15830TIP3    H168905   4.565   0.382   3.621 -0.0142 -0.7735  0.2061
15830TIP3    H268906   4.593   0.405   3.474 -0.8100  1.1073  0.3363
15831TIP3   OH268907   6.032   5.698   2.941  0.1545 -0.1248  0.1196
15831TIP3    H168908   5.966   5.632   2.924  0.0781 -0.1893  0.6531
15831TIP3    H268909   6.065   5.678   3.029  1.6131 -0.7282 -0.5387
15832TIP3   OH268910   2.946   4.604  14.531  0.4944 -0.5396  0.7128
15832TIP3    H168911   2.900   4.544  14.472  1.1252  0.3561 -0.7030
15832TIP3    H268912   2.883   4.621  14.602 -1.0480 -0.0111 -0.7543
15833TIP3   OH268913   1.635   1.890  11.971 -0.0448  0.3022  0.4965
15833TIP3    H168914   1.692   1.817  11.946 -2.4701 -1.4599 -0.1130
15833TIP3    H268915   1.581   1.855  12.042 -2.2056  1.0189 -0.7531
15834TIP3   OH268916   5.985   4.726  13.198 -0.2883 -0.6557 -0.3339
15834TIP3    H168917   5.993   4.635  13.169 -1.2064 -0.7905 -0.1893
15834TIP3    H268918   5.910   4.726  13.257 -0.0997  0.1407 -0.0874
15835TIP3   OH268919   4.306   1.726   4.466  0.3921 -0.3968  0.1940
15835TIP3    H168920   4.291   1.763   4.553  1.4872  0.4546  0.0287
15835TIP3    H268921   4.398   1.698   4.468  0.1962 -1.0900 -0.4294
15836TIP3   OH268922   3.324   4.190   4.565 -0.1383  0.3157  0.5118
15836TIP3    H168923   3.379   4.269   4.564  1.2472 -0.6446 -1.1749
15836TIP3    H268924   3.273   4.196   4.484 -0.8542  0.0093  0.9306
15837TIP3   OH268925   1.372   0.191   0.238 -0.2656 -0.0170 -0.1532
15837TIP3    H168926   1.385   0.142   0.156  1.8137 -3.1254  1.9405
15837TIP3    H268927   1.457   0.188   0.281 -1.3551  1.5668  2.1591
15838TIP3   OH268928   5.131   4.727  13.847  0.3977 -0.3002 -0.2684
15838TIP3    H168929   5.040   4.712  13.872  0.4166 -0.6475 -0.4094
15838TIP3    H268930   5.126   4.762  13.758  0.2902  1.6214  0.4761
15839TIP3   OH268931   4.438   6.603   2.134  0.2215 -0.4585  0.1727
15839TIP3    H168932   4.480   6.650   2.207 -1.9516 -0.4703  1.4657
15839TIP3    H268933   4.345   6.621   2.145 -0.0720  0.4083 -3.2441
15840TIP3   OH268934   3.609   2.727   3.214  0.4658  0.4235  0.2223
15840TIP3    H168935   3.684   2.673   3.237  0.1490 -0.2098 -0.2319
15840TIP3    H268936   3.586   2.701   3.125 -0.3558  0.5424  0.3929
15841TIP3   OH268937   0.985   2.050  14.128 -0.2268  0.2759 -0.1325
15841TIP3    H168938   1.038   2.026  14.205  0.9382 -1.0544 -1.3138
15841TIP3    H268939   0.921   1.978  14.120  1.3569 -0.9791 -1.9343
15842TIP3   OH268940   6.456   1.096  11.751  0.3515  0.1574  0.0756
15842TIP3    H168941   6.535   1.133  11.789  0.5393  0.5738 -0.7047
15842TIP3    H268942   6.480   1.078  11.660  0.1540 -1.5306  0.3395
15843TIP3   OH268943   2.249   5.688  11.982  0.1799  0.1626 -0.7675
15843TIP3    H168944   2.226   5.638  11.904  1.1130 -1.0198 -0.3103
15843TIP3    H268945   2.172   5.681  12.038  0.3140 -0.8114 -0.6923
15844TIP3   OH268946   4.976   5.621   1.352  0.0552  0.0881 -0.6413
15844TIP3    H168947   5.043   5.677   1.392  0.3980 -1.4024  0.9316
15844TIP3    H268948   5.007   5.607   1.263  0.1301  2.1041 -0.9648
15845TIP3   OH268949   0.047   3.003  15.939  0.2784  0.3090  0.5191
15845TIP3    H168950   0.097   2.977  16.016 -1.3810 -1.4362  1.0141
15845TIP3    H268951   0.088   2.955  15.867 -1.2843 -1.8903  1.0741
15846TIP3   OH268952   0.728   4.956   6.473 -0.1356  0.2260 -0.1362
15846TIP3    H168953   0.758   5.009   6.399  0.7943  1.0897  0.8294
15846TIP3    H268954   0.808   4.934   6.521 -0.6979 -0.5409  0.4615
15847TIP3   OH268955   5.157   5.491   3.734  1.0228  0.1724  0.3174
15847TIP3    H168956   5.231   5.542   3.767  0.7982  0.6033  0.1458
15847TIP3    H268957   5.152   5.513   3.641  0.4802  0.3794  0.3973
15848TIP3   OH268958   3.188   1.760   2.263 -0.0993 -0.0900 -0.8389
15848TIP3    H168959   3.281   1.781   2.257  0.1287 -1.4774 -2.2239
15848TIP3    H268960   3.180   1.672   2.228 -2.1749  0.6233 -2.2660
15849TIP3   OH268961   1.487   2.971  16.556 -0.0254  0.0318  0.4168
15849TIP3    H168962   1.408   3.003  16.598 -0.8082 -0.2119 -0.8583
15849TIP3    H268963   1.466   2.968  16.463  1.6866  0.5636 -0.0091
15850TIP3   OH268964   1.688   2.454  12.578  0.0371 -0.0711  0.8358
15850TIP3    H168965   1.687   2.532  12.522 -0.8020  0.6873  1.9098
15850TIP3    H268966   1.684   2.381  12.516  1.9068  0.6976 -0.2318
15851TIP3   OH268967   2.644   5.711   3.524 -0.4308 -0.9260 -0.1707
15851TIP3    H168968   2.698   5.733   3.449 -1.0154  1.8262  0.1490
15851TIP3    H268969   2.569   5.663   3.488  0.0700 -0.9876 -1.1209
15852TIP3   OH268970   2.423   5.752   3.163 -0.2118  0.0417  0.2043
15852TIP3    H168971   2.441   5.835   3.120  0.2183 -0.0445  0.2152
15852TIP3    H268972   2.383   5.697   3.096  0.7946 -0.2178 -0.1912
15853TIP3   OH268973   2.043   3.434  14.651  0.4638 -0.6995  0.2242
15853TIP3    H168974   2.103   3.364  14.676 -1.3336 -2.0124  0.9509
15853TIP3    H268975   2.074   3.511  14.699  2.8719 -0.7900 -1.1224
15854TIP3   OH268976   0.746   0.579   1.573  0.4286  0.3018 -0.5198
15854TIP3    H168977   0.776   0.606   1.486  1.1474  0.5879 -0.1903
15854TIP3    H268978   0.659   0.617   1.582 -0.3768 -1.1784 -1.8069
15855TIP3   OH268979   1.240   3.035  13.258 -0.3963 -0.6730 -0.0590
15855TIP3    H168980   1.255   3.103  13.324  0.3814  0.4685 -1.3974
15855TIP3    H268981   1.201   3.081  13.184  1.5449 -1.4003 -1.5712
15856TIP3   OH268982   4.200   1.867  13.732 -0.0210  0.0847 -0.2134
15856TIP3    H168983   4.270   1.876  13.797 -0.9231  1.9345  0.5227
15856TIP3    H268984   4.208   1.776  13.702  0.7589 -0.6462  2.0561
15857TIP3   OH268985   3.705   3.018   5.819 -0.3081 -0.2517  0.1785
15857TIP3    H168986   3.631   3.078   5.817 -1.0046 -1.0865  0.5258
15857TIP3    H268987   3.668   2.936   5.851  0.7793 -0.6622  0.3943
15858TIP3   OH268988   2.107   5.008   5.287  0.1503 -0.0296  0.5345
15858TIP3    H168989   2.161   5.058   5.226  1.0508 -0.3514  1.0583
15858TIP3    H268990   2.050   4.956   5.231 -0.9517  1.7475 -0.0113
15859TIP3   OH268991   6.456   0.942   0.235 -0.6578  0.0452  0.3377
15859TIP3    H168992   6.518   0.909   0.300 -0.2604  0.3948  0.1377
15859TIP3    H268993   6.491   0.914   0.151 -0.2521  1.0660  0.1532
15860TIP3   OH268994   2.451   1.823   0.337  0.0542 -0.3922 -0.6195
15860TIP3    H168995   2.410   1.861   0.414  0.7046  0.4136 -0.6624
15860TIP3    H268996   2.382   1.769   0.297 -0.4123 -0.4616  0.2729
15861TIP3   OH268997   5.834   4.570   5.055  0.5413 -0.2115  0.3657
15861TIP3    H168998   5.853   4.620   5.134 -2.6170 -1.7621  2.2083
15861TIP3    H268999   5.897   4.497   5.056  0.4856 -0.2420  1.4877
15862TIP3   OH269000   3.261   1.075   4.874 -0.4152 -0.1033  0.0553
15862TIP3    H169001   3.342   1.076   4.824 -0.4371 -3.5205 -0.1810
15862TIP3    H269002   3.205   1.140   4.832  1.5980  1.1013 -0.8121
15863TIP3   OH269003   1.065   4.477   1.571  0.3483 -0.0028 -0.4789
15863TIP3    H169004   1.043   4.551   1.627 -0.9859 -0.7714  0.0362
15863TIP3    H269005   1.067   4.402   1.631  2.0330 -0.3339 -0.9358
15864TIP3   OH269006   3.858   2.057   3.404 -0.3938 -0.2004  0.0542
15864TIP3    H169007   3.800   1.982   3.390  0.5707 -0.8549 -0.4443
15864TIP3    H269008   3.935   2.039   3.350  0.4720  0.4613  1.0532
15865TIP3   OH269009   3.594   3.152  14.512 -0.7894 -0.0202 -0.0142
15865TIP3    H169010   3.500   3.148  14.531 -1.1716  2.7956 -1.0494
15865TIP3    H269011   3.605   3.093  14.438 -1.6966 -0.6220  0.3197
15866TIP3   OH269012   0.798   4.359  11.657  0.4586  0.0297  0.0988
15866TIP3    H169013   0.758   4.273  11.668  0.8612 -0.1265  0.3472
15866TIP3    H269014   0.758   4.413  11.725 -1.1471  0.5293 -1.2059
15867TIP3   OH269015   3.320   0.780   2.490 -0.5589 -0.5049 -0.2964
15867TIP3    H169016   3.373   0.723   2.545  1.7205  0.6819 -1.2060
15867TIP3    H269017   3.312   0.733   2.407 -0.1974 -0.2999 -0.4474
15868TIP3   OH269018   5.196   3.634   3.452  0.3081  0.2909 -0.1688
15868TIP3    H169019   5.212   3.579   3.529  2.3774 -0.3833 -1.0238
15868TIP3    H269020   5.127   3.589   3.403  0.5315 -0.4425  0.1911
15869TIP3   OH269021   5.394   3.646   0.497 -0.2657 -0.3531  0.6509
15869TIP3    H169022   5.338   3.690   0.433  1.5595 -0.4655 -1.0923
15869TIP3    H269023   5.380   3.693   0.579  1.7893  3.6772 -1.1934
15870TIP3   OH269024   2.105   2.428  15.852  0.0990  0.9095 -0.1515
15870TIP3    H169025   2.181   2.466  15.807  0.8475 -2.2943 -1.7352
15870TIP3    H269026   2.142   2.381  15.926 -0.6566  1.8417  0.8343
15871TIP3   OH269027   1.284   0.441   4.616  0.6178  0.1468  0.2676
15871TIP3    H169028   1.245   0.361   4.580  0.6466  0.8963 -1.4610
15871TIP3    H269029   1.214   0.480   4.669  0.9831 -1.6247  2.0860
15872TIP3   OH269030   4.328   4.426  15.814  0.0508 -0.0426  0.6205
15872TIP3    H169031   4.400   4.390  15.762  0.3260 -0.1075  1.0446
15872TIP3    H269032   4.343   4.393  15.902 -0.2899  0.2542  0.7905
15873TIP3   OH269033   6.694   3.029   5.383  0.1816 -0.4967 -0.0348
15873TIP3    H169034   6.638   2.987   5.318 -0.1892 -1.0341  0.6185
15873TIP3    H269035   6.634   3.086   5.433 -0.1600 -2.4045  1.8077
15874TIP3   OH269036   5.207   2.586   3.920  0.0970  0.7070 -0.1363
15874TIP3    H169037   5.264   2.662   3.913  1.8528 -0.7701 -3.0527
15874TIP3    H269038   5.121   2.617   3.892  0.2176  2.1679  1.0859
15875TIP3   OH269039   3.355   0.231  13.092  0.3037  0.5349 -0.2892
15875TIP3    H169040   3.398   0.248  13.008 -1.2961  0.6223 -1.1074
15875TIP3    H269041   3.292   0.302  13.102  0.1361  0.2527  0.7587
15876TIP3   OH269042   6.238   2.482  15.376 -0.2125  0.4540 -0.5404
15876TIP3    H169043   6.249   2.527  15.293  0.6120  1.9450  0.3481
15876TIP3    H269044   6.157   2.517  15.413  0.1648  0.8305 -0.0729
15877TIP3   OH269045   2.484   5.169   5.378 -0.3380  0.0760  0.5909
15877TIP3    H169046   2.572   5.202   5.395  0.0874 -0.9675  0.4552
15877TIP3    H269047   2.433   5.246   5.353  0.2584  0.8552  1.7364
15878TIP3   OH269048   4.204   2.722  16.440 -0.0234 -0.5536 -0.2044
15878TIP3    H169049   4.150   2.798  16.462  1.0854 -0.1509  1.2767
15878TIP3    H269050   4.160   2.649  16.482  0.3985 -0.2688  0.7679
15879TIP3   OH269051   3.808   2.025   3.763  0.1407  0.3947 -0.1957
15879TIP3    H169052   3.721   1.986   3.764 -0.1270  0.9782  2.3112
15879TIP3    H269053   3.817   2.063   3.676 -0.9615 -2.1743 -1.4932
15880TIP3   OH269054   2.132   4.881  14.131  0.3468  0.6277 -0.5800
15880TIP3    H169055   2.224   4.889  14.157 -0.3853 -1.5896  3.1335
15880TIP3    H269056   2.087   4.949  14.182 -0.5288 -0.7523  0.5267
15881TIP3   OH269057   0.856   6.292  16.380 -0.3113 -0.4683  0.1472
15881TIP3    H169058   0.873   6.295  16.286 -1.6220 -2.4443 -0.1833
15881TIP3    H269059   0.760   6.289  16.386 -0.2181 -0.7775  1.5390
15882TIP3   OH269060   5.865   5.245  15.342 -0.6723 -0.4584  0.1621
15882TIP3    H169061   5.913   5.285  15.269 -0.4013 -0.1525  0.5048
15882TIP3    H269062   5.793   5.198  15.300 -1.5138  1.1128 -0.1824
15883TIP3   OH269063   3.504   4.114   3.810 -0.2310 -0.6387 -0.0622
15883TIP3    H169064   3.447   4.187   3.833  0.1844 -0.4408  0.3361
15883TIP3    H269065   3.466   4.039   3.854  0.4770 -0.2914  1.1514
15884TIP3   OH269066   3.529   0.667  12.138  0.0916 -0.1110  0.1327
15884TIP3    H169067   3.500   0.622  12.217 -1.2124 -1.4845 -1.0712
15884TIP3    H269068   3.620   0.640  12.127  0.2048 -0.0983  1.0481
15885TIP3   OH269069   1.290   3.046  16.716 -0.0635  0.3925 -0.0137
15885TIP3    H169070   1.327   2.994  16.787 -0.6509  0.1538  0.1208
15885TIP3    H269071   1.201   3.013  16.705  0.8795 -1.4174 -2.6827
15886TIP3   OH269072   4.919   5.617  13.573  0.5034 -0.4118  0.0028
15886TIP3    H169073   4.908   5.587  13.663 -0.1956  2.5158  0.9446
15886TIP3    H269074   5.011   5.641  13.567  0.2468  0.6617  0.3485
15887TIP3   OH269075   4.466   1.024   4.582 -0.6209 -0.0016  0.0514
15887TIP3    H169076   4.545   1.024   4.635 -0.8376  1.5121  0.3747
15887TIP3    H269077   4.494   0.991   4.497  0.1295 -0.4901  0.4841
15888TIP3   OH269078   1.499   5.674   4.690 -0.1927 -0.1527  0.4544
15888TIP3    H169079   1.475   5.767   4.689 -1.3678 -0.4337 -2.0352
15888TIP3    H269080   1.592   5.673   4.670  0.0166  0.5203  1.3585
15889TIP3   OH269081   3.575   0.522  12.373 -0.1567  0.4207 -0.0958
15889TIP3    H169082   3.668   0.507  12.393 -0.0007 -0.2423 -1.3131
15889TIP3    H269083   3.547   0.588  12.437  0.3043 -1.7910  2.4671
15890TIP3   OH269084   0.565   2.377   5.489 -0.3010 -0.1643 -0.3236
15890TIP3    H169085   0.514   2.403   5.413 -1.2571 -0.2105  0.2989
15890TIP3    H269086   0.502   2.373   5.561  0.4149 -1.0509  0.2702
15891TIP3   OH269087   4.261   5.342  11.436 -0.1127 -0.6359  0.4398
15891TIP3    H169088   4.199   5.409  11.407  0.3435 -0.1354  0.6223
15891TIP3    H269089   4.240   5.266  11.382  1.5923  0.6632 -2.1584
15892TIP3   OH269090   1.431   5.890   3.352  0.2260 -0.4843 -0.0569
15892TIP3    H169091   1.374   5.932   3.288  1.4464  1.0907 -0.1163
15892TIP3    H269092   1.409   5.933   3.435  1.3658  0.1761 -0.0936
15893TIP3   OH269093   3.219   6.307  13.734 -0.1848 -0.4328 -0.3414
15893TIP3    H169094   3.130   6.329  13.706  0.0822  1.8918  0.4869
15893TIP3    H269095   3.223   6.338  13.825  1.9215  0.8299 -0.8370
15894TIP3   OH269096   6.010   4.230   1.345 -0.0660 -0.4376  0.3739
15894TIP3    H169097   6.076   4.296   1.366 -1.0575  0.3606  0.9988
15894TIP3    H269098   5.932   4.257   1.394 -0.6774 -1.7034  0.1121
15895TIP3   OH269099   4.736   0.760   0.792 -0.2217 -0.0203 -0.1181
15895TIP3    H169100   4.784   0.819   0.734 -1.2179  1.0062  0.1017
15895TIP3    H269101   4.653   0.744   0.748 -1.4107  1.5917  1.4995
15896TIP3   OH269102   0.503   4.100   1.470 -0.2058 -0.2102  0.0877
15896TIP3    H169103   0.571   4.038   1.440 -1.0589 -1.5900  0.9795
15896TIP3    H269104   0.422   4.050   1.467 -0.8850  0.8174  1.0056
15897TIP3   OH269105   0.442   0.323   0.577 -0.0773  0.3700 -0.4255
15897TIP3    H169106   0.395   0.371   0.509 -3.9852 -3.5879 -0.7372
15897TIP3    H269107   0.518   0.286   0.532  0.2253  2.0555 -1.3422
15898TIP3   OH269108   0.589   5.428   5.023  0.1803  0.8011  0.0424
15898TIP3    H169109   0.682   5.422   5.047  0.4575  3.0204 -0.3510
15898TIP3    H269110   0.576   5.520   5.000 -1.7067  0.1554 -1.6595
15899TIP3   OH269111   4.618   0.864   3.545 -0.2899  0.1996 -0.8820
15899TIP3    H169112   4.527   0.836   3.537 -0.3410 -0.3318  1.4472
15899TIP3    H269113   4.632   0.878   3.638  1.7509  1.2083 -1.2992
15900TIP3   OH269114   6.610   2.615  11.233  0.1876  0.2953  0.5994
15900TIP3    H169115   6.563   2.596  11.152  1.0189 -1.0218  0.4227
15900TIP3    H269116   6.551   2.674  11.281 -0.7218  0.3269 -0.5347
15901TIP3   OH269117   5.082   2.321   6.461 -0.0927 -0.4734 -0.0028
15901TIP3    H169118   5.153   2.313   6.524  0.4965 -1.2229 -0.7352
15901TIP3    H269119   5.063   2.230   6.435 -0.4640 -0.1959 -0.7263
15902TIP3   OH269120   5.987   6.172  16.529 -0.0644  0.3343 -0.7087
15902TIP3    H169121   6.001   6.264  16.504 -1.2121  1.2452  1.8453
15902TIP3    H269122   6.076   6.137  16.537  0.4586  1.9161  0.7133
15903TIP3   OH269123   1.403   4.480   3.306 -0.6790  0.0532 -0.3492
15903TIP3    H169124   1.408   4.509   3.215  0.1193  0.2386 -0.2542
15903TIP3    H269125   1.475   4.417   3.315  0.3315  1.3091  0.5964
15904TIP3   OH269126   0.744   3.006  14.681 -0.8334 -0.3316 -0.1228
15904TIP3    H169127   0.684   2.934  14.701 -0.3265 -0.6904  0.0862
15904TIP3    H269128   0.814   2.966  14.630 -0.2098 -0.1099  0.5539
15905TIP3   OH269129   5.241   1.803  16.715  0.4159 -0.1106  0.1438
15905TIP3    H169130   5.315   1.842  16.668 -0.6575 -0.7313 -2.1628
15905TIP3    H269131   5.239   1.713  16.684 -1.7058  0.0876 -0.3444
15906TIP3   OH269132   2.236   2.799   0.728  0.3725  0.1832 -0.0085
15906TIP3    H169133   2.308   2.860   0.740  0.4457  0.3040 -1.0046
15906TIP3    H269134   2.162   2.853   0.703  0.3914 -0.1163 -0.7195
15907TIP3   OH269135   5.726   6.618   2.352 -0.0262  0.3615 -0.5175
15907TIP3    H169136   5.738   6.525   2.329 -1.1969  0.6292 -2.3536
15907TIP3    H269137   5.759   6.666   2.276  0.4937  1.4450  0.3914
15908TIP3   OH269138   2.437   2.309  14.684  0.0121 -0.3689 -0.3404
15908TIP3    H169139   2.511   2.289  14.740  0.6606  0.6148 -0.8390
15908TIP3    H269140   2.470   2.374  14.622 -0.6100 -1.5999 -2.0143
15909TIP3   OH269141   0.548   0.305   1.582 -0.2073 -0.2252  1.1247
15909TIP3    H169142   0.571   0.275   1.494 -0.8871 -0.3393  0.9765
15909TIP3    H269143   0.605   0.256   1.641  0.3421 -0.0519  0.7386
15910TIP3   OH269144   1.836   1.784  16.989 -0.1240 -0.4200  0.2046
15910TIP3    H169145   1.765   1.819  16.935 -0.0107  0.1987  0.4583
15910TIP3    H269146   1.916   1.820  16.950  0.0692 -1.2184 -0.1601
15911TIP3   OH269147   0.079   6.304   0.903  0.4390 -0.6111 -0.0204
15911TIP3    H169148   0.077   6.319   0.998  1.4328 -2.3076  0.2976
15911TIP3    H269149  -0.007   6.332   0.872  1.3085  3.2136  0.8564
15912TIP3   OH269150   0.262   1.106   1.416 -0.3720  0.1337 -0.0838
15912TIP3    H169151   0.258   1.010   1.411 -1.2439 -0.0095  2.5584
15912TIP3    H269152   0.268   1.125   1.510 -1.3464  2.7087 -0.5027
15913TIP3   OH269153   3.504   2.534   0.379 -0.4051 -0.6581 -0.0742
15913TIP3    H169154   3.484   2.565   0.468  0.4738 -1.8790  0.5546
15913TIP3    H269155   3.427   2.482   0.355 -0.1689 -1.2569  0.4255
15914TIP3   OH269156   1.157   4.587   3.747  0.5226  0.1779 -0.2507
15914TIP3    H169157   1.181   4.528   3.819  2.0908 -1.5168 -2.0748
15914TIP3    H269158   1.088   4.643   3.783  0.3212 -1.5259  2.1383
15915TIP3   OH269159   2.385   3.982  13.351  0.4482  0.0908 -0.1784
15915TIP3    H169160   2.323   4.023  13.410  1.5733  0.3497  0.8305
15915TIP3    H269161   2.457   3.954  13.407  1.1922 -0.3181 -1.3199
15916TIP3   OH269162   5.173   5.075   0.991  0.4773 -0.2621 -0.5930
15916TIP3    H169163   5.177   5.027   0.909 -1.8042  2.3681 -2.3448
15916TIP3    H269164   5.263   5.103   1.008  0.8320 -0.1280 -2.6398
15917TIP3   OH269165   6.181   6.224   0.244  0.1355  0.4409 -0.2977
15917TIP3    H169166   6.262   6.197   0.201 -0.6884 -0.2655 -1.4151
15917TIP3    H269167   6.117   6.231   0.174 -1.1613 -0.4526  0.7688
15918TIP3   OH269168   0.114   2.910   1.652 -0.4333 -0.0460 -0.4089
15918TIP3    H169169   0.113   2.856   1.731 -0.2799 -0.3379 -0.6075
15918TIP3    H269170   0.068   2.991   1.678  1.4177  0.7202  0.5795
15919TIP3   OH269171   4.707   1.063  14.956  0.4596 -0.2157 -0.5265
15919TIP3    H169172   4.715   1.092  15.047 -0.0116 -1.5781 -0.0274
15919TIP3    H269173   4.790   1.087  14.916 -0.3294  2.7556 -0.4487
15920TIP3   OH269174   0.122   0.805  16.094 -0.4814 -0.4057  0.0733
15920TIP3    H169175   0.079   0.834  16.014 -0.3516 -0.6831 -0.0986
15920TIP3    H269176   0.141   0.712  16.078  0.9148 -0.0810 -0.1796
15921TIP3   OH269177   4.379   2.155  10.696  0.1558  0.1609 -0.3237
15921TIP3    H169178   4.321   2.080  10.683  0.0565  0.2939 -0.6279
15921TIP3    H269179   4.332   2.230  10.660  0.2684  0.3671 -0.0463
15922TIP3   OH269180   0.346   0.422   6.477 -0.3243  0.3967  0.0430
15922TIP3    H169181   0.301   0.434   6.561 -2.2402  2.6341 -1.2219
15922TIP3    H269182   0.280   0.381   6.421  0.7304 -0.4904 -0.5681
15923TIP3   OH269183   0.730   3.515  11.691 -0.0485 -0.2893 -0.0093
15923TIP3    H169184   0.775   3.476  11.617  0.8899  1.0688 -0.1651
15923TIP3    H269185   0.648   3.466  11.697  0.5867 -1.4991 -0.9081
15924TIP3   OH269186   3.160   1.306  12.341  0.8011  0.0130 -0.1466
15924TIP3    H169187   3.244   1.329  12.380  2.2598 -1.6265 -2.2326
15924TIP3    H269188   3.151   1.212  12.356 -1.4217  0.4202  1.4027
15925TIP3   OH269189   1.437   1.981   5.962 -0.0761  0.2353  0.2867
15925TIP3    H169190   1.393   2.063   5.940  1.9223  1.1853 -0.2875
15925TIP3    H269191   1.469   1.994   6.052  2.1464  0.9837 -0.5640
15926TIP3   OH269192   6.121   4.431   3.514 -0.2137 -0.2000  0.6040
15926TIP3    H169193   6.084   4.388   3.591 -1.3111 -0.3319  0.0052
15926TIP3    H269194   6.055   4.495   3.488  1.3481  1.8042  1.4151
15927TIP3   OH269195   0.309   0.198  13.935 -0.6002  0.3360 -0.3200
15927TIP3    H169196   0.289   0.183  14.028  2.0897 -2.3692 -0.1057
15927TIP3    H269197   0.366   0.275  13.935 -0.7149  0.4264  0.2632
15928TIP3   OH269198   4.624   3.628   4.454  0.4691 -0.3216  0.1910
15928TIP3    H169199   4.567   3.703   4.439 -0.8239 -1.0919  1.1223
15928TIP3    H269200   4.609   3.571   4.378  2.6722  1.0653 -1.3434
15929TIP3   OH269201   6.479   5.817   1.843  0.1028  0.0979 -0.1659
15929TIP3    H169202   6.573   5.806   1.859  0.0685 -0.5881 -0.4211
15929TIP3    H269203   6.444   5.848   1.927  0.5953  0.5941 -0.1435
15930TIP3   OH269204   4.589   3.187  15.627  1.0748 -0.0241 -0.1528
15930TIP3    H169205   4.639   3.105  15.624 -0.8878 -1.3168  1.7815
15930TIP3    H269206   4.498   3.161  15.614  0.3062  1.7398  1.4021
15931TIP3   OH269207   1.363   0.652  13.282  0.0164 -0.1921 -0.4456
15931TIP3    H169208   1.283   0.628  13.329 -0.7608  1.2570 -1.0002
15931TIP3    H269209   1.428   0.588  13.311 -1.0158 -0.6364  0.9562
15932TIP3   OH269210   0.572   4.317  14.477 -0.4091  0.0007 -0.3057
15932TIP3    H169211   0.582   4.271  14.560  1.2609 -0.0772 -0.5459
15932TIP3    H269212   0.549   4.406  14.502  1.9302  0.4549  0.3015
15933TIP3   OH269213   0.022   2.503  16.023 -0.1132 -0.4584 -0.0414
15933TIP3    H169214  -0.053   2.489  16.081  1.7350  1.5505  2.9788
15933TIP3    H269215   0.076   2.425  16.036 -0.6289 -0.9209 -0.6081
15934TIP3   OH269216   5.667   2.854   5.374 -0.1542  0.3769  0.0984
15934TIP3    H169217   5.642   2.879   5.285 -0.1777  0.2836  0.0778
15934TIP3    H269218   5.750   2.899   5.389  1.3415 -1.8773 -1.0405
15935TIP3   OH269219   6.152   0.709  11.740  0.5828 -0.4746 -0.0189
15935TIP3    H169220   6.182   0.732  11.652 -0.7108 -0.9139 -0.5851
15935TIP3    H269221   6.134   0.793  11.782 -1.4538 -0.3015 -1.1374
15936TIP3   OH269222   2.272   3.577  14.795 -0.5785  0.1338 -0.1543
15936TIP3    H169223   2.265   3.640  14.867  0.4418  1.1915 -0.9509
15936TIP3    H269224   2.277   3.632  14.717  0.5579 -0.9344 -0.8487
15937TIP3   OH269225   4.130   1.459  14.822  0.1915  0.1663 -0.3694
15937TIP3    H169226   4.184   1.466  14.743  0.4796  3.1262  0.0398
15937TIP3    H269227   4.041   1.479  14.792  0.0950 -0.0061 -0.1952
15938TIP3   OH269228   4.479   6.622   3.910  0.2695 -0.2431 -0.1745
15938TIP3    H169229   4.468   6.591   3.819  1.3916 -0.8149 -0.1254
15938TIP3    H269230   4.415   6.571   3.960 -0.1491 -0.1402 -0.5935
15939TIP3   OH269231   0.697   6.662  16.652  0.7602 -0.0413 -0.0617
15939TIP3    H169232   0.786   6.628  16.653  0.2818 -1.2856  2.0699
15939TIP3    H269233   0.705   6.752  16.684  1.4041  0.3054 -1.1624
15940TIP3   OH269234   2.076   5.528   5.494 -0.6149  0.5336  0.4257
15940TIP3    H169235   2.014   5.587   5.452 -1.3933  0.4214  1.3811
15940TIP3    H269236   2.035   5.441   5.487 -0.5385  0.4462  0.9850
15941TIP3   OH269237   2.196   0.286  14.303  0.0213  0.2050 -0.1234
15941TIP3    H169238   2.150   0.213  14.262  1.4027 -0.0603 -1.2417
15941TIP3    H269239   2.278   0.293  14.255  1.2304  0.5744  1.9255
15942TIP3   OH269240   3.310   2.117  15.740 -0.1222 -0.1491 -0.4461
15942TIP3    H169241   3.314   2.062  15.818 -1.1006 -1.1269 -1.0738
15942TIP3    H269242   3.400   2.144  15.725 -0.0693  0.9889  1.6724
15943TIP3   OH269243   6.340   6.568  15.836 -0.1414 -0.4561  0.3394
15943TIP3    H169244   6.416   6.587  15.891  0.4719 -1.3766 -0.1808
15943TIP3    H269245   6.273   6.629  15.867  1.0544  0.9525  0.2477
15944TIP3   OH269246   5.745   0.997   0.108 -0.6156  0.0538 -0.1026
15944TIP3    H169247   5.808   0.931   0.079 -0.3538  0.2580 -0.0145
15944TIP3    H269248   5.702   1.027   0.028 -2.3629 -1.8369  0.0970
15945TIP3   OH269249   3.513   5.664   0.162 -0.0926  0.3718  0.1203
15945TIP3    H169250   3.524   5.680   0.069  0.6351  0.7443  0.2597
15945TIP3    H269251   3.487   5.749   0.198 -2.2662 -0.2126 -0.0106
15946TIP3   OH269252   5.454   6.461  12.562 -0.1388 -0.7314 -0.1168
15946TIP3    H169253   5.509   6.535  12.586  0.3877 -1.7121  1.8147
15946TIP3    H269254   5.373   6.475  12.611 -0.3687 -0.9880 -0.4237
15947TIP3   OH269255   1.120   3.519  13.790 -0.0747 -0.3444  0.1700
15947TIP3    H169256   1.043   3.463  13.784  1.3006 -2.1865 -0.5153
15947TIP3    H269257   1.166   3.490  13.869  0.0394  0.6105  0.4684
15948TIP3   OH269258   1.989   2.124   4.968  0.1605 -0.6671 -0.0864
15948TIP3    H169259   2.019   2.201   4.919  0.8563 -0.8316  0.0789
15948TIP3    H269260   1.922   2.158   5.028  1.2822  0.0271  0.8052
15949TIP3   OH269261   0.372   2.762   4.851 -0.1148  0.5668  0.4625
15949TIP3    H169262   0.423   2.685   4.825 -0.5827  0.3606  0.1639
15949TIP3    H269263   0.354   2.808   4.769  2.2672  2.3111  0.8575
15950TIP3   OH269264   6.152   1.493  15.746 -0.2260 -0.1050  0.0255
15950TIP3    H169265   6.058   1.507  15.740 -0.0550  1.2181  0.3345
15950TIP3    H269266   6.177   1.532  15.830  0.4689 -1.1587  0.3148
15951TIP3   OH269267   4.999   1.131   5.023 -0.1024 -0.3576  0.7563
15951TIP3    H169268   5.011   1.183   5.103  0.0601 -1.3141  1.3559
15951TIP3    H269269   5.050   1.177   4.957  0.2626  0.1043  1.3497
15952TIP3   OH269270   5.430   6.123  15.530  0.0888 -0.2670  0.2997
15952TIP3    H169271   5.361   6.190  15.536  0.5019  0.1774  0.1640
15952TIP3    H269272   5.384   6.040  15.538 -0.4692  0.0282  0.1756
15953TIP3   OH269273   3.581   6.458   3.355 -0.0331  0.2744  0.2570
15953TIP3    H169274   3.604   6.526   3.291 -0.6386  1.4597  1.2800
15953TIP3    H269275   3.613   6.492   3.438  1.6773 -1.7422  0.4399
15954TIP3   OH269276   5.134   1.586   0.103  0.0398 -0.2070 -0.4021
15954TIP3    H169277   5.227   1.568   0.101 -0.0283 -0.7138  0.7572
15954TIP3    H269278   5.125   1.659   0.165 -0.4683 -1.0391  0.5136
15955TIP3   OH269279   0.867   4.645   5.137  0.4855  0.0478 -0.2030
15955TIP3    H169280   0.958   4.656   5.164  0.7002 -0.9823 -0.4857
15955TIP3    H269281   0.821   4.720   5.175  1.1411 -0.3189  1.3338
15956TIP3   OH269282   2.542   1.224  16.542 -0.5951  0.4806 -0.3843
15956TIP3    H169283   2.522   1.141  16.499  0.5890 -0.4984  0.9428
15956TIP3    H269284   2.499   1.219  16.627 -3.4981  2.6947 -1.6392
15957TIP3   OH269285   3.125   4.977   5.822 -0.5355 -0.2306 -0.2270
15957TIP3    H169286   3.189   4.978   5.752 -0.8660 -0.7678 -0.5387
15957TIP3    H269287   3.177   4.967   5.902 -0.2898 -1.5990 -0.5516
15958TIP3   OH269288   3.241   4.267  14.994 -0.8036 -0.0697 -0.0293
15958TIP3    H169289   3.289   4.190  15.024 -0.0094  0.2700 -0.4273
15958TIP3    H269290   3.238   4.325  15.071  1.6376  0.9999 -0.7013
15959TIP3   OH269291   2.814   5.079   1.248  0.0528 -0.2002  0.2981
15959TIP3    H169292   2.828   5.026   1.170 -1.2216  0.8599 -0.6926
15959TIP3    H269293   2.737   5.040   1.289 -0.4932  0.4613 -0.0810
15960TIP3   OH269294   2.934   5.112  13.314  0.0775  0.8027 -0.9830
15960TIP3    H169295   2.940   5.062  13.395 -0.4170 -0.4002 -1.6812
15960TIP3    H269296   2.877   5.186  13.336  2.4161  2.2159  0.5999
15961TIP3   OH269297   5.777   6.533   0.527  0.2304 -0.4435 -0.1708
15961TIP3    H169298   5.722   6.481   0.585  1.5101 -1.7272 -0.0694
15961TIP3    H269299   5.825   6.469   0.475  1.8582  0.6262 -0.0260
15962TIP3   OH269300   1.410   4.220   3.075 -0.4127  0.1230 -0.1254
15962TIP3    H169301   1.396   4.160   3.148 -0.9884 -0.4325 -0.6810
15962TIP3    H269302   1.342   4.197   3.012  0.8163 -0.2095 -1.3553
15963TIP3   OH269303   1.256   6.084  17.100 -0.2506 -0.2184  0.5868
15963TIP3    H169304   1.213   6.082  17.014 -0.7683 -0.1913  0.8493
15963TIP3    H269305   1.255   6.176  17.125 -0.1397 -0.2328  0.6432
15964TIP3   OH269306   0.951   2.977  11.269 -0.0690  0.3245  0.6878
15964TIP3    H169307   0.881   2.916  11.288 -0.3381  0.6663  0.8020
15964TIP3    H269308   0.955   2.981  11.174  0.3037 -0.2708  0.6736
15965TIP3   OH269309   4.785   5.276   1.899 -0.2597  0.0525 -0.1556
15965TIP3    H169310   4.738   5.312   1.974  1.8879  1.4247  0.5741
15965TIP3    H269311   4.784   5.181   1.914 -0.9912  0.2133  0.9082
15966TIP3   OH269312   4.222   5.491  13.312  0.8576 -1.4262  0.1878
15966TIP3    H169313   4.236   5.483  13.218 -1.8917 -0.0837 -0.3809
15966TIP3    H269314   4.139   5.447  13.328 -0.9694  2.1990  1.2057
15967TIP3   OH269315   5.056   4.777   4.995 -0.7034 -0.1295  0.1675
15967TIP3    H169316   5.073   4.776   5.089 -0.8307 -0.5940  0.1850
15967TIP3    H269317   4.970   4.818   4.986 -0.4873  0.3420  0.2200
15968TIP3   OH269318   2.415   5.840  15.212  0.3270 -0.7658  0.6418
15968TIP3    H169319   2.474   5.774  15.247  2.4738 -0.1061 -1.6361
15968TIP3    H269320   2.470   5.916  15.196 -1.5110  0.5227  0.2388
15969TIP3   OH269321   1.826   5.442   6.434  0.0723 -0.6997  0.0463
15969TIP3    H169322   1.906   5.392   6.421  0.3761 -0.2478  0.1840
15969TIP3    H269323   1.849   5.508   6.499 -0.2808 -0.2709 -0.2657
15970TIP3   OH269324   0.339   2.851   2.355 -0.0176 -0.2947  0.2610
15970TIP3    H169325   0.383   2.791   2.294 -0.1505 -1.6199  1.4495
15970TIP3    H269326   0.410   2.903   2.393 -0.0323  1.3654 -1.8465
15971TIP3   OH269327   5.312   1.748  15.561 -0.2363 -0.2229  0.1265
15971TIP3    H169328   5.223   1.744  15.597  0.1544 -0.4712  1.1050
15971TIP3    H269329   5.368   1.743  15.639  0.6330 -0.4255 -0.5154
15972TIP3   OH269330   6.715   5.879   0.768  0.1260 -0.0150  0.3269
15972TIP3    H169331   6.643   5.927   0.809  0.2774 -0.3963  1.0431
15972TIP3    H269332   6.673   5.821   0.705 -0.2804 -0.9600  1.4561
15973TIP3   OH269333   2.663   3.077   0.288 -0.2584  0.3553  0.7020
15973TIP3    H169334   2.585   3.062   0.342 -0.3412 -1.4759  0.1196
15973TIP3    H269335   2.736   3.075   0.350 -0.0443 -4.8103  0.5068
15974TIP3   OH269336   1.209   6.276   5.961  0.3630 -0.0913  0.1854
15974TIP3    H169337   1.288   6.326   5.939  0.9995 -0.7910  0.8832
15974TIP3    H269338   1.223   6.245   6.051 -1.7466  1.8367  1.2605
15975TIP3   OH269339   6.559   6.341   2.223  0.5674 -0.1804  0.0575
15975TIP3    H169340   6.618   6.397   2.172  1.2438  1.0366  2.1199
15975TIP3    H269341   6.583   6.358   2.314 -3.7273  1.2219  1.0380
15976TIP3   OH269342   5.774   5.024   3.175  0.4199  0.2632 -0.0572
15976TIP3    H169343   5.759   5.054   3.085  1.6363 -1.1975 -0.7734
15976TIP3    H269344   5.725   5.085   3.229 -0.7049  0.8951 -1.7476
15977TIP3   OH269345   2.978   6.749  16.459 -0.4365  0.4463 -0.1457
15977TIP3    H169346   3.025   6.792  16.530 -0.4172  1.3763 -0.7245
15977TIP3    H269347   2.977   6.656  16.485  1.6995  0.4063 -0.1175
15978TIP3   OH269348   5.635   3.092   5.882 -0.2320  0.7732  0.1024
15978TIP3    H169349   5.646   3.141   5.964  1.1429  0.9591 -0.1746
15978TIP3    H269350   5.689   3.014   5.894 -2.3257 -0.6373  0.4940
15979TIP3   OH269351   4.819   4.639  16.373 -0.3057 -0.2022  0.5130
15979TIP3    H169352   4.745   4.636  16.434  0.3797 -1.5464  1.3173
15979TIP3    H269353   4.894   4.663  16.427 -0.2453  1.7669 -0.4158
15980TIP3   OH269354   1.704   6.756  14.303 -0.4408  0.4377 -0.2479
15980TIP3    H169355   1.731   6.846  14.285  2.6996 -0.4221 -0.0411
15980TIP3    H269356   1.771   6.722  14.362 -2.4004 -1.5860  0.9093
15981TIP3   OH269357   2.871   2.965  10.450  0.2909  0.1429 -0.1905
15981TIP3    H169358   2.777   2.953  10.466  0.2647 -1.2963 -1.3024
15981TIP3    H269359   2.905   3.003  10.531 -0.1947 -4.9048  2.5720
15982TIP3   OH269360   2.323   4.529  15.226 -0.2018 -0.1062 -0.4561
15982TIP3    H169361   2.368   4.532  15.310 -0.0885  0.1469 -0.5245
15982TIP3    H269362   2.234   4.501  15.247 -0.5609  1.2759 -0.0930
15983TIP3   OH269363   5.912   2.169   4.042 -0.3204 -0.2531 -0.2082
15983TIP3    H169364   5.923   2.192   3.949 -0.0398  0.8267  0.0842
15983TIP3    H269365   5.971   2.228   4.088 -1.2542 -0.0566  0.7442
15984TIP3   OH269366   2.177   4.181  17.054 -0.4010 -0.6893 -0.2891
15984TIP3    H169367   2.237   4.120  17.097 -1.1470  0.0580  1.8560
15984TIP3    H269368   2.091   4.159  17.088 -0.8641  0.6388 -0.5745
15985TIP3   OH269369   1.668   1.558   5.664 -0.2300  0.2113  0.0413
15985TIP3    H169370   1.738   1.492   5.659 -1.3957 -1.3675  3.4810
15985TIP3    H269371   1.714   1.639   5.689  0.8418  0.1433 -1.5865
15986TIP3   OH269372   1.249   5.582   4.360  0.0540 -0.4376  0.1136
15986TIP3    H169373   1.189   5.639   4.407  0.0879 -0.1682 -0.1693
15986TIP3    H269374   1.331   5.630   4.357 -1.1887  1.6823 -4.3256
15987TIP3   OH269375   1.097   0.993   2.344  0.3754 -1.0134  0.5574
15987TIP3    H169376   1.052   0.911   2.364  1.2601 -1.2268  1.7252
15987TIP3    H269377   1.183   0.983   2.384 -0.0952  1.1527  2.1883
15988TIP3   OH269378   6.557   6.737   6.455  0.1574 -0.1300 -0.7964
15988TIP3    H169379   6.599   6.758   6.371 -0.2318 -0.5305 -1.0945
15988TIP3    H269380   6.520   6.820   6.485 -0.4381 -0.1548 -1.4417
15989TIP3   OH269381   5.558   0.770  12.517  0.1249  0.0767 -0.0438
15989TIP3    H169382   5.512   0.736  12.594  1.3795 -0.0946  0.6322
15989TIP3    H269383   5.618   0.836  12.552  1.0504 -0.3477 -0.8106
15990TIP3   OH269384   5.677   4.383   1.277  0.5096 -0.6383 -0.2211
15990TIP3    H169385   5.724   4.466   1.274  0.8695 -0.7587  1.5643
15990TIP3    H269386   5.600   4.397   1.221 -0.6498  1.6960  1.8464
15991TIP3   OH269387   1.761   1.408  15.009 -0.8112  0.2127  0.4354
15991TIP3    H169388   1.804   1.440  14.930 -1.9645 -2.0713 -1.1569
15991TIP3    H269389   1.828   1.412  15.077  1.5275 -1.9275 -1.6589
15992TIP3   OH269390   6.342   1.183  13.654 -0.3733  0.2100  0.7349
15992TIP3    H169391   6.400   1.207  13.726  0.4180  0.7110 -0.0599
15992TIP3    H269392   6.397   1.187  13.576 -0.6295 -2.5601  0.3489
15993TIP3   OH269393   3.405   3.632  14.950  0.4130 -0.4995 -0.2183
15993TIP3    H169394   3.390   3.722  14.921 -1.5654 -0.4566  0.8625
15993TIP3    H269395   3.402   3.580  14.869 -0.7189  0.1382 -0.5948
15994TIP3   OH269396   2.020   6.693  12.553 -0.1807  0.0008 -0.1102
15994TIP3    H169397   2.096   6.751  12.552  0.3999 -0.7360 -3.4633
15994TIP3    H269398   1.945   6.752  12.542  0.0033  0.5548  1.4489
15995TIP3   OH269399   6.194   1.458   6.550 -0.3201 -0.2738 -0.4761
15995TIP3    H169400   6.118   1.472   6.606 -0.5964  2.5956 -1.4798
15995TIP3    H269401   6.246   1.392   6.596 -1.6306  0.3631  2.0178
15996TIP3   OH269402   0.077   0.273   6.633  0.0186 -0.1696  0.1716
15996TIP3    H169403  -0.015   0.267   6.658 -0.1144 -1.9739 -0.6598
15996TIP3    H269404   0.125   0.257   6.715 -0.4135 -0.3534  0.3865
15997TIP3   OH269405   1.760   3.516  11.497  1.1222 -0.6336  0.1752
15997TIP3    H169406   1.748   3.571  11.575  1.1346  1.2576 -1.0989
15997TIP3    H269407   1.851   3.487  11.502  1.7675  1.2018 -0.1509
15998TIP3   OH269408   4.479   4.720   2.398 -0.1937 -0.4107 -0.0483
15998TIP3    H169409   4.511   4.716   2.308  0.2072 -0.9316  0.1144
15998TIP3    H269410   4.537   4.662   2.447  0.0586  0.4500  0.6948
15999TIP3   OH269411   1.164   2.581  11.375  0.1760  0.1135 -0.0150
15999TIP3    H169412   1.192   2.540  11.457  1.3375  0.8543 -0.0335
15999TIP3    H269413   1.118   2.660  11.403  1.5156  0.9266 -0.1150
16000TIP3   OH269414   3.229   6.216  16.926 -0.3523  0.4264 -0.3456
16000TIP3    H169415   3.200   6.129  16.898  0.8955 -0.1066 -0.0296
16000TIP3    H269416   3.311   6.229  16.879  0.1370  0.8745  0.6439
16001TIP3   OH269417   4.444   1.862  12.062 -0.4871  0.1283 -0.3858
16001TIP3    H169418   4.368   1.838  12.010 -1.1741 -0.5458  0.9266
16001TIP3    H269419   4.434   1.814  12.144  1.2228  0.2172 -0.1007
16002TIP3   OH269420   6.156   2.491   2.875 -0.1606 -0.3154 -0.2577
16002TIP3    H169421   6.176   2.434   2.949 -0.8996 -0.5802 -0.2544
16002TIP3    H269422   6.063   2.475   2.857 -0.4932  1.2186  0.0423
16003TIP3   OH269423   6.251   4.723  10.651 -0.1159  0.2814  0.2884
16003TIP3    H169424   6.175   4.701  10.705 -0.7160  1.4752 -0.0307
16003TIP3    H269425   6.217   4.786  10.587  1.2990  1.3930  0.6055
16004TIP3   OH269426   3.377   0.079   2.287 -0.2459 -0.3077  0.4170
16004TIP3    H169427   3.464   0.104   2.319 -0.8040  1.8766  0.2531
16004TIP3    H269428   3.395   0.015   2.218  1.2615  0.6719 -0.1295
16005TIP3   OH269429   2.446   4.567  14.296  0.6417 -0.6450  0.6412
16005TIP3    H169430   2.536   4.559  14.329  0.6251 -1.0771  0.5748
16005TIP3    H269431   2.437   4.660  14.276  0.7422 -0.4227  1.6083
16006TIP3   OH269432   5.378   4.269   4.715 -0.0774  0.0680  0.1847
16006TIP3    H169433   5.284   4.249   4.712 -0.0325 -0.0896 -0.1297
16006TIP3    H269434   5.385   4.358   4.680 -0.0662 -0.0612 -0.1377
16007TIP3   OH269435   3.284   0.655  16.980 -0.0380  0.4376  0.5142
16007TIP3    H169436   3.319   0.569  17.001 -3.2783 -0.8306  0.9793
16007TIP3    H269437   3.288   0.659  16.884 -1.4079 -0.9501  0.3754
16008TIP3   OH269438   3.354   6.627   3.607 -0.1915 -0.2732  0.3178
16008TIP3    H169439   3.442   6.633   3.645  0.4643  1.0583 -1.3258
16008TIP3    H269440   3.364   6.665   3.519 -2.0837 -1.4915 -0.4371
16009TIP3   OH269441   1.851   4.397  17.094 -0.5421  0.0224 -0.0254
16009TIP3    H169442   1.883   4.384  17.005  2.9553  0.3747  1.0743
16009TIP3    H269443   1.805   4.480  17.092 -0.3130  0.1157 -1.4718
16010TIP3   OH269444   6.266   6.340   2.390  0.5037 -0.0345 -0.4356
16010TIP3    H169445   6.176   6.346   2.420  0.4260 -1.3501 -0.3802
16010TIP3    H269446   6.275   6.411   2.326 -0.5519  0.1059 -0.4332
16011TIP3   OH269447   1.657   4.514   2.324  0.2812 -0.2267  0.3627
16011TIP3    H169448   1.643   4.509   2.230  2.0126  0.8106  0.0178
16011TIP3    H269449   1.631   4.429   2.358 -1.7475 -0.1106 -0.8579
16012TIP3   OH269450   4.424   1.639  12.285 -0.3089  0.4264  0.1340
16012TIP3    H169451   4.431   1.544  12.291  0.2888  0.4001 -0.8450
16012TIP3    H269452   4.485   1.672  12.351 -2.1183  0.1430  2.0116
16013TIP3   OH269453   1.950   3.451   1.753 -0.0439  0.0191  0.4425
16013TIP3    H169454   2.041   3.427   1.770 -0.3688 -1.2715  0.3860
16013TIP3    H269455   1.955   3.540   1.719  0.8872  1.5715  4.2965
16014TIP3   OH269456   4.487   5.222  12.489 -0.3396  0.4039  0.2098
16014TIP3    H169457   4.532   5.188  12.566  0.8968  1.7954  0.1228
16014TIP3    H269458   4.441   5.300  12.520 -2.9899 -1.1506  0.3608
16015TIP3   OH269459   0.974   6.160  16.622 -0.1771 -0.4339  0.3141
16015TIP3    H169460   0.939   6.236  16.575 -1.1668 -0.5722  0.8081
16015TIP3    H269461   1.010   6.104  16.554  0.2750  0.3334 -0.0805
16016TIP3   OH269462   5.952   0.970   1.662 -0.2784 -0.1584  0.3887
16016TIP3    H169463   5.999   0.887   1.660  0.0732 -0.0228  2.1078
16016TIP3    H269464   6.018   1.035   1.686 -0.6523  0.5514 -0.4557
16017TIP3   OH269465   6.575   2.336  17.182 -0.0471 -0.3273  0.0104
16017TIP3    H169466   6.500   2.321  17.240 -0.3387  1.0804  0.0184
16017TIP3    H269467   6.562   2.425  17.149 -0.9867 -1.7881 -3.8228
16018TIP3   OH269468   4.283   5.386  11.121  0.4786  0.1077 -0.0106
16018TIP3    H169469   4.244   5.471  11.140  1.0270  0.7959 -1.8209
16018TIP3    H269470   4.272   5.375  11.026  0.7366 -1.6726  0.1496
16019TIP3   OH269471   3.008   5.211   4.617 -0.2237 -0.3417  0.3734
16019TIP3    H169472   3.000   5.293   4.569  0.9793 -1.2482 -1.4580
16019TIP3    H269473   3.083   5.223   4.674  0.8161 -0.6264 -0.9087
16020TIP3   OH269474   2.720   6.495   1.526  0.6416 -0.1901 -0.4013
16020TIP3    H169475   2.782   6.423   1.518  1.0452 -0.0555  1.1773
16020TIP3    H269476   2.772   6.573   1.506  0.2437 -0.3116 -1.9547
16021TIP3   OH269477   2.203   2.201   5.838 -0.4375 -0.1656  0.6660
16021TIP3    H169478   2.128   2.230   5.890 -0.1289  0.7440  0.6175
16021TIP3    H269479   2.189   2.240   5.752  0.4632  0.6379  0.8676
16022TIP3   OH269480   0.735   3.241   3.318 -0.2104  0.8336  0.2723
16022TIP3    H169481   0.684   3.225   3.397  0.7192 -4.1507  0.0224
16022TIP3    H269482   0.670   3.245   3.248 -0.7608  1.7947  0.8274
16023TIP3   OH269483   4.229   3.246   4.005  0.0882  0.2528  0.2900
16023TIP3    H169484   4.269   3.239   3.918  0.3568 -2.4614  0.6047
16023TIP3    H269485   4.135   3.246   3.988  0.0974 -2.3582  0.1010
16024TIP3   OH269486   3.695   0.857  14.846  0.1828 -1.1743 -0.2562
16024TIP3    H169487   3.783   0.875  14.880 -0.2293 -0.5955  0.5300
16024TIP3    H269488   3.704   0.862  14.751  0.9451 -0.8648 -0.1684
16025TIP3   OH269489   1.151   6.387  11.458  0.0967  0.4288 -0.7722
16025TIP3    H169490   1.119   6.299  11.480  0.7057 -0.2346 -2.4752
16025TIP3    H269491   1.072   6.438  11.441 -0.2671  0.2794  0.3782
16026TIP3   OH269492   5.468   6.373  16.857  0.4096  0.1117  0.2342
16026TIP3    H169493   5.523   6.349  16.783  1.7179  2.7705  0.2809
16026TIP3    H269494   5.528   6.419  16.917 -1.4076  1.2428  1.2230
16027TIP3   OH269495   1.480   4.894   1.444  0.5510 -0.3303  0.5600
16027TIP3    H169496   1.554   4.837   1.466 -0.0082 -1.3300 -0.0916
16027TIP3    H269497   1.455   4.866   1.356 -1.9953 -1.4855  1.6183
16028TIP3   OH269498   1.641   0.756  16.628 -0.0048  0.2102  0.5880
16028TIP3    H169499   1.615   0.758  16.536  3.6084  1.2595 -0.5065
16028TIP3    H269500   1.599   0.833  16.667 -1.7629 -0.3869 -0.0867
16029TIP3   OH269501   0.963   1.787  16.755 -0.2881 -0.1214  0.3429
16029TIP3    H169502   0.909   1.754  16.827  0.9289 -1.2476  0.7644
16029TIP3    H269503   1.009   1.709  16.722 -1.6404  0.1696 -2.3895
16030TIP3   OH269504   2.293   0.584  13.719  0.9769  0.2292 -0.1236
16030TIP3    H169505   2.333   0.500  13.697  1.1477 -0.4142  2.5524
16030TIP3    H269506   2.366   0.637  13.751  1.1364  1.9261 -3.1331
16031TIP3   OH269507   3.684   4.729  13.888 -0.2090  0.7214 -0.2601
16031TIP3    H169508   3.698   4.673  13.812  0.0058  1.2809 -0.6437
16031TIP3    H269509   3.756   4.791  13.886 -0.2333  0.7788  0.3722
16032TIP3   OH269510   2.634   3.779   3.490 -0.2716  0.0282  0.3776
16032TIP3    H169511   2.558   3.814   3.443  0.3225  0.2740 -0.4009
16032TIP3    H269512   2.682   3.728   3.425 -0.3848 -1.1061  1.1651
16033TIP3   OH269513   2.026   6.102  13.502  0.3374  0.4459 -0.4861
16033TIP3    H169514   2.031   6.026  13.443 -1.0622  0.5007 -0.6943
16033TIP3    H269515   2.116   6.134  13.507  0.7641 -0.6003 -1.2383
16034TIP3   OH269516   5.471   0.160   1.083 -0.0282  0.0211  0.0891
16034TIP3    H169517   5.413   0.230   1.114  0.4025  0.9910 -1.2260
16034TIP3    H269518   5.553   0.175   1.130  0.6481  1.5346 -1.4853
16035TIP3   OH269519   2.334   1.716  15.286 -0.2063 -0.1701 -0.6883
16035TIP3    H169520   2.397   1.775  15.244 -0.3420 -0.5873 -1.4795
16035TIP3    H269521   2.365   1.708  15.376  0.6045  0.0001 -0.9507
16036TIP3   OH269522   5.685   3.463   3.966  0.2041 -0.0771  0.0129
16036TIP3    H169523   5.766   3.514   3.976  0.2038  0.2448 -1.4560
16036TIP3    H269524   5.630   3.492   4.038  0.6320  1.2014 -0.1586
16037TIP3   OH269525   2.927   4.841  14.339 -0.1777 -0.4466 -0.4914
16037TIP3    H169526   2.944   4.748  14.356  0.0074 -0.2355  0.4979
16037TIP3    H269527   2.849   4.861  14.390 -0.2122 -0.0485 -0.6971
16038TIP3   OH269528   6.374   1.967  14.122  0.4608  0.2915  0.0692
16038TIP3    H169529   6.435   1.974  14.196 -1.5102 -0.4547  1.7902
16038TIP3    H269530   6.334   1.881  14.131 -0.0489  0.3229 -1.6967
16039TIP3   OH269531   3.017   0.557   4.534  0.0397  0.0988 -0.0286
16039TIP3    H169532   2.974   0.509   4.605 -1.9386  1.4541 -0.2708
16039TIP3    H269533   2.983   0.516   4.454 -2.3326  2.3654 -0.2591
16040TIP3   OH269534   0.907   1.110   4.273 -0.2442  0.2498 -0.2265
16040TIP3    H169535   0.954   1.064   4.203  0.4226  0.3235  0.1691
16040TIP3    H269536   0.951   1.194   4.280 -0.1119  0.1234  0.4917
16041TIP3   OH269537   0.329   3.325   0.484 -0.2841 -0.1145 -0.2704
16041TIP3    H169538   0.424   3.310   0.483 -0.1322  0.8066 -0.3207
16041TIP3    H269539   0.318   3.412   0.443 -0.9475  0.8281  1.8514
16042TIP3   OH269540   4.715   3.989   6.634 -0.0447  0.0654  0.7852
16042TIP3    H169541   4.794   3.950   6.595  0.1842 -0.3001  1.5835
16042TIP3    H269542   4.647   3.924   6.620 -0.5058  0.9275 -1.0112
16043TIP3   OH269543   3.746   0.870   2.188 -0.4657  0.9268  0.3624
16043TIP3    H169544   3.790   0.806   2.133  0.2654  1.6859  0.0517
16043TIP3    H269545   3.690   0.818   2.245  0.4097 -0.0148  0.3805
16044TIP3   OH269546   0.842   0.566  12.927  0.1585 -0.3266  0.2677
16044TIP3    H169547   0.862   0.521  12.844  2.3466  0.7989  0.1680
16044TIP3    H269548   0.746   0.572  12.927  0.1568  0.7143 -2.7566
16045TIP3   OH269549   5.291   2.807  16.309 -0.4483  0.2886 -0.4692
16045TIP3    H169550   5.206   2.803  16.352 -0.6797  0.3496 -0.9231
16045TIP3    H269551   5.273   2.786  16.218 -0.2025  1.8164 -0.8800
16046TIP3   OH269552   4.850   5.380   0.116 -0.1463 -0.2981  0.3619
16046TIP3    H169553   4.850   5.371   0.211  1.0423 -0.4317  0.3509
16046TIP3    H269554   4.942   5.381   0.091 -0.4282  0.6010 -0.7122
16047TIP3   OH269555   4.708   1.688   4.684 -0.0559 -0.0241 -0.2463
16047TIP3    H169556   4.750   1.690   4.770  0.1612  0.8374 -0.3715
16047TIP3    H269557   4.738   1.767   4.641 -1.7039  0.5501 -0.3895
16048TIP3   OH269558   4.975   0.609  16.623 -0.0832 -0.1047  0.3530
16048TIP3    H169559   5.063   0.603  16.585  0.1011  1.3924  0.5096
16048TIP3    H269560   4.921   0.553  16.567  0.5976  0.4668 -0.8985
16049TIP3   OH269561   6.513   4.456   4.733 -0.2281  0.0618  0.3515
16049TIP3    H169562   6.456   4.491   4.664 -2.0182 -0.8169  1.3526
16049TIP3    H269563   6.551   4.534   4.774  0.7624  0.6036 -1.5091
16050TIP3   OH269564   4.641   4.027   3.768  0.0900 -0.2529  0.6103
16050TIP3    H169565   4.633   4.111   3.815 -3.6356  0.9553 -1.9886
16050TIP3    H269566   4.730   4.028   3.732  0.5591  1.9507  1.7401
16051TIP3   OH269567   1.374   1.405   4.205  0.4194 -0.4470 -0.4677
16051TIP3    H169568   1.397   1.324   4.251  1.4563  0.1959  0.1469
16051TIP3    H269569   1.372   1.472   4.273  0.0350  0.1425 -1.0494
16052TIP3   OH269570   1.596   2.682  15.440 -0.1779 -0.0454 -0.8446
16052TIP3    H169571   1.533   2.753  15.453 -0.1402 -0.1209 -0.1938
16052TIP3    H269572   1.552   2.619  15.383 -1.1430 -0.6604  0.5456
16053TIP3   OH269573   5.268   0.618   1.878 -0.3801 -0.4422 -0.1290
16053TIP3    H169574   5.180   0.657   1.880 -0.1661  0.4166 -3.9619
16053TIP3    H269575   5.325   0.689   1.850  1.7738 -0.7460  3.2121
16054TIP3   OH269576   4.944   3.692  14.687 -0.0433  0.3486 -0.4031
16054TIP3    H169577   4.902   3.770  14.651  0.6939  0.5367 -0.8660
16054TIP3    H269578   5.017   3.675  14.628 -0.5382 -1.0341 -0.6339
16055TIP3   OH269579   1.398   3.973  13.590  0.9138 -0.3904 -0.2239
16055TIP3    H169580   1.387   3.902  13.654 -3.6427 -0.8413 -1.3167
16055TIP3    H269581   1.421   4.050  13.643 -0.3839 -1.3012  1.7094
16056TIP3   OH269582   0.089   4.087  14.499 -0.4487  0.3077 -0.0100
16056TIP3    H169583   0.064   4.087  14.406 -1.0653 -0.8812  0.1604
16056TIP3    H269584   0.062   4.174  14.530 -1.2900  0.2954 -0.6656
16057TIP3   OH269585   6.397   3.908   1.373  0.1038 -0.3195  0.6982
16057TIP3    H169586   6.412   3.816   1.350  0.5219 -0.4242  1.3527
16057TIP3    H269587   6.380   3.951   1.290 -4.1620 -1.6951  0.7605
16058TIP3   OH269588   1.082   0.954  14.451 -0.5280  0.3939 -0.2377
16058TIP3    H169589   1.027   0.921  14.522  0.2318  1.0846  0.6739
16058TIP3    H269590   1.167   0.970  14.492 -0.3866  1.7862 -1.0684
16059TIP3   OH269591   2.369   3.471   0.504 -0.6929 -0.1879  0.0748
16059TIP3    H169592   2.360   3.424   0.422  0.0361 -0.6583  0.2656
16059TIP3    H269593   2.324   3.554   0.489 -2.8568 -1.3293  0.0707
16060TIP3   OH269594   1.629   2.937   0.339 -0.4944  0.0684  0.2308
16060TIP3    H169595   1.613   2.847   0.312  0.3306 -0.3729  1.1721
16060TIP3    H269596   1.607   2.938   0.432  1.7390  0.2468  0.7791
16061TIP3   OH269597   5.845   0.710  11.121 -0.3239 -0.4037 -0.5126
16061TIP3    H169598   5.871   0.621  11.099 -0.6325 -0.5313 -0.3693
16061TIP3    H269599   5.822   0.750  11.037 -3.4247 -1.5028 -0.2750
16062TIP3   OH269600   0.512   2.948   1.153  0.2965  0.5020  0.1309
16062TIP3    H169601   0.442   2.978   1.094 -0.7601 -0.0823  1.0899
16062TIP3    H269602   0.571   2.899   1.096 -0.9919 -0.5069 -0.3556
16063TIP3   OH269603   2.956   2.995  15.533  0.2557  0.0619  0.0294
16063TIP3    H169604   3.033   2.950  15.568  0.8305  1.8028  1.0735
16063TIP3    H269605   2.982   3.087  15.528 -1.6437  0.6261  0.1068
16064TIP3   OH269606   2.043   1.129  11.479 -0.7305  0.1488 -0.0217
16064TIP3    H169607   2.102   1.099  11.410  1.3256  0.9960  1.3000
16064TIP3    H269608   2.009   1.213  11.448 -1.0869 -0.2432 -0.6958
16065TIP3   OH269609   6.041   0.686   1.647 -0.4017  0.3141  0.0464
16065TIP3    H169610   6.094   0.642   1.714 -2.0155 -0.6917  0.7005
16065TIP3    H269611   6.104   0.731   1.592  1.1632 -1.2381  0.5297
16066TIP3   OH269612   4.017   4.349   5.279 -0.2691 -0.1281 -0.2247
16066TIP3    H169613   4.086   4.416   5.278 -1.1511  0.7782 -1.0172
16066TIP3    H269614   4.017   4.313   5.190  0.0854 -1.0733  0.1484
16067TIP3   OH269615   0.734   1.910  14.569 -0.5436  0.5140 -0.2519
16067TIP3    H169616   0.798   1.945  14.632  0.5287  1.2277 -1.6905
16067TIP3    H269617   0.716   1.821  14.600  0.4777  0.6134  0.6728
16068TIP3   OH269618   6.197   3.374   5.945  0.1371  0.3271  0.2278
16068TIP3    H169619   6.160   3.288   5.968 -1.4805  0.2819 -2.2894
16068TIP3    H269620   6.287   3.356   5.920  0.8751 -0.0993  2.9972
16069TIP3   OH269621   4.273   6.094   0.503  0.2569 -0.4185 -0.6081
16069TIP3    H169622   4.261   6.000   0.485 -0.0643 -0.6536  0.8328
16069TIP3    H269623   4.186   6.132   0.493 -0.0044 -0.6184  0.8105
16070TIP3   OH269624   3.235   5.072  14.490 -0.2452 -0.7902 -0.1966
16070TIP3    H169625   3.201   5.154  14.453 -0.9207 -0.1110  1.8459
16070TIP3    H269626   3.330   5.078  14.476 -0.1586  0.8969  0.9322
16071TIP3   OH269627   5.606   2.362  11.406 -0.3394 -0.1586 -0.5050
16071TIP3    H169628   5.658   2.368  11.486 -1.9309 -0.4638  0.5847
16071TIP3    H269629   5.597   2.452  11.377 -0.3387  0.0226  0.0490
16072TIP3   OH269630   1.030   4.636  14.136  0.5577 -0.3543 -0.2995
16072TIP3    H169631   1.021   4.576  14.063 -2.1284  1.0463 -1.2008
16072TIP3    H269632   1.075   4.712  14.100  1.5298 -0.7098  0.1541
16073TIP3   OH269633   3.977   4.414  12.633 -0.0287  0.2217  0.3875
16073TIP3    H169634   3.898   4.363  12.649  0.8438 -2.4035 -3.0391
16073TIP3    H269635   3.957   4.465  12.554  1.9126 -1.0824 -0.9956
16074TIP3   OH269636   1.981   5.865   5.847 -0.0470 -0.7955 -0.6669
16074TIP3    H169637   1.968   5.771   5.834 -0.1509 -0.7546 -0.8617
16074TIP3    H269638   1.999   5.874   5.940 -1.6014 -0.8423 -0.3434
16075TIP3   OH269639   5.650   0.440   3.310 -0.1576  0.0403 -0.6234
16075TIP3    H169640   5.742   0.463   3.321 -0.0790  0.3574 -1.8516
16075TIP3    H269641   5.639   0.429   3.216 -1.2734 -0.4492 -0.4466
16076TIP3   OH269642   4.846   0.316   4.368  0.2939  0.2926  0.0977
16076TIP3    H169643   4.933   0.280   4.387  0.0890  0.7373  1.8899
16076TIP3    H269644   4.861   0.375   4.294  1.4054 -0.0958 -0.0002
16077TIP3   OH269645   6.770   5.414  13.003 -0.1876 -0.4509  0.4742
16077TIP3    H169646   6.725   5.341  13.047 -0.6397 -0.4439  0.0228
16077TIP3    H269647   6.821   5.455  13.073 -0.9823 -0.3850  1.0202
16078TIP3   OH269648   6.294   1.086   5.832 -0.6669 -0.4113  0.2515
16078TIP3    H169649   6.335   1.131   5.906  0.1022 -1.3800  0.4284
16078TIP3    H269650   6.286   0.995   5.860 -0.8492 -0.6852 -0.6565
16079TIP3   OH269651   2.160   3.101  16.844 -0.2948 -0.0973 -0.5818
16079TIP3    H169652   2.101   3.125  16.916 -0.8273  1.7490 -1.5863
16079TIP3    H269653   2.102   3.063  16.778 -0.1918  0.5491 -1.0495
16080TIP3   OH269654   1.322   0.014  15.161  0.2747  0.7682 -0.7393
16080TIP3    H169655   1.292   0.072  15.232  1.4447 -0.1745  0.5590
16080TIP3    H269656   1.386   0.066  15.113  1.0549  0.6952  0.2047
16081TIP3   OH269657   5.035   5.259   4.498  0.4109 -0.2938 -0.0233
16081TIP3    H169658   4.975   5.187   4.480  0.1921  0.2253 -1.4698
16081TIP3    H269659   5.085   5.231   4.574 -0.5896 -1.3998  0.2341
16082TIP3   OH269660   3.210   4.130  12.213 -0.0912  0.7544  0.5780
16082TIP3    H169661   3.122   4.161  12.195 -0.1409  0.6669  0.6680
16082TIP3    H269662   3.197   4.041  12.246 -0.0352  1.0894  1.5286
16083TIP3   OH269663   5.530   0.892   2.765  0.1937  0.5940 -0.8872
16083TIP3    H169664   5.529   0.896   2.861 -1.2584  0.5230 -0.8827
16083TIP3    H269665   5.568   0.975   2.738 -1.3768  1.5398 -0.2720
16084TIP3   OH269666   0.960   6.423  15.788 -0.1742 -0.3722  0.4116
16084TIP3    H169667   0.892   6.487  15.806  0.7335  1.0637 -1.0238
16084TIP3    H269668   0.914   6.340  15.778 -1.5006  0.2648  1.2257
16085TIP3   OH269669   2.718   0.775   3.637 -0.4423 -0.6808  0.0733
16085TIP3    H169670   2.701   0.851   3.580  0.3376 -1.0582 -0.6593
16085TIP3    H269671   2.765   0.713   3.582 -0.5912 -1.4807  0.8360
16086TIP3   OH269672   1.073   1.720   2.157 -0.5977  0.3567  0.0028
16086TIP3    H169673   1.139   1.733   2.089 -0.2848 -1.8674 -0.1801
16086TIP3    H269674   1.101   1.775   2.230  0.0603  1.3750 -1.0126
16087TIP3   OH269675   2.397   0.894  16.861  0.3771  0.4407  0.4816
16087TIP3    H169676   2.452   0.824  16.896 -1.1894 -0.4682  1.1683
16087TIP3    H269677   2.320   0.895  16.917 -0.7603  1.0485 -1.0578
16088TIP3   OH269678   1.724   5.410  11.596 -0.2337  0.2154  0.6292
16088TIP3    H169679   1.698   5.502  11.594 -1.9890 -0.2456  1.5308
16088TIP3    H269680   1.645   5.362  11.574  0.7831 -1.0778 -0.2860
16089TIP3   OH269681   2.233   2.328  16.085 -0.1742  0.3238 -0.3508
16089TIP3    H169682   2.277   2.412  16.069 -0.7239  0.5855 -0.4923
16089TIP3    H269683   2.256   2.307  16.175 -1.3567  1.4397  0.2361
16090TIP3   OH269684   1.946   5.386   0.421  0.5098 -0.2446  0.3503
16090TIP3    H169685   1.931   5.310   0.366  0.9360 -0.7709  0.9569
16090TIP3    H269686   2.014   5.435   0.374 -0.1579  0.0605 -0.3217
16091TIP3   OH269687   4.681   6.106  16.878  0.2744  0.2130 -0.1169
16091TIP3    H169688   4.731   6.157  16.942 -0.5556  1.1144 -0.1713
16091TIP3    H269689   4.678   6.018  16.914  0.5852  0.5071  0.6294
16092TIP3   OH269690   5.775   6.116  14.943  0.1488  0.0945 -0.2458
16092TIP3    H169691   5.696   6.150  14.901 -0.5372 -1.2641 -0.0771
16092TIP3    H269692   5.768   6.021  14.934  0.6350 -0.1508  1.7859
16093TIP3   OH269693   5.003   6.731   2.820  0.4706 -0.6405  0.1993
16093TIP3    H169694   4.927   6.675   2.834  0.7013 -0.7234  1.1683
16093TIP3    H269695   4.969   6.805   2.770 -0.0221 -1.2011 -0.3044
16094TIP3   OH269696   0.398   0.162  13.653 -0.1936  0.6929 -0.2029
16094TIP3    H169697   0.355   0.078  13.636 -0.4514  0.7982 -0.0827
16094TIP3    H269698   0.387   0.176  13.747  1.2764  0.0825  0.0611
16095TIP3   OH269699   3.236   5.484   4.045  0.1979  0.3754  0.0638
16095TIP3    H169700   3.294   5.469   4.120  0.9250  2.6138 -0.0150
16095TIP3    H269701   3.260   5.415   3.982  1.0825 -0.1943  1.0035
16096TIP3   OH269702   2.574   6.420  16.777  0.4424 -0.2251  0.2662
16096TIP3    H169703   2.493   6.371  16.764  0.7991 -2.2120  4.8258
16096TIP3    H269704   2.548   6.498  16.826  1.0909 -0.1282  0.4682
16097TIP3   OH269705   4.460   3.717  12.481  0.3859 -0.6902 -0.5032
16097TIP3    H169706   4.550   3.743  12.504 -0.0894  1.6366 -1.0995
16097TIP3    H269707   4.414   3.800  12.470 -1.9757 -1.8663  0.2517
16098TIP3   OH269708   6.068   0.483   5.979  0.1318 -0.0655 -0.1201
16098TIP3    H169709   6.016   0.551   5.936 -0.9976 -0.5085  0.5157
16098TIP3    H269710   6.125   0.449   5.910  1.4217  2.1836 -0.2290
16099TIP3   OH269711   0.562   5.692   2.944  0.1226  0.1395  0.4743
16099TIP3    H169712   0.584   5.710   2.853  1.9893  3.1973  1.4260
16099TIP3    H269713   0.601   5.607   2.962  3.0613  1.1854 -0.5897
16100TIP3   OH269714   6.088   0.080  16.325 -0.6134 -0.1859  0.7053
16100TIP3    H169715   5.995   0.081  16.347 -0.7726 -0.3853  0.0768
16100TIP3    H269716   6.129   0.139  16.388 -1.4127  1.2282 -0.0620
16101TIP3   OH269717   1.727   3.438  16.422  0.1458 -0.3293 -0.2635
16101TIP3    H169718   1.818   3.410  16.433  0.3705 -0.4778 -2.1834
16101TIP3    H269719   1.731   3.534  16.421  0.4730 -0.3424 -1.5595
16102TIP3   OH269720   4.872   3.220   0.363 -0.2211 -0.4563  0.1442
16102TIP3    H169721   4.960   3.215   0.401 -0.2253 -0.6712  0.1240
16102TIP3    H269722   4.872   3.155   0.293 -0.7650 -1.2518  0.8775
16103TIP3   OH269723   1.776   3.853  15.489 -0.4458  0.0255  0.2623
16103TIP3    H169724   1.776   3.937  15.444  2.1718  0.9601  1.8690
16103TIP3    H269725   1.699   3.855  15.545 -0.5631  1.2339  0.0641
16104TIP3   OH269726   3.520   4.094  14.481 -0.2841 -0.3573 -0.0201
16104TIP3    H169727   3.464   4.145  14.422 -0.8990 -0.1250  0.7438
16104TIP3    H269728   3.600   4.079  14.432 -0.6630  0.1137 -0.7924
16105TIP3   OH269729   2.456   4.692  12.618  0.1994 -0.7120  0.1843
16105TIP3    H169730   2.450   4.644  12.535  2.4039 -0.5345 -0.1214
16105TIP3    H269731   2.534   4.747  12.607 -1.6545  2.1528  0.9103
16106TIP3   OH269732   2.908   4.289   1.988 -0.1107 -0.0711 -0.3010
16106TIP3    H169733   2.875   4.323   1.905  0.6509 -1.1163 -1.0430
16106TIP3    H269734   2.953   4.363   2.028  0.7154  0.0645 -1.4622
16107TIP3   OH269735   1.900   2.400  15.360 -0.1818 -0.0165  0.8805
16107TIP3    H169736   1.979   2.449  15.339 -0.0610 -0.1626  0.9953
16107TIP3    H269737   1.913   2.370  15.450 -1.1097  1.4393  1.5333
16108TIP3   OH269738   0.535   4.190   4.644  0.1524  0.1581  0.0793
16108TIP3    H169739   0.592   4.136   4.699  1.2518  0.6378 -0.5818
16108TIP3    H269740   0.515   4.134   4.568  1.0667  0.5702 -0.4716
16109TIP3   OH269741   1.830   5.499  10.872 -0.4782 -0.1470 -0.6520
16109TIP3    H169742   1.817   5.477  10.964 -1.1758 -0.2630 -0.7763
16109TIP3    H269743   1.743   5.523  10.840 -0.4214 -1.0506 -1.5279
16110TIP3   OH269744   5.724   0.680  16.893  0.2968  0.0575  0.2196
16110TIP3    H169745   5.778   0.757  16.874  1.0140 -0.0807  1.6257
16110TIP3    H269746   5.695   0.650  16.807 -0.0628  1.9440 -0.3454
16111TIP3   OH269747   3.074   4.066  11.235 -0.6737 -0.1278 -0.1309
16111TIP3    H169748   3.073   4.057  11.140 -1.0850  3.1813 -0.5015
16111TIP3    H269749   2.988   4.103  11.257 -0.5318 -0.7316  1.4973
16112TIP3   OH269750   5.274   0.595  13.463 -0.1477  0.4397 -0.1660
16112TIP3    H169751   5.337   0.604  13.392  0.1451  0.1493  0.0607
16112TIP3    H269752   5.232   0.681  13.469  1.3094  1.0978  0.7082
16113TIP3   OH269753   4.054   3.326   4.847 -0.1913 -1.0388 -0.7362
16113TIP3    H169754   4.119   3.258   4.833  2.0078  1.3848 -2.7365
16113TIP3    H269755   4.032   3.319   4.940  1.8220 -2.8299 -0.3448
16114TIP3   OH269756   5.021   5.385  15.563  0.3647 -0.5432  0.1573
16114TIP3    H169757   5.039   5.332  15.640  1.2982 -1.7363 -0.8739
16114TIP3    H269758   4.934   5.357  15.534  0.4440 -0.8100  0.1783
16115TIP3   OH269759   2.969   4.979  12.516  0.6312  0.0687 -0.2015
16115TIP3    H169760   3.062   4.996  12.504  0.3674  1.4245 -0.4269
16115TIP3    H269761   2.934   4.971  12.427 -0.0281  2.8305 -0.2423
16116TIP3   OH269762   2.373   0.056   2.025  0.2766 -0.2518 -0.0514
16116TIP3    H169763   2.287   0.031   1.991 -0.9034  1.7152  1.3102
16116TIP3    H269764   2.423   0.084   1.949 -0.5323 -0.8217 -0.7912
16117TIP3   OH269765   1.174   1.354   4.026  0.3378  0.4330 -0.4084
16117TIP3    H169766   1.246   1.382   4.083  0.4144 -0.1365 -0.2196
16117TIP3    H269767   1.214   1.292   3.966  0.1386  0.6127 -0.7263
16118TIP3   OH269768   0.715   6.128  17.108  0.1547  0.0333 -0.1682
16118TIP3    H169769   0.646   6.154  17.170 -0.5634 -0.1568 -0.8842
16118TIP3    H269770   0.736   6.208  17.060  3.0305  0.9907  2.5122
16119TIP3   OH269771   4.101   3.996   3.182  0.3600  0.0451  0.1787
16119TIP3    H169772   4.107   4.064   3.249  1.4788  1.0248 -0.8926
16119TIP3    H269773   4.073   4.042   3.103  0.5057 -0.8444 -0.3964
16120TIP3   OH269774   3.159   2.851   0.480 -0.2255 -0.2262 -0.3431
16120TIP3    H169775   3.156   2.945   0.493  2.2230 -0.3564  1.4985
16120TIP3    H269776   3.235   2.837   0.424  0.3307 -1.2055  0.6327
16121TIP3   OH269777   6.171   3.769   5.700  0.3609 -0.0136  0.2483
16121TIP3    H169778   6.200   3.856   5.673 -1.9980  0.4688 -0.7973
16121TIP3    H269779   6.182   3.770   5.796  0.8716  1.2237  0.1941
16122TIP3   OH269780   3.594   0.849  15.094 -0.2941 -0.0969 -0.0271
16122TIP3    H169781   3.621   0.844  15.002  5.5452 -0.1032  1.4805
16122TIP3    H269782   3.617   0.763  15.130  0.3248  0.9424  2.0953
16123TIP3   OH269783   4.720   5.897  14.965  0.1480  0.6747  0.3848
16123TIP3    H169784   4.749   5.849  15.042  0.0416 -0.2600 -0.1550
16123TIP3    H269785   4.762   5.983  14.973 -0.9448  1.0686  2.1696
16124TIP3   OH269786   4.118   1.894   1.787 -0.2801 -0.1215 -0.0319
16124TIP3    H169787   4.171   1.888   1.707  1.4575  0.2251  1.0699
16124TIP3    H269788   4.033   1.927   1.757  0.5086  0.4611 -1.6834
16125TIP3   OH269789   3.361   3.137  12.405  0.2248 -0.0919  0.4623
16125TIP3    H169790   3.456   3.152  12.407  0.2325 -0.2551  1.7560
16125TIP3    H269791   3.330   3.185  12.329  1.4764 -0.7340 -0.4695
16126TIP3   OH269792   4.393   3.443  12.808  0.1650 -0.2145  0.0554
16126TIP3    H169793   4.482   3.478  12.803 -0.3072  1.5787  2.7643
16126TIP3    H269794   4.383   3.418  12.900 -2.1796 -0.2263 -0.1844
16127TIP3   OH269795   1.066   3.082   5.033 -0.0729 -0.0344 -0.2312
16127TIP3    H169796   1.127   3.008   5.041  0.2458  0.4042  1.4844
16127TIP3    H269797   1.010   3.075   5.110  1.7618  3.1213  1.4895
16128TIP3   OH269798   0.479   0.681  12.116  0.4293  0.0889 -0.4162
16128TIP3    H169799   0.564   0.640  12.134 -0.0343 -0.6774  0.0388
16128TIP3    H269800   0.491   0.723  12.030  1.0175 -0.6881 -0.7218
16129TIP3   OH269801   4.172   0.700   4.024 -0.1211  0.0534  0.5988
16129TIP3    H169802   4.246   0.668   4.075 -1.6305 -0.5490  2.4726
16129TIP3    H269803   4.137   0.622   3.981  1.0400  0.5299 -1.3030
16130TIP3   OH269804   3.328   4.991   4.969 -0.2324 -0.5941  0.1844
16130TIP3    H169805   3.391   4.923   4.944  0.6399  0.6451 -1.0721
16130TIP3    H269806   3.353   5.067   4.917 -2.2128  0.2088  0.3612
16131TIP3   OH269807   2.487   4.824  11.808  0.0320  0.2492  0.4285
16131TIP3    H169808   2.416   4.840  11.747 -0.0858 -1.2869  0.1226
16131TIP3    H269809   2.564   4.808  11.753 -0.2422 -1.9332  0.6111
16132TIP3   OH269810   3.505   4.913  14.020 -0.5700  0.0926 -0.4783
16132TIP3    H169811   3.583   4.865  13.991 -0.3429  0.3850 -0.3501
16132TIP3    H269812   3.509   4.909  14.116 -0.3731  0.6519 -0.4604
16133TIP3   OH269813   1.675   1.299  16.235 -0.1054 -0.4080  0.0148
16133TIP3    H169814   1.754   1.335  16.196 -1.4705  1.4084 -1.1039
16133TIP3    H269815   1.619   1.276  16.161 -0.9949 -0.8571  0.8082
16134TIP3   OH269816   1.446   5.194  11.495 -0.7650  0.0039  0.1528
16134TIP3    H169817   1.451   5.213  11.588 -0.8179  0.1521  0.1275
16134TIP3    H269818   1.419   5.103  11.489  1.2032 -0.6102  0.2820
16135TIP3   OH269819   4.298   5.098  15.703  0.0573 -0.4768  0.2985
16135TIP3    H169820   4.274   5.009  15.678  0.6232 -0.3333 -0.7956
16135TIP3    H269821   4.394   5.099  15.699  0.1410 -0.3211  2.0915
16136TIP3   OH269822   3.550   3.636  13.314  0.1887  0.1915 -0.0749
16136TIP3    H169823   3.505   3.631  13.398 -1.0558 -0.5600 -0.7641
16136TIP3    H269824   3.504   3.573  13.259  1.6645 -0.0914 -1.0098
16137TIP3   OH269825   5.127   4.397  16.620 -0.4439 -0.1608  0.5486
16137TIP3    H169826   5.102   4.305  16.611 -0.8813 -0.0966  1.0876
16137TIP3    H269827   5.047   4.441  16.648 -0.1700  0.3419  0.5403
16138TIP3   OH269828   2.307   3.113   2.349  0.1137 -0.2900  0.5106
16138TIP3    H169829   2.346   3.102   2.436  0.1186 -1.9567  0.3276
16138TIP3    H269830   2.262   3.197   2.353  1.3251  0.3133  1.6542
16139TIP3   OH269831   0.556   0.244  15.376  0.1216 -0.2246  0.4736
16139TIP3    H169832   0.552   0.152  15.402  1.4523 -0.4944 -0.2491
16139TIP3    H269833   0.563   0.241  15.280  2.2601  0.5639  0.5815
16140TIP3   OH269834   4.852   3.553   5.881  0.0516  0.3974  0.0881
16140TIP3    H169835   4.776   3.498   5.860 -0.0322  0.7424 -0.5271
16140TIP3    H269836   4.925   3.491   5.886  0.0975  0.3113 -1.3666
16141TIP3   OH269837   1.047   5.667   1.027 -0.2209 -0.3239  0.7783
16141TIP3    H169838   1.025   5.747   0.980  0.8385 -1.1488 -1.1755
16141TIP3    H269839   0.998   5.598   0.983  0.4141 -1.0395  1.1732
16142TIP3   OH269840   2.549   3.147  12.004  0.0429 -0.4109  0.2113
16142TIP3    H169841   2.475   3.181  12.055 -0.9459  0.5194 -1.7844
16142TIP3    H269842   2.625   3.190  12.042 -0.4775 -0.8847  1.8783
16143TIP3   OH269843   1.379   4.161  14.993  0.0139  0.1344 -0.4925
16143TIP3    H169844   1.416   4.086  15.038  1.4530  0.9300 -0.3032
16143TIP3    H269845   1.301   4.184  15.043 -1.7706 -2.6454 -1.9050
16144TIP3   OH269846   4.522   6.376   4.601 -0.3570 -0.2172  0.7441
16144TIP3    H169847   4.433   6.398   4.628 -0.3540  0.8459 -0.0543
16144TIP3    H269848   4.570   6.367   4.683 -0.9354  0.3420  1.1526
16145TIP3   OH269849   3.221   5.587  12.132  0.2746  1.1812  0.3868
16145TIP3    H169850   3.253   5.509  12.086  0.1867  1.6979 -0.5429
16145TIP3    H269851   3.126   5.582  12.123  0.1654  0.5977  1.6338
16146TIP3   OH269852   6.287   2.655  15.173  1.0377 -0.2344  0.4221
16146TIP3    H169853   6.341   2.662  15.094 -0.5433  0.5865 -0.6164
16146TIP3    H269854   6.277   2.746  15.203  1.6055 -0.5395  1.5732
16147TIP3   OH269855   6.511   1.685  11.477  0.0889 -0.1562  0.1287
16147TIP3    H169856   6.496   1.591  11.468  0.4087 -0.0431 -1.8251
16147TIP3    H269857   6.436   1.718  11.526 -1.1228 -1.0899 -1.0869
16148TIP3   OH269858   5.708   6.540  14.276 -0.2582  0.3347  0.4734
16148TIP3    H169859   5.706   6.542  14.180 -0.5943 -0.2411  0.4689
16148TIP3    H269860   5.619   6.515  14.301 -0.3893  1.2668  0.9569
16149TIP3   OH269861   3.578   5.375   6.715 -0.0335 -0.6164  0.1513
16149TIP3    H169862   3.609   5.464   6.703 -0.3877 -0.4479  0.4833
16149TIP3    H269863   3.499   5.369   6.662  0.5295 -1.0416 -0.6755
16150TIP3   OH269864   3.481   0.953  14.300  0.7106 -0.3220 -0.1185
16150TIP3    H169865   3.426   1.002  14.362  1.2049  1.3832 -0.9818
16150TIP3    H269866   3.443   0.866  14.298  0.5372 -0.3430  2.4000
16151TIP3   OH269867   4.240   5.754   3.820  0.6056  0.1600 -0.1554
16151TIP3    H169868   4.197   5.721   3.741  0.0219  0.1854  0.1450
16151TIP3    H269869   4.258   5.846   3.801  1.5150 -0.1304 -0.6943
16152TIP3   OH269870   2.485   4.592   1.397  0.1421  0.3044  0.2324
16152TIP3    H169871   2.546   4.581   1.469 -0.7509  0.6037  1.0470
16152TIP3    H269872   2.536   4.574   1.319  1.6051  1.7911  0.8215
16153TIP3   OH269873   1.062   1.030   2.733 -0.3751  0.0594  0.1683
16153TIP3    H169874   1.146   0.992   2.707 -0.0413  2.1338 -1.8576
16153TIP3    H269875   1.044   0.989   2.818  2.6984 -0.3776  0.6917
16154TIP3   OH269876   1.190   5.088  11.199  0.5565 -0.4975 -0.3171
16154TIP3    H169877   1.159   5.156  11.139  3.8352  1.1097 -0.3043
16154TIP3    H269878   1.168   5.120  11.286  4.4184  1.9698 -0.1247
16155TIP3   OH269879   1.405   3.359   0.906 -0.6381  0.3547  0.6039
16155TIP3    H169880   1.383   3.272   0.938  1.5312 -0.3205  0.3377
16155TIP3    H269881   1.482   3.385   0.956  2.7428 -0.6506 -3.7334
16156TIP3   OH269882   0.972   3.958   0.700 -0.0039 -0.4685 -0.2560
16156TIP3    H169883   1.013   4.025   0.645  1.3864 -2.2209 -1.3976
16156TIP3    H269884   0.982   3.991   0.790  2.2606  0.0347 -0.6611
16157TIP3   OH269885   5.895   6.617  11.882 -0.4307 -0.1953  0.5825
16157TIP3    H169886   5.963   6.551  11.892  0.1819  0.5729  1.4895
16157TIP3    H269887   5.833   6.578  11.819  0.4164 -1.2213  0.3733
16158TIP3   OH269888   0.266   6.234   3.287 -0.1240 -0.1123  0.3540
16158TIP3    H169889   0.272   6.169   3.357  1.3656 -0.8606 -0.4450
16158TIP3    H269890   0.339   6.293   3.301 -0.6709  0.6019  0.2711
16159TIP3   OH269891   2.644   0.907   0.322 -0.5944 -0.2824 -0.0355
16159TIP3    H169892   2.703   0.873   0.256 -0.2161  2.7814 -1.3374
16159TIP3    H269893   2.559   0.911   0.279 -0.2334  2.2662 -0.5873
16160TIP3   OH269894   2.374   4.954  12.061 -0.4137  0.2335 -0.5190
16160TIP3    H169895   2.417   5.037  12.084 -2.5949  1.4814 -0.8413
16160TIP3    H269896   2.427   4.919  11.989  1.4521  0.5292  0.6712
16161TIP3   OH269897   6.082   0.044   4.777 -0.4732  0.2015  0.3472
16161TIP3    H169898   6.087   0.129   4.733  1.0994 -0.3306 -0.5293
16161TIP3    H269899   6.159   0.041   4.834 -0.1642 -0.8899 -0.1085
16162TIP3   OH269900   5.402   4.737   5.374  0.7057 -0.3580 -0.6222
16162TIP3    H169901   5.493   4.719   5.351  0.1309 -1.9524 -1.7108
16162TIP3    H269902   5.375   4.662   5.426 -0.3983 -0.5486 -1.4646
16163TIP3   OH269903   2.627   2.895  13.207 -0.1391 -0.7663 -0.2345
16163TIP3    H169904   2.722   2.900  13.199 -0.2079 -1.2854 -1.5007
16163TIP3    H269905   2.597   2.985  13.195  0.0617 -0.8977 -1.6997
16164TIP3   OH269906   1.931   4.966  14.481 -0.1656 -0.6055  0.7253
16164TIP3    H169907   1.867   4.958  14.552 -1.8351 -0.4088 -0.7116
16164TIP3    H269908   1.995   4.897  14.498 -1.1359 -1.2458  1.8390
16165TIP3   OH269909   2.975   0.836  13.794  0.0245  0.1587  0.6750
16165TIP3    H169910   3.058   0.862  13.754 -1.0039  1.7719 -0.4545
16165TIP3    H269911   2.946   0.761  13.743 -0.3483  1.0420 -0.4405
16166TIP3   OH269912   3.860   2.673   3.375  0.2494 -0.0176 -0.4240
16166TIP3    H169913   3.909   2.603   3.420 -0.0913 -0.3455 -0.5613
16166TIP3    H269914   3.876   2.657   3.282  1.1893  0.8331 -0.4202
16167TIP3   OH269915   6.529   0.456  12.816  0.2602 -0.2732  0.0713
16167TIP3    H169916   6.534   0.406  12.735 -0.8001  0.0628 -0.2097
16167TIP3    H269917   6.436   0.453  12.841  0.1598  1.5565  0.0303
16168TIP3   OH269918   5.166   3.601   1.205  0.5423 -0.1186  0.7168
16168TIP3    H169919   5.092   3.591   1.265 -0.0467  0.6609  0.1358
16168TIP3    H269920   5.195   3.691   1.218  0.4270  0.0458 -0.1409
16169TIP3   OH269921   0.162   3.701  12.269 -0.2794  0.0400 -0.0373
16169TIP3    H169922   0.167   3.747  12.186  1.8772 -1.1211 -0.5801
16169TIP3    H269923   0.193   3.765  12.334 -2.9880  1.3117  0.0790
16170TIP3   OH269924   3.447   0.118   1.094 -0.1318 -0.4312 -0.2816
16170TIP3    H169925   3.534   0.117   1.054 -0.5468  0.2481 -1.2202
16170TIP3    H269926   3.464   0.109   1.188  1.0275  0.9123 -0.3477
16171TIP3   OH269927   1.507   6.230  17.024 -0.4387 -0.6911  0.3658
16171TIP3    H169928   1.421   6.271  17.013 -0.3466 -0.4545  0.5373
16171TIP3    H269929   1.489   6.136  17.022 -0.4695 -0.6523 -1.4395
16172TIP3   OH269930   2.695   3.995   0.635  0.0816  0.0811  0.1090
16172TIP3    H169931   2.696   4.010   0.541 -1.6327 -3.1078 -0.4739
16172TIP3    H269932   2.788   3.985   0.659  0.3819 -1.3976 -1.6388
16173TIP3   OH269933   6.015   3.793   3.644 -0.0953 -0.6337  0.3684
16173TIP3    H169934   5.968   3.875   3.652  0.1037 -0.4549 -0.2379
16173TIP3    H269935   6.084   3.798   3.711  0.2554 -0.0702 -0.0272
16174TIP3   OH269936   5.679   6.294   0.698 -0.5245  0.0183  0.0374
16174TIP3    H169937   5.722   6.346   0.765  1.0227  1.5924 -2.1063
16174TIP3    H269938   5.592   6.276   0.734  0.2101  0.9176  2.3834
16175TIP3   OH269939   1.672   5.754  16.539  0.0912 -0.1910 -0.0398
16175TIP3    H169940   1.723   5.675  16.524  1.3501  0.8377 -1.3850
16175TIP3    H269941   1.707   5.790  16.621  0.0938 -0.5960  0.1335
16176TIP3   OH269942   2.380   6.612   2.729  0.1736  0.1878 -0.3609
16176TIP3    H169943   2.444   6.552   2.691 -0.8571 -0.9767 -0.2833
16176TIP3    H269944   2.353   6.569   2.810 -1.5785  0.0992 -0.9727
16177TIP3   OH269945   4.485   3.484   4.264  0.5494  0.0210 -0.1634
16177TIP3    H169946   4.469   3.551   4.196 -2.2322  0.9432  1.3307
16177TIP3    H269947   4.529   3.413   4.217 -0.8405  0.8518 -2.8619
16178TIP3   OH269948   4.692   3.253  16.198  0.4962 -0.3908 -0.0932
16178TIP3    H169949   4.653   3.195  16.262  0.0653 -1.2868 -1.1421
16178TIP3    H269950   4.712   3.196  16.123  1.0133  0.6153 -0.7350
16179TIP3   OH269951   1.526   5.761  14.387 -0.2474  0.4334 -0.3199
16179TIP3    H169952   1.431   5.767  14.376 -0.4026 -0.0801  0.7119
16179TIP3    H269953   1.541   5.670  14.413  0.3072  1.0883  1.7608
16180TIP3   OH269954   4.891   3.930  13.722  0.3942 -0.0970  0.4191
16180TIP3    H169955   4.817   3.944  13.663  0.7378  0.1261  0.0325
16180TIP3    H269956   4.853   3.891  13.801 -0.3828  1.7276  0.9638
16181TIP3   OH269957   5.378   5.851   2.250  0.4709 -0.3433  0.4300
16181TIP3    H169958   5.285   5.837   2.234  0.5968 -0.6897 -0.0152
16181TIP3    H269959   5.422   5.790   2.191  1.0149  1.3260 -0.9236
16182TIP3   OH269960   1.056   6.702  16.088  0.4788 -0.0983 -0.1872
16182TIP3    H169961   1.007   6.668  16.013 -0.2232 -0.9188  0.6476
16182TIP3    H269962   1.105   6.627  16.122  0.1942  0.0920  0.6568
16183TIP3   OH269963   5.535   3.445  13.414 -0.6966  0.6896 -0.0756
16183TIP3    H169964   5.589   3.456  13.336  1.5407  0.4824  1.3931
16183TIP3    H269965   5.497   3.358  13.405  0.6496  0.1128 -0.2847
16184TIP3   OH269966   3.652   0.679  16.498 -0.2216 -0.0772  0.9897
16184TIP3    H169967   3.689   0.703  16.583  3.2711  0.9455 -0.7059
16184TIP3    H269968   3.728   0.678  16.439 -2.6864  0.0478 -2.2978
16185TIP3   OH269969   2.860   1.610  16.904 -0.0968  0.4180  0.0716
16185TIP3    H169970   2.774   1.570  16.890 -0.1499  0.6757 -0.3462
16185TIP3    H269971   2.859   1.638  16.996  0.5184 -1.9302  0.8267
16186TIP3   OH269972   2.356   3.101  11.562 -0.8046 -0.7129 -0.4669
16186TIP3    H169973   2.413   3.037  11.520 -0.2776  0.8923 -2.2785
16186TIP3    H269974   2.412   3.141  11.630 -0.3037 -0.3595 -1.0774
16187TIP3   OH269975   4.515   2.128  14.087  0.0739  0.3907  0.5908
16187TIP3    H169976   4.423   2.146  14.106  0.0020  0.0572  0.5618
16187TIP3    H269977   4.558   2.130  14.173  0.0026  0.3376  0.6275
16188TIP3   OH269978   0.497   1.705   4.548  0.2223  0.1423 -0.0559
16188TIP3    H169979   0.442   1.654   4.607  1.4613  1.3680  2.2148
16188TIP3    H269980   0.586   1.674   4.565  0.4507 -0.6036 -2.4510
16189TIP3   OH269981   1.960   0.639  16.849 -0.0194 -0.0661 -0.7051
16189TIP3    H169982   2.039   0.586  16.858  0.2078  0.4189  0.2405
16189TIP3    H269983   1.965   0.702  16.921 -1.7879 -0.7203  0.0174
16190TIP3   OH269984   5.604   5.567  13.319  0.1959  0.7406 -0.6623
16190TIP3    H169985   5.559   5.503  13.264  0.5329  0.4477 -0.5952
16190TIP3    H269986   5.546   5.579  13.394  1.1079 -1.0659  0.3636
16191TIP3   OH269987   5.381   1.371  12.576  0.1245 -0.3678 -0.4958
16191TIP3    H169988   5.335   1.371  12.492  1.3599 -0.2080 -1.1843
16191TIP3    H269989   5.383   1.279  12.602  0.2593 -0.4928 -0.9378
16192TIP3   OH269990   2.548   0.389   5.936 -0.1702 -0.2894 -0.4963
16192TIP3    H169991   2.529   0.479   5.909 -0.0842 -0.0583  0.1996
16192TIP3    H269992   2.487   0.373   6.008 -0.7937 -1.0986 -1.2027
16193TIP3   OH269993   0.834   5.042   1.218 -0.1533  0.1931 -0.1556
16193TIP3    H169994   0.887   5.050   1.297  1.1765  0.7333 -1.0794
16193TIP3    H269995   0.855   4.955   1.184  2.4660  1.5307 -2.1230
16194TIP3   OH269996   1.402   3.070  15.840  0.0812  0.3953 -0.0567
16194TIP3    H169997   1.389   3.080  15.934  0.1658  0.8700 -0.0969
16194TIP3    H269998   1.442   2.983  15.830 -1.3771 -0.3233  0.2191
16195TIP3   OH269999   5.569   0.724  13.851 -0.1543  0.2113 -0.6610
16195TIP3    H170000   5.562   0.771  13.934 -0.4395 -1.1732  0.1223
16195TIP3    H270001   5.662   0.710  13.838 -0.1316  0.1375 -0.4061
16196TIP3   OH270002   3.554   6.272   1.762  0.5575  0.3015 -0.0929
16196TIP3    H170003   3.561   6.229   1.848  2.1889  1.4077  0.3503
16196TIP3    H270004   3.643   6.269   1.727 -0.1166 -0.1771 -1.7870
16197TIP3   OH270005   3.151   0.131  15.350 -0.0285  0.0771 -0.1566
16197TIP3    H170006   3.239   0.154  15.322  0.2460 -0.3153  0.3637
16197TIP3    H270007   3.164   0.081  15.431 -0.5827 -2.1444 -1.4034
16198TIP3   OH270008   4.985   3.521  17.082 -0.7014  0.0934  0.0939
16198TIP3    H170009   4.896   3.485  17.083 -0.8959  0.4164 -2.1472
16198TIP3    H270010   4.996   3.560  17.169 -1.6525 -2.5153  1.4194
16199TIP3   OH270011   4.628   2.871  16.279  0.1050  0.0258 -0.3518
16199TIP3    H170012   4.562   2.824  16.330  0.5901 -1.1997 -0.8212
16199TIP3    H270013   4.585   2.892  16.196 -0.0217  0.1590 -0.2512
16200TIP3   OH270014   4.135   5.052  13.392 -0.1747  0.0304  1.3683
16200TIP3    H170015   4.202   5.105  13.351  0.7262 -0.8751  1.6471
16200TIP3    H270016   4.062   5.112  13.406 -0.0570  0.6318 -0.4513
16201TIP3   OH270017   5.371   4.542   5.594  0.0063 -0.0626  0.2314
16201TIP3    H170018   5.386   4.505   5.681  1.5260 -2.6295 -1.0630
16201TIP3    H270019   5.279   4.524   5.576 -0.7126  1.7652  1.8397
16202TIP3   OH270020   5.282   3.740   2.161  0.3561 -0.3984 -0.7216
16202TIP3    H170021   5.297   3.754   2.254 -0.6952  0.0576 -0.6194
16202TIP3    H270022   5.340   3.668   2.138 -1.0474 -2.0354  0.7700
16203TIP3   OH270023   2.685   6.606  15.715 -0.1314  0.1658 -0.3184
16203TIP3    H170024   2.707   6.517  15.742  0.2427  0.8010  1.6135
16203TIP3    H270025   2.760   6.636  15.664  0.8569  0.2160  1.1322
16204TIP3   OH270026   1.174   2.195   0.459 -0.0806 -0.0133 -0.4796
16204TIP3    H170027   1.197   2.121   0.402 -1.5364 -1.9535  1.3833
16204TIP3    H270028   1.087   2.221   0.429  0.1790  0.5654 -0.7363
16205TIP3   OH270029   4.706   6.374   3.756  0.0882  0.0767 -0.2435
16205TIP3    H170030   4.789   6.366   3.803  0.7658 -1.1626 -1.6116
16205TIP3    H270031   4.674   6.462   3.778 -0.0796 -0.7560  3.2591
16206TIP3   OH270032   5.951   3.376  11.961  0.5780 -0.2276 -0.3080
16206TIP3    H170033   5.929   3.469  11.974  0.6497 -0.2230 -0.2164
16206TIP3    H270034   6.004   3.375  11.882 -1.9287 -0.5548 -2.0326
16207TIP3   OH270035   3.238   5.389   0.743  0.1422 -0.0667 -0.3457
16207TIP3    H170036   3.205   5.385   0.653  0.6337 -0.9637 -0.4876
16207TIP3    H270037   3.174   5.339   0.794 -1.2652  2.1444  0.1671
16208TIP3   OH270038   1.616   3.972   3.183  0.4022  0.1945  0.4221
16208TIP3    H170039   1.549   4.020   3.232 -1.0892 -3.2533  1.8822
16208TIP3    H270040   1.697   4.021   3.201 -1.3337  3.3197  0.1629
16209TIP3   OH270041   1.186   1.054   1.927 -0.4759 -0.1258 -0.0853
16209TIP3    H170042   1.153   1.001   1.854  0.4653 -0.0631 -0.5612
16209TIP3    H270043   1.122   1.041   1.996  1.0680 -4.0156  0.7446
16210TIP3   OH270044   4.568   5.194   6.796  0.0475 -0.2775 -0.8294
16210TIP3    H170045   4.618   5.276   6.790  0.4892 -0.5438 -0.7788
16210TIP3    H270046   4.477   5.223   6.796  0.1969  0.2157 -0.8616
16211TIP3   OH270047   4.816   5.347   0.463  0.4232  0.1221 -0.6558
16211TIP3    H170048   4.903   5.333   0.427  0.2157  0.2554 -1.2098
16211TIP3    H270049   4.824   5.426   0.517  1.1169 -0.9681  0.8855
16212TIP3   OH270050   4.289   4.302  16.052 -0.2022  0.0533 -0.1798
16212TIP3    H170051   4.376   4.284  16.087 -0.4349  1.0572  0.9743
16212TIP3    H270052   4.255   4.372  16.109 -1.1168  0.8055 -1.6179
16213TIP3   OH270053   6.308   3.237   3.594  0.2506 -0.1576 -0.1452
16213TIP3    H170054   6.256   3.278   3.524  1.1047 -1.7517 -1.7324
16213TIP3    H270055   6.384   3.200   3.550  0.2324 -2.2113  1.4446
16214TIP3   OH270056   5.910   5.241  12.957  0.0355 -0.3243  0.1375
16214TIP3    H170057   5.856   5.193  12.894  1.0372 -0.4352 -0.6362
16214TIP3    H270058   5.896   5.196  13.040  2.4795 -3.1807 -0.9341
16215TIP3   OH270059   3.569   5.420   1.262  0.6749  0.3753  0.1025
16215TIP3    H170060   3.499   5.456   1.316 -0.5516 -1.2615 -0.3559
16215TIP3    H270061   3.546   5.444   1.172  1.5406  1.1748  0.0798
16216TIP3   OH270062   4.756   1.631   5.640  0.3782  0.7738  0.4990
16216TIP3    H170063   4.772   1.596   5.727 -4.1568  1.4413  1.7491
16216TIP3    H270064   4.795   1.718   5.641  0.5868  0.6717  1.7665
16217TIP3   OH270065   4.890   1.663   3.187  0.7356 -0.0797 -0.2272
16217TIP3    H170066   4.939   1.689   3.265  1.4186  1.5797 -1.1623
16217TIP3    H270067   4.840   1.586   3.214 -0.6993  1.7354  2.4398
16218TIP3   OH270068   3.771   6.709   4.277  0.7437  0.2383  0.4961
16218TIP3    H170069   3.731   6.627   4.247  1.2496  1.2160 -3.1038
16218TIP3    H270070   3.699   6.756   4.319 -0.7251 -0.1398 -1.4913
16219TIP3   OH270071   4.580   1.807   3.406 -0.3050  0.1882 -0.0952
16219TIP3    H170072   4.510   1.767   3.457 -0.1327  0.1707  0.1281
16219TIP3    H270073   4.583   1.756   3.325  0.2495 -0.5633  0.3952
16220TIP3   OH270074   0.218   0.393   6.070  0.0293 -0.9395  0.2331
16220TIP3    H170075   0.214   0.315   6.125  0.9396 -0.3796  1.0933
16220TIP3    H270076   0.305   0.390   6.030  0.1382 -0.2515  0.4209
16221TIP3   OH270077   4.825   3.347   5.402 -0.2577 -0.1948  0.1202
16221TIP3    H170078   4.744   3.379   5.362 -0.4198 -1.1072 -0.2886
16221TIP3    H270079   4.863   3.289   5.337 -0.5826 -1.7907  1.3158
16222TIP3   OH270080   6.383   3.960   2.423 -0.8051  0.2613  0.2288
16222TIP3    H170081   6.416   3.932   2.338 -0.0834  1.0679  0.2325
16222TIP3    H270082   6.443   3.922   2.486 -2.2938 -1.7301  0.5023
16223TIP3   OH270083   3.471   2.729  11.421  0.1999 -0.2392  0.1089
16223TIP3    H170084   3.532   2.799  11.398  0.7955 -0.9210 -0.4079
16223TIP3    H270085   3.527   2.656  11.447 -0.3729 -1.0241 -0.8043
16224TIP3   OH270086   1.559   2.732   1.038 -0.0531 -0.1549  0.0128
16224TIP3    H170087   1.538   2.657   0.983  0.3073  0.1163 -0.4958
16224TIP3    H270088   1.474   2.767   1.064 -0.2313 -1.1707  0.8568
16225TIP3   OH270089   1.154   3.396  11.941  0.0552  0.3587  0.1386
16225TIP3    H170090   1.233   3.386  11.888 -0.7817 -1.3824 -0.8024
16225TIP3    H270091   1.113   3.475  11.907 -0.9126 -1.1827 -2.4523
16226TIP3   OH270092   4.372   2.470   2.273 -0.2016  0.2402 -0.1283
16226TIP3    H170093   4.371   2.525   2.351 -2.6646  0.0248  0.0153
16226TIP3    H270094   4.286   2.482   2.233  1.3940  1.2356 -3.4775
16227TIP3   OH270095   6.041   2.737   0.755 -0.0434 -0.2942 -0.3745
16227TIP3    H170096   6.053   2.821   0.710  0.8670  0.7547  1.7168
16227TIP3    H270097   6.121   2.726   0.806  0.0416 -2.7053 -0.9985
16228TIP3   OH270098   6.354   2.926   6.110 -0.1523 -0.3160 -0.0043
16228TIP3    H170099   6.343   2.909   6.016 -1.4267  0.4584 -0.0211
16228TIP3    H270100   6.339   2.841   6.152 -2.6960 -0.0710 -0.3190
16229TIP3   OH270101   2.324   3.159   4.051  0.1878  1.0083  0.2208
16229TIP3    H170102   2.341   3.067   4.032 -2.1090 -0.0197  2.8164
16229TIP3    H270103   2.353   3.172   4.141  0.7875  2.9071 -0.2260
16230TIP3   OH270104   5.583   1.475   3.600 -0.1747 -0.3531 -0.5358
16230TIP3    H170105   5.628   1.497   3.681  0.2869 -1.9866 -0.3224
16230TIP3    H270106   5.650   1.435   3.545 -0.7024 -0.1315 -1.3533
16231TIP3   OH270107   0.194   3.237  14.952  0.2603  0.0470 -0.0750
16231TIP3    H170108   0.111   3.196  14.976  0.4503  0.4563  1.3163
16231TIP3    H270109   0.184   3.329  14.978  1.1894  0.0777  0.1794
16232TIP3   OH270110   1.739   5.766  15.312 -0.1103  0.6886 -0.4785
16232TIP3    H170111   1.659   5.737  15.269  0.1707 -1.0201  0.0953
16232TIP3    H270112   1.710   5.800  15.397 -0.3648  1.4364 -0.8584
16233TIP3   OH270113   0.524   3.870   0.411 -0.0948  0.0374  0.2576
16233TIP3    H170114   0.551   3.939   0.471 -1.1160  0.3092  0.4153
16233TIP3    H270115   0.542   3.905   0.324  2.0430 -0.6298  0.3989
16234TIP3   OH270116   4.534   2.565  13.671 -0.2952 -0.4012 -0.0434
16234TIP3    H170117   4.442   2.591  13.665 -0.3614 -1.0771 -2.4454
16234TIP3    H270118   4.544   2.536  13.761 -2.6860 -1.1705  0.0224
16235TIP3   OH270119   6.215   6.446   6.433  0.8789  0.9217 -0.2644
16235TIP3    H170120   6.172   6.520   6.391  1.7361  1.5298 -0.0896
16235TIP3    H270121   6.276   6.486   6.495  1.8410  0.0875 -0.6628
16236TIP3   OH270122   1.599   0.075   1.112 -0.0141 -0.2056 -0.3210
16236TIP3    H170123   1.573   0.117   1.194 -0.8818  1.6860 -1.5508
16236TIP3    H270124   1.592   0.143   1.046  1.1623 -1.5820 -1.9140
16237TIP3   OH270125   1.188   6.747   0.417 -1.1900  0.4330  0.5929
16237TIP3    H170126   1.169   6.727   0.325  1.1628 -0.4021  0.2462
16237TIP3    H270127   1.150   6.674   0.465 -1.2735  0.1934  0.1715
16238TIP3   OH270128   6.322   5.927  14.395 -0.0392 -0.0387  0.1744
16238TIP3    H170129   6.298   6.008  14.350 -0.2594  0.2096  0.7268
16238TIP3    H270130   6.239   5.896  14.432  0.4044  0.5752  1.7061
16239TIP3   OH270131   2.526   6.550  15.386  0.4126 -0.4222  0.0593
16239TIP3    H170132   2.587   6.616  15.354  1.9392 -1.0813  1.5348
16239TIP3    H270133   2.497   6.582  15.471  1.3033 -1.7053  0.8686
16240TIP3   OH270134   3.195   3.806   4.171  0.0426 -0.4719 -0.6425
16240TIP3    H170135   3.102   3.802   4.148  0.2414 -0.2774 -1.5164
16240TIP3    H270136   3.225   3.715   4.167  0.0363 -0.4601 -1.0195
16241TIP3   OH270137   6.419   2.239   2.777 -0.2927 -0.3853 -0.0759
16241TIP3    H170138   6.493   2.270   2.829  0.9388 -0.3662 -1.8106
16241TIP3    H270139   6.438   2.267   2.687 -1.6573 -1.6866 -0.8016
16242TIP3   OH270140   3.605   5.424  11.986  0.3409  0.3103  0.4123
16242TIP3    H170141   3.636   5.472  11.909 -0.0134  0.4247  0.3406
16242TIP3    H270142   3.679   5.370  12.012  1.0919  1.6309  1.0857
16243TIP3   OH270143   3.668   1.593   2.037 -0.3561 -0.3082 -0.1258
16243TIP3    H170144   3.610   1.549   1.975  0.9290 -0.1222 -1.4795
16243TIP3    H270145   3.748   1.611   1.988  1.3514 -1.6469  2.0332
16244TIP3   OH270146   2.873   2.241  12.876 -0.9150 -0.3655  0.1053
16244TIP3    H170147   2.781   2.217  12.887 -1.6954  1.0469 -2.8915
16244TIP3    H270148   2.873   2.336  12.867  0.7994 -0.3790 -0.2491
16245TIP3   OH270149   4.965   6.546   3.158  0.0026 -0.0540  0.0176
16245TIP3    H170150   4.968   6.466   3.211 -0.9791  0.5787  1.0286
16245TIP3    H270151   5.054   6.554   3.123  0.0093 -1.7843 -0.3796
16246TIP3   OH270152   5.642   0.053  13.230  0.2232  0.1127 -0.1073
16246TIP3    H170153   5.574   0.119  13.246  0.3395 -0.1310  1.4761
16246TIP3    H270154   5.595  -0.031  13.234  0.4221 -0.0004 -0.1672
16247TIP3   OH270155   2.147   5.340   2.904  0.4048 -0.4891  0.3842
16247TIP3    H170156   2.107   5.283   2.970 -0.1263 -0.7361 -0.1425
16247TIP3    H270157   2.119   5.303   2.820  1.7918 -0.6967 -0.0011
16248TIP3   OH270158   5.982   5.189   4.627  0.3232 -0.4190 -0.2105
16248TIP3    H170159   5.896   5.156   4.653  0.0521 -1.7074 -2.5918
16248TIP3    H270160   6.027   5.113   4.592  2.2401  0.3740  0.4548
16249TIP3   OH270161   1.345   1.312  13.144  0.6845 -0.2615 -0.0247
16249TIP3    H170162   1.413   1.380  13.140  0.7321 -0.2306  1.1025
16249TIP3    H270163   1.263   1.361  13.152  0.5570 -0.3058 -1.0384
16250TIP3   OH270164   3.064   0.674  15.394  0.0622  0.2936  0.2012
16250TIP3    H170165   3.109   0.754  15.365  2.3722 -1.2025 -0.4847
16250TIP3    H270166   3.040   0.692  15.485 -1.1552  2.4645 -0.5058
16251TIP3   OH270167   6.092   4.941  16.616 -0.0020 -0.2125  0.1409
16251TIP3    H170168   6.165   4.975  16.668  0.6969 -1.4660  0.0013
16251TIP3    H270169   6.118   4.851  16.594 -1.4565 -0.5719 -0.1666
16252TIP3   OH270170   3.371   0.887   4.596 -0.5683 -0.6415  0.6509
16252TIP3    H170171   3.395   0.799   4.626 -1.3463 -1.4720 -1.1396
16252TIP3    H270172   3.276   0.890   4.604 -0.6877 -0.5054 -0.7363
16253TIP3   OH270173   5.430   5.458  15.652  0.6609 -0.4868  0.0232
16253TIP3    H170174   5.366   5.392  15.625  1.2880 -0.9597 -0.3088
16253TIP3    H270175   5.501   5.449  15.589 -0.4780  2.4295 -1.8047
16254TIP3   OH270176   6.411   3.150  12.398  0.1226  0.2153  0.6801
16254TIP3    H170177   6.389   3.079  12.458  1.0106 -0.6052  0.0449
16254TIP3    H270178   6.346   3.142  12.328 -0.7362  0.9962  1.3712
16255TIP3   OH270179   6.162   6.508  13.402  0.1773  0.4821 -0.0465
16255TIP3    H170180   6.229   6.567  13.368  0.4583 -0.7722 -1.7217
16255TIP3    H270181   6.114   6.479  13.325 -1.7935  0.7287  1.0534
16256TIP3   OH270182   3.605   1.489  10.430 -0.3925 -0.7195 -0.9305
16256TIP3    H170183   3.695   1.482  10.397  1.1597  0.3342  2.7043
16256TIP3    H270184   3.616   1.514  10.522 -4.3875 -2.4311  0.1186
16257TIP3   OH270185   6.163   3.118  14.465 -0.0157  0.0204  0.1301
16257TIP3    H170186   6.246   3.155  14.497  0.1595  0.4348 -0.8057
16257TIP3    H270187   6.181   3.025  14.453  0.5064  0.2272 -0.7000
16258TIP3   OH270188   4.532   0.271  15.347  0.0950 -0.1740  0.1468
16258TIP3    H170189   4.500   0.356  15.376 -1.1657 -0.9518  1.1027
16258TIP3    H270190   4.624   0.270  15.374 -0.0405  0.6603  0.6582
16259TIP3   OH270191   4.011   2.328  13.166 -0.1000 -0.3294 -0.3036
16259TIP3    H170192   3.928   2.370  13.184 -0.1414  0.3398 -1.9482
16259TIP3    H270193   4.022   2.265  13.237 -1.2194  0.7115  0.8110
16260TIP3   OH270194   4.196   0.779   2.837 -0.6596 -0.0034  0.3310
16260TIP3    H170195   4.140   0.856   2.825 -0.5839  0.3553  2.0833
16260TIP3    H270196   4.136   0.705   2.831 -0.7312  0.1784 -1.3954
16261TIP3   OH270197   1.087   0.030  14.630 -0.1161  0.0864  0.3718
16261TIP3    H170198   1.125  -0.048  14.590  0.6289  0.2588  0.7304
16261TIP3    H270199   1.114   0.026  14.722 -2.5430 -0.7424  1.0676
16262TIP3   OH270200   5.224   5.944  11.361 -0.1112  0.1887  0.1897
16262TIP3    H170201   5.159   6.000  11.404  1.4646  1.0744  1.4483
16262TIP3    H270202   5.281   6.005  11.314  0.9202 -0.4389  0.6022
16263TIP3   OH270203   4.261   5.921  14.888  0.4838 -0.3392  0.7048
16263TIP3    H170204   4.351   5.939  14.862 -0.3052  1.0991 -1.1752
16263TIP3    H270205   4.238   5.994  14.946  0.1303  0.0143  0.1321
16264TIP3   OH270206   1.517   3.640   5.984  0.1982 -1.3262  0.0964
16264TIP3    H170207   1.425   3.643   5.960  0.6891  0.1681 -1.7606
16264TIP3    H270208   1.519   3.670   6.075 -1.2250 -2.1590  0.4057
16265TIP3   OH270209   5.585   4.477   2.884  0.4062  0.3241  0.1834
16265TIP3    H170210   5.527   4.440   2.951  0.7738 -0.2982  0.1560
16265TIP3    H270211   5.568   4.572   2.889 -0.7575  0.1368  0.0377
16266TIP3   OH270212   2.645   0.205  13.971 -0.2687  0.6156 -0.4683
16266TIP3    H170213   2.721   0.239  13.924 -2.0568  1.6947 -2.6473
16266TIP3    H270214   2.606   0.142  13.912  0.3931 -1.9505  1.7233
16267TIP3   OH270215   5.887   1.544  16.597 -0.1994  0.4118  0.1392
16267TIP3    H170216   5.937   1.482  16.650 -0.9457 -0.0655  0.2762
16267TIP3    H270217   5.798   1.538  16.630 -0.1339  2.1726  0.7294
16268TIP3   OH270218   5.447   1.399  12.145 -1.1908  0.5488  0.2400
16268TIP3    H170219   5.355   1.371  12.137 -0.9101 -0.1831 -0.4438
16268TIP3    H270220   5.496   1.317  12.152 -0.7790  0.9595  2.7604
16269TIP3   OH270221   0.209   4.876  12.426  0.5615 -0.1651 -0.2105
16269TIP3    H170222   0.291   4.923  12.443  1.0598 -0.4425 -1.7895
16269TIP3    H270223   0.155   4.939  12.378  2.3579 -2.0635 -5.0338
16270TIP3   OH270224   4.044   4.418  13.156 -0.0616 -0.2521 -0.2511
16270TIP3    H170225   4.072   4.330  13.128 -0.0721 -0.7710  1.3334
16270TIP3    H270226   4.026   4.464  13.074 -5.0627 -3.3471 -1.1543
16271TIP3   OH270227   0.563   5.530  15.214  0.0756  0.2943 -0.1154
16271TIP3    H170228   0.514   5.548  15.294  0.6721 -1.0048  0.5543
16271TIP3    H270229   0.578   5.435  15.215  0.4076  0.3116 -1.5792
16272TIP3   OH270230   1.657   5.739   1.679  0.2303 -0.5263 -0.2900
16272TIP3    H170231   1.752   5.740   1.670  0.1878 -3.1610 -1.5440
16272TIP3    H270232   1.624   5.720   1.591 -1.5380  1.5534 -0.1261
16273TIP3   OH270233   5.917   3.886   0.158 -0.5560 -0.2606  0.2888
16273TIP3    H170234   6.004   3.886   0.199 -0.3006 -1.5085 -0.2399
16273TIP3    H270235   5.908   3.798   0.120 -2.4060 -0.4510  1.1058
16274TIP3   OH270236   1.741   4.168  10.571  0.3733 -0.5249 -0.5785
16274TIP3    H170237   1.668   4.137  10.517  0.1353  0.5678 -0.9086
16274TIP3    H270238   1.751   4.260  10.546 -1.4006  0.7362  3.0999
16275TIP3   OH270239   0.392   0.737   1.846  0.5754 -0.8157  0.4024
16275TIP3    H170240   0.414   0.702   1.759 -0.2391  0.8018 -0.4787
16275TIP3    H270241   0.457   0.698   1.905  2.2106 -0.6123 -1.2129
16276TIP3   OH270242   6.273   2.079  13.033  0.0357 -0.6747 -0.1252
16276TIP3    H170243   6.244   2.044  13.118 -1.6758  0.3468 -0.2885
16276TIP3    H270244   6.197   2.072  12.976 -0.0891  2.5849 -0.3981
16277TIP3   OH270245   4.955   5.896   5.360 -0.5229 -0.4808  0.4584
16277TIP3    H170246   4.913   5.823   5.406  0.2661 -0.3705  1.3630
16277TIP3    H270247   4.893   5.969   5.370 -0.7678 -0.7010  0.5672
16278TIP3   OH270248   1.476   6.648   3.821  0.0696 -0.3905  0.4720
16278TIP3    H170249   1.416   6.585   3.862 -0.8876 -0.1763 -0.5897
16278TIP3    H270250   1.434   6.670   3.738  2.6230 -1.7705 -1.2259
16279TIP3   OH270251   5.168   4.000   3.143  0.3861  0.0342 -0.0782
16279TIP3    H170252   5.082   3.990   3.183  0.1745  0.0650 -0.5249
16279TIP3    H270253   5.229   3.960   3.206  0.2497  1.5609  1.0333
16280TIP3   OH270254   5.409   6.273  15.089 -0.3767  0.6254 -0.4021
16280TIP3    H170255   5.464   6.245  15.016 -2.3977  1.8718 -2.4760
16280TIP3    H270256   5.320   6.272  15.054 -1.2316  2.8009  1.5469
16281TIP3   OH270257   3.704   6.729  15.222 -0.2186 -0.1309  0.2145
16281TIP3    H170258   3.636   6.719  15.288 -1.8535 -1.0885 -1.5823
16281TIP3    H270259   3.775   6.671  15.252 -1.2084 -1.0563  0.7981
16282TIP3   OH270260   5.177   5.923  12.211  0.4395 -0.1620  0.2852
16282TIP3    H170261   5.177   6.017  12.229 -1.0952 -0.2847  0.9646
16282TIP3    H270262   5.266   5.905  12.180  0.3648  1.7329 -1.0798
16283TIP3   OH270263   4.248   2.430   0.530 -0.2371  0.2626 -0.1335
16283TIP3    H170264   4.210   2.365   0.471  0.9064 -1.2975  0.8102
16283TIP3    H270265   4.232   2.395   0.618  0.3930  1.2534  0.3848
16284TIP3   OH270266   0.253   0.210   2.620  0.0833 -0.0947  0.1440
16284TIP3    H170267   0.196   0.284   2.640  2.4057  2.2000 -1.3606
16284TIP3    H270268   0.274   0.220   2.527  2.2090 -1.3260  0.4453
16285TIP3   OH270269   4.834   5.450  13.811 -0.1040 -0.2619 -0.0649
16285TIP3    H170270   4.739   5.458  13.819  0.0056  0.5846  0.5213
16285TIP3    H270271   4.848   5.362  13.776 -1.0325 -1.0895  1.5695
16286TIP3   OH270272   0.901   6.639  15.533 -0.6005  0.1087 -0.7083
16286TIP3    H170273   0.912   6.721  15.484 -0.3241 -0.3007 -1.3363
16286TIP3    H270274   0.850   6.664  15.609 -3.5070  0.2486 -2.6159
16287TIP3   OH270275   3.792   5.874   2.566 -0.1844  0.0055  0.3444
16287TIP3    H170276   3.760   5.830   2.487  0.9610 -0.8389  0.3312
16287TIP3    H270277   3.748   5.959   2.566  0.5229  0.4164 -1.7326
16288TIP3   OH270278   3.489   5.913   4.757 -0.9290 -0.2163 -0.3165
16288TIP3    H170279   3.580   5.931   4.782 -0.7288  1.1339 -1.8882
16288TIP3    H270280   3.496   5.852   4.683 -1.3051 -0.3116 -0.2726
16289TIP3   OH270281   0.815   4.136   5.803 -0.1404  0.2208  0.4695
16289TIP3    H170282   0.829   4.193   5.879  0.4684 -0.2498  0.7100
16289TIP3    H270283   0.769   4.060   5.838  0.1110  0.0180  0.3579
16290TIP3   OH270284   1.795   4.257   1.993  0.2661  0.3866  0.1271
16290TIP3    H170285   1.745   4.206   2.057  1.6438  0.0026  0.9212
16290TIP3    H270286   1.886   4.232   2.009  0.7401  1.3148 -1.0865
16291TIP3   OH270287   2.048   2.127  14.155 -0.2004 -0.2525  0.1145
16291TIP3    H170288   2.108   2.173  14.096  0.3109 -0.8592  0.1594
16291TIP3    H270289   2.105   2.076  14.213 -0.7313 -0.2838  0.6139
16292TIP3   OH270290   0.448   6.239   4.056  0.0898  0.0874  0.4674
16292TIP3    H170291   0.509   6.229   4.129  0.5489 -0.0423  0.0616
16292TIP3    H270292   0.459   6.160   4.004 -0.1092  0.2631  0.1590
16293TIP3   OH270293   4.773   4.842  10.954  0.0042 -0.6114  0.6046
16293TIP3    H170294   4.763   4.851  10.859  0.1678 -1.4662  0.5077
16293TIP3    H270295   4.688   4.811  10.984 -0.1718  0.0435  0.7901
16294TIP3   OH270296   0.393   6.069  13.323  0.4869  0.3500 -0.1050
16294TIP3    H170297   0.313   6.106  13.360  0.7451  1.3777 -0.5570
16294TIP3    H270298   0.448   6.049  13.399  0.4371  1.1109  0.1321
16295TIP3   OH270299   0.535   5.120   6.334 -0.2124 -0.2886 -0.5270
16295TIP3    H170300   0.579   5.083   6.409 -1.0026  0.6940  0.4447
16295TIP3    H270301   0.475   5.052   6.304  0.7697 -1.0123 -0.8250
16296TIP3   OH270302   1.387   1.296  14.441 -0.5483  0.3234 -0.0580
16296TIP3    H170303   1.398   1.233  14.369 -1.3450  0.8512 -0.6427
16296TIP3    H270304   1.405   1.381  14.400 -2.8033  0.8092 -0.0646
16297TIP3   OH270305   4.006   1.655  11.196  0.0611 -0.0060  0.5456
16297TIP3    H170306   4.007   1.559  11.198  1.2421 -0.0868 -1.7982
16297TIP3    H270307   3.913   1.678  11.194 -0.2284 -1.1263  0.5701
16298TIP3   OH270308   4.542   5.160   3.689 -0.5001  0.0897  0.2543
16298TIP3    H170309   4.449   5.180   3.677 -0.3812 -0.1830 -1.2368
16298TIP3    H270310   4.544   5.079   3.740 -1.0570  0.8254  1.4650
16299TIP3   OH270311   0.280   1.677   2.072 -0.3980 -0.0997 -0.0244
16299TIP3    H170312   0.266   1.676   2.167  0.3528 -0.3252  0.0859
16299TIP3    H270313   0.374   1.668   2.062 -0.6241 -1.6789 -0.8302
16300TIP3   OH270314   0.575   2.966   4.000 -0.6222 -0.3293 -0.0476
16300TIP3    H170315   0.608   3.006   3.920  1.0192 -0.7623  0.3980
16300TIP3    H270316   0.487   3.003   4.011  0.2101  1.8592 -0.5479
16301TIP3   OH270317   3.391   3.601  16.942  0.2369  0.6731  0.5783
16301TIP3    H170318   3.313   3.653  16.961  0.2551  0.6909  0.6045
16301TIP3    H270319   3.372   3.557  16.860  0.1863  0.6546  0.6001
16302TIP3   OH270320   2.330   2.875  14.430 -0.6957 -0.2223  0.1920
16302TIP3    H170321   2.346   2.970  14.430  1.6701 -0.5958  0.2324
16302TIP3    H270322   2.412   2.837  14.460 -1.0044 -2.4040 -1.6488
16303TIP3   OH270323   2.056   4.006   1.888 -0.3067 -0.4684 -0.0856
16303TIP3    H170324   1.962   4.011   1.869  0.0968  1.2125 -1.7874
16303TIP3    H270325   2.073   4.081   1.944  0.0992 -0.5831 -0.0537
16304TIP3   OH270326   6.599   5.300  11.835 -0.1788  0.3342 -0.0857
16304TIP3    H170327   6.616   5.362  11.906  1.7611 -0.9409  0.5882
16304TIP3    H270328   6.621   5.349  11.756  0.5245  0.7951  0.3849
16305TIP3   OH270329   2.937   4.636   0.413 -0.3573 -0.0250  0.1237
16305TIP3    H170330   2.979   4.674   0.336 -1.4197 -1.0115 -0.9704
16305TIP3    H270331   2.903   4.551   0.383 -1.6079 -0.0081  1.4206
16306TIP3   OH270332   3.211   0.904  15.450  0.0912  0.6782 -0.1098
16306TIP3    H170333   3.263   0.866  15.522 -0.7947  0.2411  0.3073
16306TIP3    H270334   3.143   0.955  15.494  0.2119  1.3251 -0.6610
16307TIP3   OH270335   4.293   1.261  14.876  0.2157 -0.1572 -0.1444
16307TIP3    H170336   4.236   1.189  14.849 -1.0001 -0.1301  2.1805
16307TIP3    H270337   4.238   1.339  14.871 -0.0700 -0.1523  2.2696
16308TIP3   OH270338   3.250   0.512   0.368 -0.0643 -0.5339  0.1622
16308TIP3    H170339   3.200   0.527   0.288 -1.2866  0.2141  1.0537
16308TIP3    H270340   3.213   0.432   0.406  0.3719 -0.7739  0.0826
16309TIP3   OH270341   5.933   4.729   0.340  0.1070  0.1853  0.2087
16309TIP3    H170342   5.973   4.705   0.256 -0.2715 -1.0197  0.3722
16309TIP3    H270343   6.008   4.752   0.396  0.3651  0.9323 -0.4316
16310TIP3   OH270344   0.983   5.404  16.769  0.0783  0.5844 -0.2951
16310TIP3    H170345   1.070   5.405  16.809 -0.3045  2.9864  0.5656
16310TIP3    H270346   0.923   5.411  16.843 -0.7304  1.9066 -1.0496
16311TIP3   OH270347   2.024   2.954   4.819 -0.2139  0.3955 -0.8475
16311TIP3    H170348   1.974   2.887   4.773  0.6073  1.5008 -3.4589
16311TIP3    H270349   1.961   2.994   4.880 -1.4578 -0.8129 -1.3259
16312TIP3   OH270350   4.349   0.590  11.480 -0.7528  0.3363  0.2137
16312TIP3    H170351   4.277   0.642  11.514  1.5138  2.0705  2.5109
16312TIP3    H270352   4.374   0.633  11.399 -1.0372  0.8637  0.4048
16313TIP3   OH270353   1.649   5.278   3.670 -0.6229  0.6009  0.2599
16313TIP3    H170354   1.593   5.337   3.619 -1.6770  0.5864  1.3928
16313TIP3    H270355   1.641   5.193   3.627 -1.2037  0.6775  0.2166
16314TIP3   OH270356   2.942   4.334   4.932 -0.5498  0.7188  0.2262
16314TIP3    H170357   2.903   4.249   4.952  0.1637  0.1902 -0.6154
16314TIP3    H270358   3.036   4.317   4.925 -0.3486  1.6652  0.5322
16315TIP3   OH270359   4.217   1.367  15.704 -0.1295  0.5773  0.1153
16315TIP3    H170360   4.277   1.293  15.694  0.9027  1.2507  1.1752
16315TIP3    H270361   4.141   1.330  15.747  1.5952  0.6639  3.3968
16316TIP3   OH270362   4.810   1.412  15.017 -0.2067 -0.0962  0.5442
16316TIP3    H170363   4.831   1.334  14.965 -0.7547  0.3269 -0.3106
16316TIP3    H270364   4.775   1.377  15.099  1.1043 -0.7739  0.8256
16317TIP3   OH270365   2.482   0.264   0.565  0.4008  0.6367  0.1007
16317TIP3    H170366   2.403   0.214   0.588 -0.9065  1.2614 -2.7904
16317TIP3    H270367   2.532   0.269   0.646 -1.7766 -1.1606  1.6115
16318TIP3   OH270368   2.305   6.206  13.717 -0.5407 -0.1766 -0.2463
16318TIP3    H170369   2.380   6.147  13.716 -1.4593 -1.3704 -0.0237
16318TIP3    H270370   2.279   6.213  13.625 -1.4182 -1.4030 -0.0926
16319TIP3   OH270371   2.495   0.321   4.853 -0.0253 -0.4463 -0.5048
16319TIP3    H170372   2.431   0.269   4.804 -0.4759  0.8402 -1.3137
16319TIP3    H270373   2.490   0.408   4.813 -0.4253  0.6412  1.8577
16320TIP3   OH270374   3.817   1.189   0.144 -0.1419  0.4124  0.5413
16320TIP3    H170375   3.760   1.186   0.222 -1.0651 -0.6400 -0.1539
16320TIP3    H270376   3.881   1.120   0.159 -0.7557 -0.2781  0.0621
16321TIP3   OH270377   3.599   4.097  11.591 -0.6299  0.2686 -0.8648
16321TIP3    H170378   3.584   4.181  11.548  1.3005  1.1776  0.1473
16321TIP3    H270379   3.515   4.074  11.630 -0.2278  3.8557  2.4533
16322TIP3   OH270380   2.731   5.751  12.877 -0.1879 -0.1799 -0.3703
16322TIP3    H170381   2.801   5.786  12.933 -0.1064 -0.1553 -0.4867
16322TIP3    H270382   2.702   5.671  12.921 -0.8304  0.3887  0.2538
16323TIP3   OH270383   0.240   6.150  14.707  0.3968 -0.1768 -0.1456
16323TIP3    H170384   0.252   6.236  14.667  0.9897 -0.5303 -0.7349
16323TIP3    H270385   0.327   6.110  14.705  0.2256 -0.5899  0.5845
16324TIP3   OH270386   2.294   5.457  14.200 -0.3080 -0.0101 -0.0921
16324TIP3    H170387   2.312   5.503  14.282  0.8938  0.8043 -0.7982
16324TIP3    H270388   2.207   5.419  14.212 -0.2798  0.3856  1.4294
16325TIP3   OH270389   2.819   6.691   5.906 -0.1171 -0.2781 -0.3641
16325TIP3    H170390   2.835   6.781   5.880 -0.1187 -0.1111  0.1933
16325TIP3    H270391   2.759   6.656   5.840 -1.3625  0.6090  0.2741
16326TIP3   OH270392   6.650   2.291   1.232  0.5063 -0.0548 -0.4592
16326TIP3    H170393   6.557   2.272   1.220  1.0384 -2.2423 -1.4399
16326TIP3    H270394   6.695   2.232   1.172  2.4635  2.5400 -1.6673
16327TIP3   OH270395   2.194   2.429   2.027  0.4481  0.0398 -0.2805
16327TIP3    H170396   2.226   2.390   2.108 -0.7506  1.9821  1.1743
16327TIP3    H270397   2.099   2.414   2.028  0.2571  1.1413 -0.6994
16328TIP3   OH270398   0.425   5.828  12.229  0.2416  0.2380 -0.0285
16328TIP3    H170399   0.391   5.811  12.141 -1.0426 -0.2787  0.5556
16328TIP3    H270400   0.490   5.759  12.243  0.3767  0.2602 -0.5337
16329TIP3   OH270401   2.588   0.541  13.301 -0.0082  0.5841  0.2631
16329TIP3    H170402   2.607   0.635  13.312 -0.0959  0.5998  0.2804
16329TIP3    H270403   2.494   0.534  13.317 -0.0518  0.5366 -0.0255
16330TIP3   OH270404   6.015   2.288   2.608 -0.3292 -0.2489  0.7861
16330TIP3    H170405   6.069   2.307   2.686  1.9407  0.0043 -0.7946
16330TIP3    H270406   6.075   2.243   2.549 -2.0269 -0.3831 -0.8640
16331TIP3   OH270407   3.656   0.790  10.577  0.2193  0.8278  0.2402
16331TIP3    H170408   3.652   0.755  10.488  1.5389  0.7372  0.1978
16331TIP3    H270409   3.692   0.718  10.629  0.6951  1.3230  0.5966
16332TIP3   OH270410   0.963   3.173   1.376  0.1427 -0.1485  0.2007
16332TIP3    H170411   0.972   3.095   1.322  2.1665 -0.1423  0.4953
16332TIP3    H270412   0.947   3.244   1.314 -2.4927 -0.8834 -0.0197
16333TIP3   OH270413   1.822   5.503   2.434  0.2374 -0.6045  0.3781
16333TIP3    H170414   1.890   5.567   2.453 -0.1835 -0.5420  1.6957
16333TIP3    H270415   1.826   5.491   2.339  0.7933  0.8312  0.2147
16334TIP3   OH270416   2.269   2.860   6.052  0.3822  0.2489 -0.4889
16334TIP3    H170417   2.308   2.911   5.981 -0.8797  0.3975 -1.0879
16334TIP3    H270418   2.293   2.908   6.131  1.3129  0.4018 -0.8579
16335TIP3   OH270419   3.257   0.330   1.408  0.5542 -0.2274 -0.5389
16335TIP3    H170420   3.324   0.284   1.458  0.0018 -0.5877 -0.1180
16335TIP3    H270421   3.265   0.421   1.435  0.2814 -0.4172  0.1784
16336TIP3   OH270422   5.242   0.085  12.164 -0.1757 -0.3759  0.4880
16336TIP3    H170423   5.330   0.118  12.146 -0.3080  0.0088  0.5354
16336TIP3    H270424   5.214   0.132  12.243 -0.7987  0.2223 -0.0797
16337TIP3   OH270425   4.538   1.595  16.846  0.1450 -0.5101 -0.0620
16337TIP3    H170426   4.582   1.544  16.777  0.8331 -0.7778  0.5603
16337TIP3    H270427   4.574   1.683  16.836  0.3731 -0.5879  0.0589
16338TIP3   OH270428   5.053   3.323  14.594  0.4131  0.3537  0.4745
16338TIP3    H170429   4.998   3.256  14.633 -0.3836 -0.9578 -2.7725
16338TIP3    H270430   5.047   3.308  14.500  3.3811  2.5094 -0.1436
16339TIP3   OH270431   3.842   0.762   3.377  0.1190  0.3156  0.0413
16339TIP3    H170432   3.913   0.824   3.387  1.6553 -1.3642 -0.1910
16339TIP3    H270433   3.857   0.720   3.293 -1.1389 -0.0715 -0.0059
16340TIP3   OH270434   4.238   5.106  14.670  0.1474  0.0502  0.4239
16340TIP3    H170435   4.211   5.117  14.579 -0.2083 -0.1124  0.5064
16340TIP3    H270436   4.156   5.086  14.716  0.3565 -0.0597  0.7443
16341TIP3   OH270437   4.180   4.767  13.331 -0.5709  0.2740  0.2372
16341TIP3    H170438   4.179   4.861  13.350  0.1382  0.5817 -1.2130
16341TIP3    H270439   4.256   4.754  13.275 -0.7355 -1.1554  0.3145
16342TIP3   OH270440   0.328   0.472   0.377  0.2887  0.1230  0.2361
16342TIP3    H170441   0.233   0.468   0.365  0.1325  2.1432  0.6552
16342TIP3    H270442   0.356   0.543   0.320  1.4884 -0.1058  0.5346
16343TIP3   OH270443   4.088   1.325   0.534  0.4515  0.3833 -0.0279
16343TIP3    H170444   4.015   1.386   0.537 -0.0579 -0.1821 -0.6921
16343TIP3    H270445   4.062   1.252   0.590  1.3943  1.1187  1.4047
16344TIP3   OH270446   6.272   4.634   4.683 -0.0297 -0.3689 -0.5563
16344TIP3    H170447   6.260   4.583   4.763 -1.6138  2.3556  1.0439
16344TIP3    H270448   6.184   4.642   4.647 -0.0851  2.4979  0.0993
16345TIP3   OH270449   6.574   3.445  16.424  0.3010  0.5058 -0.5344
16345TIP3    H170450   6.525   3.474  16.501 -1.3940  1.7289 -2.0312
16345TIP3    H270451   6.653   3.499  16.423  0.8815 -0.2756  0.9268
16346TIP3   OH270452   3.552   5.590  16.231  0.3702 -0.0929 -0.0447
16346TIP3    H170453   3.639   5.574  16.194  0.2719 -0.5808 -0.0753
16346TIP3    H270454   3.516   5.662  16.179  1.4584  1.3275  1.1200
16347TIP3   OH270455   2.274   3.587   1.999  0.4000  0.3101 -0.5368
16347TIP3    H170456   2.214   3.637   1.943  2.5166  0.9227 -2.3482
16347TIP3    H270457   2.288   3.505   1.952 -0.5701 -0.6634  0.8633
16348TIP3   OH270458   0.076   6.560  15.667 -0.0825  0.5123  0.4389
16348TIP3    H170459   0.114   6.476  15.642 -2.6058 -0.5181 -0.0701
16348TIP3    H270460   0.049   6.549  15.758 -0.2804  0.8197  0.4202
16349TIP3   OH270461   0.276   5.832  16.515  0.2158 -0.1655  0.0583
16349TIP3    H170462   0.252   5.918  16.551  0.2378  0.7305 -1.9760
16349TIP3    H270463   0.334   5.794  16.581 -2.2867  0.0004  2.4667
16350TIP3   OH270464   0.984   3.425  12.309 -0.1468  0.2608  0.2570
16350TIP3    H170465   0.998   3.346  12.258  0.8740  0.0787  0.8137
16350TIP3    H270466   1.049   3.421  12.379  1.6503  2.8770 -1.1829
16351TIP3   OH270467   1.620   4.673   3.258  0.0243 -0.1316  0.2363
16351TIP3    H170468   1.561   4.616   3.307  1.7612 -0.6301  1.8122
16351TIP3    H270469   1.595   4.761   3.285 -0.0246 -0.3371  0.8704
16352TIP3   OH270470   3.535   0.065  16.732 -0.4788  0.0618 -0.1817
16352TIP3    H170471   3.459   0.123  16.723  1.3677  2.2463 -2.3502
16352TIP3    H270472   3.586   0.104  16.803  0.3083  0.5727 -1.0220
16353TIP3   OH270473   4.782   2.773   5.661  0.1124  0.2138 -0.2373
16353TIP3    H170474   4.838   2.767   5.739 -0.3482 -2.6744 -0.0911
16353TIP3    H270475   4.699   2.734   5.687 -0.7651  1.1175 -1.5840
16354TIP3   OH270476   5.990   2.074   5.363  0.0283  0.3974 -0.2005
16354TIP3    H170477   5.933   2.116   5.428  0.4935 -1.7250  1.6291
16354TIP3    H270478   6.078   2.098   5.390  0.2104 -0.2505 -0.2323
16355TIP3   OH270479   1.589   4.228   2.431  0.2298 -0.1631  0.1317
16355TIP3    H170480   1.602   4.147   2.382  1.1128  0.1632 -0.1837
16355TIP3    H270481   1.660   4.230   2.495 -1.1908 -0.8134  1.7511
16356TIP3   OH270482   2.393   1.273  15.238 -0.2461  0.0958  0.5850
16356TIP3    H170483   2.467   1.273  15.298  1.3501  0.0082 -1.3470
16356TIP3    H270484   2.432   1.270  15.150 -2.5419 -0.9961 -0.4566
16357TIP3   OH270485   6.705   5.206  12.526 -0.0218  0.1035  0.5470
16357TIP3    H170486   6.611   5.186  12.530  0.2712 -1.7328 -0.8552
16357TIP3    H270487   6.709   5.301  12.521 -1.9474  0.1146 -1.8765
16358TIP3   OH270488   6.335   3.179   1.192  0.1168  0.1678 -0.0989
16358TIP3    H170489   6.347   3.152   1.283 -2.3507 -3.0937 -0.6547
16358TIP3    H270490   6.262   3.241   1.194 -0.2522 -0.2760  0.0820
16359TIP3   OH270491   2.629   5.334   5.674 -0.3258  0.0987  0.3982
16359TIP3    H170492   2.615   5.322   5.768  0.4726  1.0028  0.6374
16359TIP3    H270493   2.591   5.419   5.654 -1.1628 -0.4218 -0.2470
16360TIP3   OH270494   1.425   1.389  15.928  0.3334 -0.1090 -0.1339
16360TIP3    H170495   1.495   1.430  15.877 -0.0358 -0.3858 -0.8713
16360TIP3    H270496   1.365   1.354  15.862 -0.8617  0.7259  0.4968
16361TIP3   OH270497   1.413   0.860   4.572  0.8882  0.7975 -0.1344
16361TIP3    H170498   1.458   0.812   4.641  0.7945  1.0030  0.0711
16361TIP3    H270499   1.480   0.878   4.507  1.2445  1.6881  0.4833
16362TIP3   OH270500   3.279   5.060   6.274  0.3177  0.4851  0.5468
16362TIP3    H170501   3.311   5.099   6.355 -1.6358  0.1731  1.5175
16362TIP3    H270502   3.184   5.056   6.286  0.1673 -1.2746 -0.9956
16363TIP3   OH270503   3.041   2.378  16.950 -0.0382 -0.0700  0.4870
16363TIP3    H170504   3.019   2.408  16.862  0.0509  0.1050  0.5253
16363TIP3    H270505   3.135   2.358  16.946  0.4414  1.9574  1.1111
16364TIP3   OH270506   5.524   3.765   5.091  0.2149 -0.2831 -0.1827
16364TIP3    H170507   5.491   3.840   5.140  0.1146 -0.1773 -0.4165
16364TIP3    H270508   5.585   3.802   5.028  0.4144 -0.4316 -0.0776
16365TIP3   OH270509   4.157   6.406   2.412  0.2131  0.4209  0.1114
16365TIP3    H170510   4.212   6.359   2.474  0.2306 -0.3027 -0.4559
16365TIP3    H270511   4.148   6.494   2.451 -1.4280 -0.6053  2.1521
16366TIP3   OH270512   3.257   3.547  13.744  0.5004 -0.5500 -0.3396
16366TIP3    H170513   3.326   3.602  13.706  0.0232  0.6409  0.4733
16366TIP3    H270514   3.291   3.524  13.831 -0.7086  1.2563  0.6565
16367TIP3   OH270515   6.525   3.451  12.129  0.3154 -0.5638 -0.1944
16367TIP3    H170516   6.518   3.432  12.223  0.0580 -1.7415 -0.4517
16367TIP3    H270517   6.612   3.489  12.119 -1.1667  3.4495  1.1700
16368TIP3   OH270518   4.594   5.014   0.519  0.4574 -0.3198 -0.4311
16368TIP3    H170519   4.572   5.044   0.607  0.6393  0.3117 -0.5948
16368TIP3    H270520   4.571   5.088   0.462 -1.4568 -1.4215 -1.1460
16369TIP3   OH270521   3.740   5.623   6.603  0.1042 -0.9824  0.1329
16369TIP3    H170522   3.825   5.646   6.565 -0.0798 -1.7777 -0.7502
16369TIP3    H270523   3.683   5.696   6.578 -0.2377 -1.8998 -1.8740
16370TIP3   OH270524   3.903   2.292  11.730  0.6037  0.1893  0.2135
16370TIP3    H170525   3.976   2.349  11.705  0.1021  0.7809  0.0749
16370TIP3    H270526   3.939   2.204  11.728  1.0184  0.3756 -0.9832
16371TIP3   OH270527   3.819   0.080   3.346  0.3025  0.2998  0.1656
16371TIP3    H170528   3.847   0.046   3.261 -1.2493  1.0024 -0.6502
16371TIP3    H270529   3.871   0.159   3.359  1.5740 -0.5948  0.5475
16372TIP3   OH270530   5.135   4.566   0.403  0.0381  0.1910  0.3906
16372TIP3    H170531   5.214   4.591   0.452  1.7668  0.0968 -2.2481
16372TIP3    H270532   5.135   4.471   0.404 -2.5938  0.1197  4.2415
16373TIP3   OH270533   2.669   4.700   5.345  0.2429 -0.8017  0.0562
16373TIP3    H170534   2.753   4.659   5.362  1.2484  2.2933  3.0917
16373TIP3    H270535   2.690   4.791   5.326 -2.3730 -0.1526  0.0241
16374TIP3   OH270536   5.519   3.753  11.101 -0.3419 -0.4299 -0.4927
16374TIP3    H170537   5.533   3.792  11.187  0.0080  1.0215 -1.1968
16374TIP3    H270538   5.589   3.788  11.047 -1.2836 -0.3721 -1.6928
16375TIP3   OH270539   5.765   5.724  16.411  0.2078  0.0857 -1.3631
16375TIP3    H170540   5.812   5.803  16.437 -0.4406  0.5398 -1.5401
16375TIP3    H270541   5.690   5.756  16.361 -0.3380 -0.6127 -1.0112
16376TIP3   OH270542   1.829   1.998  14.065 -0.3063 -0.2101  0.5274
16376TIP3    H170543   1.863   1.910  14.080 -0.6562 -0.8562 -2.1922
16376TIP3    H270544   1.907   2.054  14.068  0.0547 -0.7371  1.2259
16377TIP3   OH270545   4.735   3.907  11.476  0.5343 -0.1818 -0.2956
16377TIP3    H170546   4.795   3.889  11.403 -1.1510 -2.9871 -1.0773
16377TIP3    H270547   4.774   3.863  11.551 -0.6929 -2.3433 -0.8941
16378TIP3   OH270548   5.097   4.884  15.888 -0.2363  0.6353  0.4379
16378TIP3    H170549   5.189   4.893  15.912 -0.4535 -0.0032  1.5580
16378TIP3    H270550   5.092   4.799  15.844  0.0140  1.4446 -1.1846
16379TIP3   OH270551   3.112   5.443  14.221  0.5091 -0.1232  0.3706
16379TIP3    H170552   3.187   5.483  14.265 -0.7787  3.1333 -0.2247
16379TIP3    H270553   3.040   5.451  14.284 -0.0590 -0.4351 -0.2280
16380TIP3   OH270554   3.863   3.108  12.690  0.7218  0.0521  0.2356
16380TIP3    H170555   3.879   3.018  12.719 -0.9368 -0.2041  0.4005
16380TIP3    H270556   3.914   3.117  12.609 -1.1718 -1.8974 -1.2346
16381TIP3   OH270557   3.809   3.249   0.929 -0.2469 -0.4140  0.0841
16381TIP3    H170558   3.888   3.296   0.903 -1.1383  2.7826  2.7128
16381TIP3    H270559   3.743   3.275   0.865 -0.7245  2.0620  1.5027
16382TIP3   OH270560   4.265   4.513   1.417  0.7418  0.3206 -0.1429
16382TIP3    H170561   4.333   4.447   1.403  0.8408  0.5040 -0.5497
16382TIP3    H270562   4.308   4.596   1.395  0.7625  0.5710  0.8288
16383TIP3   OH270563   2.035   4.550   1.671  0.1715  0.0361  0.0693
16383TIP3    H170564   1.972   4.502   1.617 -2.2676  2.2623  0.8181
16383TIP3    H270565   2.047   4.634   1.626  0.1853  0.8565  1.5633
16384TIP3   OH270566   1.009   0.980   1.305  0.3345 -0.0668  0.1750
16384TIP3    H170567   1.067   0.923   1.356 -0.0922  1.1313  2.0374
16384TIP3    H270568   0.923   0.968   1.344  0.0952  1.2643  0.0650
16385TIP3   OH270569   0.334   5.044  12.954  0.0421  0.2142 -0.1442
16385TIP3    H170570   0.389   5.116  12.985  0.5842 -0.3806  0.2817
16385TIP3    H270571   0.259   5.087  12.913  0.4729  1.0239 -0.0893
16386TIP3   OH270572   2.742   2.117  11.383 -0.1495 -0.8077 -0.2312
16386TIP3    H170573   2.659   2.164  11.394  0.4881  0.1867  0.4482
16386TIP3    H270574   2.733   2.073  11.298 -1.9695 -2.0056  0.5420
16387TIP3   OH270575   1.865   2.032   3.795  0.0879 -0.4751 -0.3069
16387TIP3    H170576   1.812   1.953   3.784  2.0202 -1.4867 -2.8607
16387TIP3    H270577   1.813   2.101   3.753 -0.1858 -1.0471 -0.9320
16388TIP3   OH270578   4.433   1.456  13.248 -0.0070  0.1421  0.5971
16388TIP3    H170579   4.360   1.504  13.286 -0.5733 -0.2402  0.0059
16388TIP3    H270580   4.418   1.365  13.274  0.0736  0.0108  0.1854
16389TIP3   OH270581   4.623   3.542   2.854 -0.2508 -0.1893  0.1198
16389TIP3    H170582   4.712   3.560   2.820 -0.0153 -1.6774 -0.0690
16389TIP3    H270583   4.569   3.611   2.815  1.0630  1.5900  1.3653
16390TIP3   OH270584   4.728   2.649  15.755 -0.2089 -0.4411 -0.4558
16390TIP3    H170585   4.644   2.644  15.801 -0.6041 -0.6573 -1.1939
16390TIP3    H270586   4.794   2.647  15.825 -0.8431  0.7564  0.1933
16391TIP3   OH270587   3.751   0.682   0.977  0.1295  0.0208 -0.3505
16391TIP3    H170588   3.707   0.735   1.044  0.9257 -0.2488  0.3962
16391TIP3    H270589   3.743   0.592   1.009  1.6932  0.0167  0.0897
16392TIP3   OH270590   5.070   4.286  12.594  0.6597  0.4401  0.1959
16392TIP3    H170591   5.145   4.311  12.539 -0.2615  0.4061 -1.0926
16392TIP3    H270592   5.058   4.193  12.576  0.3859  0.4203  0.4942
16393TIP3   OH270593   4.307   2.141   2.381  0.0771 -0.0421  0.4277
16393TIP3    H170594   4.345   2.217   2.337  0.9207 -1.2174 -0.9140
16393TIP3    H270595   4.382   2.094   2.418 -0.3295 -0.7591  0.3589
16394TIP3   OH270596   2.718   4.016  12.289  0.1129  0.3921 -0.0483
16394TIP3    H170597   2.649   4.053  12.235  0.3561  2.6091  1.1305
16394TIP3    H270598   2.773   4.090  12.313  1.2866 -0.9006  1.3906
16395TIP3   OH270599   3.056   4.393  13.327 -0.0605 -0.3592 -0.1070
16395TIP3    H170600   2.982   4.452  13.311  2.5493  3.3519  0.8457
16395TIP3    H270601   3.058   4.384  13.423  0.8689 -0.2409 -0.1173
16396TIP3   OH270602   2.196   0.850  11.786  0.1628 -0.7352  0.3679
16396TIP3    H170603   2.119   0.862  11.730  0.0986 -1.0901  0.3795
16396TIP3    H270604   2.227   0.939  11.803  0.6635 -0.6472 -0.9020
16397TIP3   OH270605   1.967   0.849   0.119 -0.0482  0.2218  0.4296
16397TIP3    H170606   1.888   0.799   0.097  0.6596 -0.9315  0.4815
16397TIP3    H270607   1.940   0.941   0.112 -1.0546 -0.1519 -0.8254
16398TIP3   OH270608   3.623   6.634   3.738 -0.5344  0.3537 -0.4217
16398TIP3    H170609   3.546   6.625   3.794 -0.5604 -0.5326 -0.6016
16398TIP3    H270610   3.645   6.727   3.743 -1.5034  0.5767 -0.2216
16399TIP3   OH270611   4.393   4.271   1.367 -0.2260  0.4964  0.0692
16399TIP3    H170612   4.418   4.226   1.287  2.9683  0.1736  1.1900
16399TIP3    H270613   4.421   4.213   1.438 -0.1202  2.1990  1.4736
16400TIP3   OH270614   5.209   3.382  13.371  0.1228 -0.0601 -0.0994
16400TIP3    H170615   5.192   3.397  13.278 -1.1474  0.3701  0.1912
16400TIP3    H270616   5.274   3.311  13.372  0.1514 -0.0663 -1.3137
16401TIP3   OH270617   3.583   4.430   3.084 -0.2010 -0.3642 -0.1973
16401TIP3    H170618   3.505   4.402   3.038 -0.5120 -0.8268  0.5953
16401TIP3    H270619   3.551   4.469   3.165  0.4317 -1.5753  0.6538
16402TIP3   OH270620   2.216   3.094   4.993  0.1490  0.4224  0.2785
16402TIP3    H170621   2.134   3.114   5.037  0.3938 -0.8696  1.3568
16402TIP3    H270622   2.209   3.137   4.908 -1.6379  0.3229  0.3576
16403TIP3   OH270623   4.077   2.588  15.248  0.0084  0.3226  0.6935
16403TIP3    H170624   4.042   2.499  15.248  0.1202  0.2752  1.2311
16403TIP3    H270625   4.072   2.616  15.157  1.0372 -0.6556  0.3202
16404TIP3   OH270626   1.217   1.340  14.003  0.0864 -0.6735  0.2870
16404TIP3    H170627   1.288   1.342  13.939 -1.5507 -1.2546 -1.5947
16404TIP3    H270628   1.180   1.428  13.999 -0.2947 -0.8419  0.1047
16405TIP3   OH270629   3.528   1.184  11.401 -0.2315 -1.1744  0.1253
16405TIP3    H170630   3.505   1.091  11.392  0.5418 -1.4319  0.6962
16405TIP3    H270631   3.623   1.186  11.388 -0.4579 -0.2329 -1.4959
16406TIP3   OH270632   3.507   1.317   0.959 -0.3667 -0.2382  0.0714
16406TIP3    H170633   3.421   1.301   0.998 -0.2729  0.9369  0.7740
16406TIP3    H270634   3.570   1.288   1.025 -0.2132  1.0812  0.5115
16407TIP3   OH270635   1.017   3.045  13.641  0.5595 -0.3123  0.2158
16407TIP3    H170636   1.063   3.066  13.559  1.8566 -0.8486  0.7967
16407TIP3    H270637   1.086   3.016  13.700 -0.6747 -2.2059  0.7527
16408TIP3   OH270638   1.164   3.630  14.734  0.6386  0.6294  0.1187
16408TIP3    H170639   1.152   3.541  14.699 -0.4734  0.2395  1.4539
16408TIP3    H270640   1.204   3.617  14.820 -0.6450  1.3611  0.8368
16409TIP3   OH270641   2.156   2.203   4.080 -0.2849 -0.7737  0.1602
16409TIP3    H170642   2.109   2.286   4.084 -0.0691 -0.6542  0.1874
16409TIP3    H270643   2.087   2.137   4.085 -0.5757 -0.6011 -1.1686
16410TIP3   OH270644   4.464   5.182  13.415 -0.5617 -0.5734  0.3136
16410TIP3    H170645   4.472   5.188  13.320 -1.2122 -0.3496  0.2677
16410TIP3    H270646   4.514   5.104  13.439  3.0133  1.5769  0.2447
16411TIP3   OH270647   4.331   4.645  16.506  1.0438  0.0478  0.4700
16411TIP3    H170648   4.356   4.733  16.535  3.5866  0.1983 -1.9569
16411TIP3    H270649   4.371   4.636  16.419 -1.9222 -2.2962 -0.7556
16412TIP3   OH270650   5.869   0.280   0.312 -0.3866 -0.2575 -0.0226
16412TIP3    H170651   5.884   0.213   0.379 -1.0970  1.0959  1.5263
16412TIP3    H270652   5.778   0.268   0.286 -0.6116  0.3127  0.4957
16413TIP3   OH270653   6.264   3.435   2.377 -0.4506  0.6770 -0.1294
16413TIP3    H170654   6.254   3.377   2.302  1.3937  2.6307 -1.9498
16413TIP3    H270655   6.340   3.399   2.425 -1.0142  0.0132  0.2783
16414TIP3   OH270656   3.515   6.204   0.988 -0.1061  0.0521 -0.1826
16414TIP3    H170657   3.497   6.186   0.896 -0.5766 -2.6553  0.3948
16414TIP3    H270658   3.499   6.297   0.999 -2.3403 -0.0624 -2.3132
16415TIP3   OH270659   5.205   4.614   5.928  0.6327 -0.4462 -0.1453
16415TIP3    H170660   5.125   4.585   5.971  1.0291 -0.4182  0.6144
16415TIP3    H270661   5.184   4.701   5.894  0.6084 -0.0913  0.7800
16416TIP3   OH270662   2.096   5.506   2.600  0.3687  0.1175 -0.1271
16416TIP3    H170663   2.016   5.482   2.645  0.3409 -0.8854 -0.7150
16416TIP3    H270664   2.129   5.425   2.563  1.5329  0.5609 -0.1003
16417TIP3   OH270665   0.825   1.430   1.995 -0.2898  0.2208  0.8373
16417TIP3    H170666   0.820   1.496   1.927 -1.6215 -0.3424  0.3674
16417TIP3    H270667   0.909   1.385   1.980 -0.0042  0.9188  0.3521
16418TIP3   OH270668   2.337   0.488   1.518 -0.3236 -0.0684 -0.3265
16418TIP3    H170669   2.404   0.525   1.460 -0.6928  2.0273  0.5374
16418TIP3    H270670   2.319   0.557   1.581 -1.9443 -1.3058  0.6058
16419TIP3   OH270671   6.230   1.615   3.358  0.7727 -0.2242 -0.1712
16419TIP3    H170672   6.215   1.526   3.389  2.5788 -0.6703 -0.5103
16419TIP3    H270673   6.234   1.606   3.263 -0.9205  0.5363 -0.3345
16420TIP3   OH270674   4.430   2.904  13.378  0.3172  0.0190 -0.0948
16420TIP3    H170675   4.525   2.905  13.368  0.3729  2.0943  0.3641
16420TIP3    H270676   4.416   2.880  13.470  0.3600 -0.8883 -0.3183
16421TIP3   OH270677   4.154   3.711  15.037  0.1085 -0.2804 -0.1642
16421TIP3    H170678   4.147   3.704  15.132 -0.4106 -2.3753 -0.3406
16421TIP3    H270679   4.075   3.758  15.011  0.4374  0.6343  0.4660
16422TIP3   OH270680   2.365   0.691   3.735  0.1454  0.2733  0.2017
16422TIP3    H170681   2.311   0.725   3.664 -1.0241 -0.3409  0.7844
16422TIP3    H270682   2.344   0.748   3.809 -1.0669 -1.0558  0.9092
16423TIP3   OH270683   0.504   2.608  12.431 -0.6734 -0.1106 -0.4467
16423TIP3    H170684   0.462   2.542  12.376  3.1294 -2.4951 -0.6515
16423TIP3    H270685   0.596   2.608  12.403  0.2024  2.5908  2.1625
16424TIP3   OH270686   1.771   0.076  13.718  0.1206  0.2207  0.8062
16424TIP3    H170687   1.824   0.136  13.770  0.5166  0.8157 -0.2529
16424TIP3    H270688   1.713   0.134  13.667  3.0654 -0.0244 -3.0339
16425TIP3   OH270689   0.385   5.459  10.771 -0.1116  0.4580 -0.4020
16425TIP3    H170690   0.381   5.388  10.706  2.0161  0.3364 -0.4257
16425TIP3    H270691   0.428   5.531  10.725  0.6018  0.6765  0.5984
16426TIP3   OH270692   1.094   4.041   4.403  0.3235 -0.2300 -0.1806
16426TIP3    H170693   1.123   4.018   4.491 -0.6763 -0.7665  0.0152
16426TIP3    H270694   1.132   4.128   4.387 -2.4967  1.5687  2.2477
16427TIP3   OH270695   1.003   0.213   0.834  0.7827 -0.2206 -0.9221
16427TIP3    H170696   0.953   0.175   0.762  1.3905 -1.8838 -0.4919
16427TIP3    H270697   1.090   0.173   0.827  0.9620 -0.1169  0.5090
16428TIP3   OH270698   3.973   6.699   0.702  0.7235 -0.4544 -0.1961
16428TIP3    H170699   3.949   6.748   0.623 -1.1011  0.3675  0.8287
16428TIP3    H270700   4.043   6.752   0.742 -0.8031  1.0449  0.5729
16429TIP3   OH270701   6.043   2.668   4.521  0.2760  0.0693  0.1490
16429TIP3    H170702   6.138   2.677   4.535  0.5084 -1.5113 -0.2983
16429TIP3    H270703   6.022   2.581   4.554  0.0551 -2.0047 -5.0502
16430TIP3   OH270704   3.960   3.268  15.457  0.3908  0.0676 -0.2604
16430TIP3    H170705   3.974   3.223  15.374  2.3711  0.0276  0.0571
16430TIP3    H270706   3.875   3.311  15.448  1.1015  1.0195 -2.7342
16431TIP3   OH270707   4.803   5.922  16.429 -0.3277 -0.4084  0.4938
16431TIP3    H170708   4.875   5.875  16.470 -0.0132  1.1587  1.8061
16431TIP3    H270709   4.824   5.922  16.335  1.5389  0.2654  0.8942
16432TIP3   OH270710   2.286   5.896   5.910  0.2120  0.3327 -1.0150
16432TIP3    H170711   2.225   5.843   5.858 -0.6438  1.1696 -0.8827
16432TIP3    H270712   2.291   5.852   5.994 -0.5631  0.5025 -0.8757
16433TIP3   OH270713   2.418   0.551  14.579  0.3863 -0.1094  0.3406
16433TIP3    H170714   2.445   0.469  14.537 -1.1594  0.0484 -0.9949
16433TIP3    H270715   2.369   0.524  14.656  2.2002 -0.4042  1.4299
16434TIP3   OH270716   0.742   2.832   3.019 -0.3235 -0.5132 -0.2898
16434TIP3    H170717   0.834   2.850   3.003 -0.1988 -0.4809  0.4444
16434TIP3    H270718   0.702   2.919   3.028 -0.6156 -0.4974 -1.6030
16435TIP3   OH270719   0.310   6.497  13.171  0.1533  0.0168  0.5776
16435TIP3    H170720   0.297   6.406  13.142 -1.0618  0.4182 -0.1986
16435TIP3    H270721   0.355   6.490  13.255  2.2138 -1.2374 -0.6053
16436TIP3   OH270722   4.657   3.670   2.392 -0.2188 -0.2115 -0.2768
16436TIP3    H170723   4.634   3.579   2.412 -2.8183 -0.1269 -2.4642
16436TIP3    H270724   4.740   3.665   2.345  0.0450 -1.3773  0.3126
16437TIP3   OH270725   6.479   0.773  11.705 -0.4775 -0.1328 -0.6919
16437TIP3    H170726   6.466   0.858  11.748 -0.9426  0.2451 -1.5732
16437TIP3    H270727   6.434   0.781  11.622 -2.8599 -2.2048  0.3567
16438TIP3   OH270728   6.291   2.141   0.966 -0.2544  0.0113 -0.4484
16438TIP3    H170729   6.305   2.235   0.971  1.0395 -0.2271  0.7080
16438TIP3    H270730   6.358   2.110   0.904  0.8994 -0.4448  1.0077
16439TIP3   OH270731   4.442   0.891   6.022  0.0887  0.4633  0.0949
16439TIP3    H170732   4.534   0.917   6.031  0.0254  0.0492  2.2926
16439TIP3    H270733   4.442   0.797   6.036 -0.3602  0.0263 -2.6211
16440TIP3   OH270734   3.771   4.071   3.157  1.1372  0.4261 -0.0115
16440TIP3    H170735   3.849   4.118   3.129  1.8040 -0.5568  0.1344
16440TIP3    H270736   3.760   4.002   3.092  1.6380 -0.7450  1.1120
16441TIP3   OH270737   2.372   1.261   3.069 -0.0155  0.5207  0.0496
16441TIP3    H170738   2.319   1.341   3.063 -0.1697  0.5083  1.1617
16441TIP3    H270739   2.336   1.214   3.144  0.7837 -0.0835  0.0599
16442TIP3   OH270740   4.304   3.632  16.628  0.1398  0.7078  0.8080
16442TIP3    H170741   4.228   3.580  16.654 -1.4901  3.6190  2.1378
16442TIP3    H270742   4.270   3.693  16.562  1.5620  1.3069  0.6014
16443TIP3   OH270743   2.102   6.183  14.445 -0.0712  0.3397  0.0493
16443TIP3    H170744   2.167   6.175  14.515 -1.2092  1.1605  1.2203
16443TIP3    H270745   2.075   6.093  14.428 -2.5563  0.3828  3.3493
16444TIP3   OH270746   2.340   0.251   2.219 -0.0125  0.1411 -0.1502
16444TIP3    H170747   2.359   0.189   2.148 -1.3823 -1.3303  0.7453
16444TIP3    H270748   2.271   0.307   2.183 -0.4154 -0.3396 -0.1284
16445TIP3   OH270749   1.004   3.177  11.486  0.4941  0.7643  0.3444
16445TIP3    H170750   0.965   3.107  11.433  0.2915  0.5004  0.8439
16445TIP3    H270751   1.081   3.204  11.436  2.8866 -2.5472  2.0321
16446TIP3   OH270752   1.729   3.543   2.322 -0.1382  0.2474 -0.2521
16446TIP3    H170753   1.663   3.537   2.391  1.4160 -0.2829  1.1974
16446TIP3    H270754   1.813   3.540   2.367  0.9166  1.4243 -2.0335
16447TIP3   OH270755   3.367   2.776   5.540  0.5857 -0.6423 -0.0684
16447TIP3    H170756   3.358   2.862   5.582  0.8414 -0.3341 -0.6451
16447TIP3    H270757   3.283   2.762   5.496  0.3884 -0.8792  0.3822
16448TIP3   OH270758   0.552   4.671   0.857  0.5475  0.2206 -0.4515
16448TIP3    H170759   0.635   4.713   0.880 -0.3788  0.7816  1.9463
16448TIP3    H270760   0.571   4.577   0.865  0.8796  0.3520  0.3874
16449TIP3   OH270761   4.507   4.865  14.159 -0.1922  0.0837  0.2113
16449TIP3    H170762   4.517   4.873  14.254  0.3783 -1.8631  0.3294
16449TIP3    H270763   4.555   4.786  14.136 -2.1876 -0.7129 -1.4000
16450TIP3   OH270764   5.206   1.990   1.153  0.1124  0.5253 -0.5269
16450TIP3    H170765   5.120   2.032   1.148  0.3260  0.9927 -0.3588
16450TIP3    H270766   5.267   2.060   1.131  0.4271  0.0969 -1.0035
16451TIP3   OH270767   6.623   2.044  12.337  0.2051  0.7892 -0.0791
16451TIP3    H170768   6.673   2.041  12.255 -0.4931 -0.7554 -0.4681
16451TIP3    H270769   6.654   2.123  12.381  1.1974  1.1837 -1.4496
16452TIP3   OH270770   0.333   2.740  12.206 -1.0944 -0.0476 -0.2446
16452TIP3    H170771   0.383   2.735  12.124  0.4034 -0.3506  0.6759
16452TIP3    H270772   0.326   2.649  12.236  1.5163  0.3977  1.8283
16453TIP3   OH270773   4.502   2.689   0.689  0.0321 -0.0752  0.0382
16453TIP3    H170774   4.509   2.619   0.624 -0.6157  0.0568 -0.1825
16453TIP3    H270775   4.467   2.763   0.640  0.0045  0.1747  0.4351
16454TIP3   OH270776   2.242   6.384  14.673  0.0523 -0.1791  0.1003
16454TIP3    H170777   2.201   6.299  14.691  0.6546 -0.3860  0.5034
16454TIP3    H270778   2.292   6.404  14.753  2.2161 -0.7827 -1.0716
16455TIP3   OH270779   5.617   3.155  14.611 -0.2339 -0.6782  0.0334
16455TIP3    H170780   5.678   3.127  14.543 -1.8908  1.6733 -2.5474
16455TIP3    H270781   5.633   3.249  14.620 -4.0011  0.2144 -1.4277
16456TIP3   OH270782   4.838   5.558  12.839 -0.3707 -0.2369 -0.2318
16456TIP3    H170783   4.907   5.596  12.893  0.5822 -1.0367 -0.8638
16456TIP3    H270784   4.759   5.606  12.863  0.0819 -0.4188  1.6996
16457TIP3   OH270785   1.250   3.398  16.441  0.5103  0.0815 -0.2886
16457TIP3    H170786   1.198   3.318  16.452 -0.7993  0.8495 -0.6921
16457TIP3    H270787   1.227   3.429  16.353  1.2967  0.7019 -0.2819
16458TIP3   OH270788   1.705   5.227   1.381  0.0446 -0.3839  0.5279
16458TIP3    H170789   1.619   5.222   1.423 -1.1856  2.2178 -1.5303
16458TIP3    H270790   1.709   5.148   1.326 -1.9626  0.5095 -0.9801
16459TIP3   OH270791   2.996   6.302   3.563  0.5908 -0.3605 -0.2422
16459TIP3    H170792   3.057   6.350   3.507 -0.8118  0.9490 -0.7139
16459TIP3    H270793   2.961   6.368   3.623 -2.9012 -0.2863 -2.2305
16460TIP3   OH270794   6.744   1.647  14.244  0.5273  0.0521  0.5347
16460TIP3    H170795   6.670   1.645  14.182  0.2841 -0.5781  0.8464
16460TIP3    H270796   6.707   1.616  14.327  0.5565  2.0598  1.3221
16461TIP3   OH270797   0.454   2.010  17.128  0.5200  0.2915  0.1424
16461TIP3    H170798   0.362   2.019  17.104  0.0739 -0.4675  1.5195
16461TIP3    H270799   0.468   1.915  17.133  1.3806  0.4004 -0.0310
16462TIP3   OH270800   5.464   0.330  16.307  0.6931 -0.1067  0.0896
16462TIP3    H170801   5.447   0.237  16.324 -0.2056 -0.0156 -0.2611
16462TIP3    H270802   5.557   0.341  16.323  1.1614 -1.4532 -1.5668
16463TIP3   OH270803   4.468   4.919   4.749 -0.8114  0.1504  0.0460
16463TIP3    H170804   4.491   4.936   4.658  0.3681 -2.8993 -0.2872
16463TIP3    H270805   4.463   5.006   4.789  3.0708  1.3878 -1.8718
16464TIP3   OH270806   1.305   0.430   2.025 -0.2485  0.4358  0.1954
16464TIP3    H170807   1.223   0.420   2.073  0.4883 -0.1223  1.3523
16464TIP3    H270808   1.373   0.406   2.088  0.9605  3.1142 -0.0292
16465TIP3   OH270809   0.492   4.470  14.839 -0.4130  0.3664 -0.0617
16465TIP3    H170810   0.451   4.470  14.753 -0.6873  1.4933  0.0576
16465TIP3    H270811   0.427   4.510  14.897 -0.2669 -0.4667  0.6879
16466TIP3   OH270812   4.028   6.760  11.172 -0.0845  0.2970  0.1305
16466TIP3    H170813   4.005   6.853  11.171 -0.6122  0.1720  0.4732
16466TIP3    H270814   3.990   6.725  11.091 -0.1216  0.3255  0.1357
16467TIP3   OH270815   3.321   6.356  13.039 -0.6895  0.0582 -0.6454
16467TIP3    H170816   3.352   6.304  13.113 -0.6536 -0.5602 -1.0916
16467TIP3    H270817   3.387   6.342  12.971 -1.0597  0.1081 -1.0156
16468TIP3   OH270818   6.568   0.828  11.272 -0.1648  0.3592 -0.0001
16468TIP3    H170819   6.536   0.773  11.344  1.0376  0.4815  0.6389
16468TIP3    H270820   6.524   0.794  11.194 -2.2581  0.8579  0.9168
16469TIP3   OH270821   4.260   1.117   0.482 -0.6937  0.5411  0.5165
16469TIP3    H170822   4.353   1.119   0.459 -1.1108  2.0342 -1.1253
16469TIP3    H270823   4.237   1.208   0.501 -1.4949 -0.0156  2.3183
16470TIP3   OH270824   6.226   2.943  15.538  0.2679  0.0347 -0.1459
16470TIP3    H170825   6.186   2.991  15.612  0.3300  0.0033 -0.0919
16470TIP3    H270826   6.154   2.896  15.498 -0.3249  2.2853 -1.8549
16471TIP3   OH270827   3.237   1.483   3.132  0.5331  0.1995  0.0932
16471TIP3    H170828   3.200   1.527   3.055  1.6060  1.1810  0.1136
16471TIP3    H270829   3.226   1.390   3.115  0.9142  0.4091 -1.3470
16472TIP3   OH270830   5.374   2.185   1.946  0.2811 -0.3559 -0.2875
16472TIP3    H170831   5.364   2.260   2.004  2.0266  0.6686 -1.2935
16472TIP3    H270832   5.459   2.148   1.967 -0.2561 -1.6438 -0.2924
16473TIP3   OH270833   5.719   2.268  12.221  0.2975 -0.6658 -0.1738
16473TIP3    H170834   5.703   2.187  12.172 -0.7154  0.1326 -1.1961
16473TIP3    H270835   5.657   2.264  12.294 -1.0374  0.0357 -1.2566
16474TIP3   OH270836   0.046   3.402  15.898  0.5099  0.3265  0.2905
16474TIP3    H170837  -0.006   3.455  15.958 -1.3159 -0.1310 -0.8399
16474TIP3    H270838   0.055   3.455  15.820 -0.5373 -0.6516 -0.5051
16475TIP3   OH270839   5.014   3.196   6.261  0.3335 -0.0959  0.5578
16475TIP3    H170840   5.097   3.208   6.215  1.2935  0.1392  2.3161
16475TIP3    H270841   5.035   3.135   6.332 -1.4668 -1.6736 -0.2225
16476TIP3   OH270842   6.617   6.209   5.161 -0.1368  0.3384 -0.4418
16476TIP3    H170843   6.534   6.218   5.208 -1.2558  0.0339 -2.3359
16476TIP3    H270844   6.646   6.299   5.148 -1.5418  0.5635 -2.1558
16477TIP3   OH270845   4.656   4.758   2.129  0.5647 -0.7835 -0.0673
16477TIP3    H170846   4.612   4.673   2.126  0.4337 -0.7786  1.3916
16477TIP3    H270847   4.742   4.741   2.091  0.3774 -1.4723 -0.1948
16478TIP3   OH270848   5.552   6.623  12.776  0.6182  0.0556  0.0938
16478TIP3    H170849   5.480   6.570  12.809  0.1146 -0.9682 -2.4990
16478TIP3    H270850   5.517   6.712  12.773 -0.0222 -0.1865  0.2970
16479TIP3   OH270851   5.471   3.855  16.928  0.7226 -0.4843 -0.0916
16479TIP3    H170852   5.434   3.939  16.902  2.4400  1.1587  2.5174
16479TIP3    H270853   5.399   3.792  16.917 -0.5170  1.2474 -2.2704
16480TIP3   OH270854   3.767   4.351   3.690  0.7059 -0.0798  0.1767
16480TIP3    H170855   3.764   4.328   3.783  0.1897 -1.0208 -0.0713
16480TIP3    H270856   3.789   4.270   3.645  0.5896  0.2886 -0.5579
16481TIP3   OH270857   4.470   0.741  11.268  0.1631  0.6685  0.4094
16481TIP3    H170858   4.428   0.671  11.218  0.1372  0.1989  1.0829
16481TIP3    H270859   4.443   0.822  11.224  0.1847  0.2593 -0.3708
16482TIP3   OH270860   4.142   2.945  16.024 -0.0355  0.5065  0.1425
16482TIP3    H170861   4.182   2.995  15.953  0.6618 -0.1966  0.0309
16482TIP3    H270862   4.048   2.960  16.014  0.0456  0.3122 -1.0225
16483TIP3   OH270863   4.416   1.375  12.384  0.2376  0.5416 -0.3104
16483TIP3    H170864   4.435   1.361  12.477  0.1322  0.4292 -0.3055
16483TIP3    H270865   4.341   1.319  12.366  0.6050  0.1319 -0.5968
16484TIP3   OH270866   3.495   4.292  16.832  0.4490  0.2443  0.0794
16484TIP3    H170867   3.443   4.212  16.824 -0.8672  1.0329  0.6079
16484TIP3    H270868   3.471   4.344  16.755  1.0896  0.2526 -0.1126
16485TIP3   OH270869   6.600   4.574  10.969 -0.4422 -0.3426 -0.3099
16485TIP3    H170870   6.663   4.646  10.965  1.4049 -1.9490 -0.9345
16485TIP3    H270871   6.557   4.576  10.884 -0.2032 -0.1159 -0.4278
16486TIP3   OH270872   5.805   4.627   3.833 -0.2041  0.2870 -0.2002
16486TIP3    H170873   5.760   4.561   3.781  1.2348 -0.6474 -0.2681
16486TIP3    H270874   5.818   4.586   3.919  0.2405  0.6536 -0.0877
16487TIP3   OH270875   2.246   0.103   6.119 -0.5174  0.4237  0.3638
16487TIP3    H170876   2.287   0.031   6.167 -2.0913 -1.1908 -0.6503
16487TIP3    H270877   2.301   0.179   6.138 -0.1758 -0.5004  3.4289
16488TIP3   OH270878   4.958   4.969   5.526 -0.1101 -1.2813  0.1224
16488TIP3    H170879   4.926   4.879   5.515 -1.1569 -0.5326 -3.5733
16488TIP3    H270880   5.052   4.963   5.508 -0.0036 -1.7490  0.7896
16489TIP3   OH270881   3.359   5.934   2.546 -0.7130  0.6237 -0.2838
16489TIP3    H170882   3.357   6.000   2.615  1.7392 -0.3447  0.8010
16489TIP3    H270883   3.451   5.905   2.543 -1.3889 -1.5471 -1.8453
16490TIP3   OH270884   4.750   3.591  16.720 -0.3881 -0.0952  0.4128
16490TIP3    H170885   4.832   3.613  16.764 -0.8017  1.1547  0.5811
16490TIP3    H270886   4.742   3.496  16.730  0.6623 -0.1266  1.0390
16491TIP3   OH270887   3.365   2.076  16.905  0.1140  0.3275 -0.0762
16491TIP3    H170888   3.414   2.078  16.988  1.1900  0.5147 -0.7044
16491TIP3    H270889   3.379   2.163  16.868 -1.1688  0.5693 -0.0007
16492TIP3   OH270890   6.039   3.068  14.781 -0.0260  0.7387 -0.3178
16492TIP3    H170891   5.996   3.104  14.859 -0.2598 -0.7572  0.2631
16492TIP3    H270892   5.969   3.063  14.715 -0.4097 -0.3178  0.1633
16493TIP3   OH270893   2.715   5.237   0.082 -0.7524  0.2112  0.0966
16493TIP3    H170894   2.772   5.248   0.006 -0.0023  1.9708  0.8683
16493TIP3    H270895   2.752   5.163   0.130 -0.6867 -0.3216 -0.7679
16494TIP3   OH270896   3.260   0.499  14.458 -0.2371 -0.0526 -0.4310
16494TIP3    H170897   3.189   0.434  14.459  0.1819 -0.4900  1.3605
16494TIP3    H270898   3.293   0.500  14.547  2.2923 -0.1485 -1.3341
16495TIP3   OH270899   0.547   0.725  11.855 -0.0011 -0.0137  0.1973
16495TIP3    H170900   0.609   0.728  11.783  0.0896 -1.7681  0.1794
16495TIP3    H270901   0.472   0.775  11.825 -0.4487 -1.7080 -1.6023
16496TIP3   OH270902   4.599   5.465   4.052  0.0662 -0.0275  0.9714
16496TIP3    H170903   4.557   5.518   3.985 -1.5448 -1.5929  0.7075
16496TIP3    H270904   4.682   5.438   4.013  0.3458  1.2857  0.6532
16497TIP3   OH270905   3.074   5.842   3.625 -0.1385  0.3447  0.1667
16497TIP3    H170906   3.120   5.806   3.549  1.4409 -1.1749  1.7917
16497TIP3    H270907   3.116   5.926   3.642  0.7604 -0.1554  0.4597
16498TIP3   OH270908   4.907   4.641   3.187  0.5510  0.4589 -0.2832
16498TIP3    H170909   4.891   4.589   3.266 -2.3552  3.0531  0.9450
16498TIP3    H270910   4.931   4.727   3.219 -0.7947  1.5976 -2.1880
16499TIP3   OH270911   5.488   3.348   5.830  0.0044  0.2491 -0.0492
16499TIP3    H170912   5.406   3.299   5.819 -0.7164  1.2224  0.8898
16499TIP3    H270913   5.555   3.280   5.833 -0.7470 -0.5500 -0.9962
16500TIP3   OH270914   6.211   0.989  11.896  0.3767  0.0945  0.1001
16500TIP3    H170915   6.270   1.055  11.859  0.4428  0.3528  0.6557
16500TIP3    H270916   6.264   0.944  11.961  0.6410 -1.2051 -0.9959
16501TIP3   OH270917   3.062   5.619   5.204  0.2685 -0.2660 -0.7791
16501TIP3    H170918   3.143   5.625   5.152  1.0710  0.7660  0.5658
16501TIP3    H270919   3.029   5.531   5.186  1.0972 -0.3075 -2.2101
16502TIP3   OH270920   2.708   5.321   5.222 -0.7380  0.3695 -0.2718
16502TIP3    H170921   2.668   5.407   5.212 -0.0178  0.7113 -0.2062
16502TIP3    H270922   2.685   5.275   5.141 -1.9390  0.2859  0.1093
16503TIP3   OH270923   2.963   5.301   2.908  0.0460  0.5232 -0.1140
16503TIP3    H170924   2.910   5.380   2.921  1.8580  1.6823  0.3906
16503TIP3    H270925   3.022   5.324   2.836  0.0207 -0.6737 -0.5200
16504TIP3   OH270926   1.145   3.054   1.558  0.4972  0.1704 -0.3850
16504TIP3    H170927   1.222   3.109   1.572 -0.3896  0.7723  2.4549
16504TIP3    H270928   1.095   3.100   1.490  1.7896  0.6785 -1.0023
16505TIP3   OH270929   4.303   1.023  14.737  0.0934  0.6857  0.0967
16505TIP3    H170930   4.345   0.937  14.729 -1.2666 -0.1330  1.4965
16505TIP3    H270931   4.299   1.056  14.647  1.3588 -0.3604 -0.3620
16506TIP3   OH270932   3.544   1.873   4.220 -0.0380  0.3710  0.3167
16506TIP3    H170933   3.609   1.805   4.201  0.4663  1.0281 -0.3310
16506TIP3    H270934   3.477   1.860   4.154  1.0715  1.8127 -1.1326
16507TIP3   OH270935   5.093   1.586   5.825  0.2373  0.7392 -0.6134
16507TIP3    H170936   5.029   1.515   5.826 -1.0089  1.8498  0.7634
16507TIP3    H270937   5.121   1.594   5.917  0.4844  1.9354 -0.7910
16508TIP3   OH270938   4.481   1.903  13.928  0.2840 -0.7986 -0.1584
16508TIP3    H170939   4.486   1.987  13.973  0.1406 -0.8231 -0.0960
16508TIP3    H270940   4.565   1.861  13.948  1.2729  0.2346 -2.0156
16509TIP3   OH270941   0.767   6.033   3.578  0.0026  0.5962 -0.2665
16509TIP3    H170942   0.717   6.058   3.500  0.5606  0.8619 -0.5442
16509TIP3    H270943   0.708   6.051   3.651 -0.0081  1.6918 -0.5327
16510TIP3   OH270944   1.063   4.078   3.307 -0.0949 -0.2879 -0.1749
16510TIP3    H170945   1.067   4.150   3.371 -0.7144 -1.0525  0.7325
16510TIP3    H270946   1.088   4.119   3.224 -3.2399  1.6512 -0.2457
16511TIP3   OH270947   6.709   1.129   0.611  0.6118  0.3825 -0.6049
16511TIP3    H170948   6.768   1.086   0.549 -0.5235  0.3114 -1.6301
16511TIP3    H270949   6.724   1.222   0.598  1.3539  0.3556 -0.0230
16512TIP3   OH270950   5.916   0.103   3.961 -0.2086  0.4845  0.0852
16512TIP3    H170951   5.871   0.132   3.881  0.4746 -0.2133 -0.5573
16512TIP3    H270952   5.996   0.062   3.930 -0.0711 -0.0420  1.1209
16513TIP3   OH270953   5.349   1.041  17.048  0.2808 -0.4242  0.2208
16513TIP3    H170954   5.320   0.966  17.100 -0.0186 -1.9052 -1.9956
16513TIP3    H270955   5.409   1.003  16.984  1.2921  1.4746  0.0013
16514TIP3   OH270956   3.190   5.421   2.743 -0.1867  0.1307 -0.7070
16514TIP3    H170957   3.233   5.386   2.665  2.5072  1.5459  0.0545
16514TIP3    H270958   3.151   5.503   2.714  1.6445  1.1364 -0.3841
16515TIP3   OH270959   3.517   1.571  12.166  0.0158  0.1530  0.9970
16515TIP3    H170960   3.526   1.642  12.103 -0.5409 -0.8491 -0.2462
16515TIP3    H270961   3.439   1.593  12.217 -0.7707 -0.0594 -0.0767
16516TIP3   OH270962   2.941   4.633  16.377 -0.0981  0.0229  0.0446
16516TIP3    H170963   2.874   4.677  16.429 -0.5245 -0.4385 -0.1117
16516TIP3    H270964   2.948   4.546  16.416  1.8209  0.6973  1.3294
16517TIP3   OH270965   0.965   5.557  17.080  0.0566  0.4058  0.3481
16517TIP3    H170966   1.001   5.646  17.073  0.4584  0.0303 -3.4622
16517TIP3    H270967   0.896   5.554  17.014  0.8534 -2.4703 -0.4329
16518TIP3   OH270968   1.390   2.882   3.695 -0.2424  1.1125 -0.7472
16518TIP3    H170969   1.371   2.823   3.768  0.8090  0.3476 -1.0827
16518TIP3    H270970   1.371   2.969   3.730  0.1601  0.7453  0.4195
16519TIP3   OH270971   3.513   3.598  14.458 -0.5340 -0.1480 -0.3061
16519TIP3    H170972   3.452   3.524  14.455 -0.3993 -0.2704 -0.0295
16519TIP3    H270973   3.592   3.563  14.499 -0.4854  0.1592 -0.1302
16520TIP3   OH270974   1.353   1.942  14.070 -0.1737 -0.0171  0.1228
16520TIP3    H170975   1.401   2.016  14.109  0.9333 -1.0773  0.8254
16520TIP3    H270976   1.298   1.910  14.142  0.1946 -0.5774  0.1544
16521TIP3   OH270977   2.709   0.616  15.730 -0.3179 -0.4398 -0.1351
16521TIP3    H170978   2.717   0.520  15.731 -1.7770 -0.6089 -2.1583
16521TIP3    H270979   2.621   0.632  15.697 -0.0680  1.6155  0.1553
16522TIP3   OH270980   1.756   6.153   4.092  0.0292 -0.3852 -0.2305
16522TIP3    H170981   1.742   6.152   4.187 -0.4080  0.7193 -0.2781
16522TIP3    H270982   1.798   6.237   4.074 -0.3155 -0.3844 -1.0737
16523TIP3   OH270983   0.066   3.408   3.572  0.2196  0.2331  0.1786
16523TIP3    H170984  -0.012   3.364   3.606  0.1309  0.0406 -0.2761
16523TIP3    H270985   0.063   3.392   3.478 -0.7068  2.5982 -0.2318
16524TIP3   OH270986   2.154   1.187  15.536  0.0136  0.1901  0.3238
16524TIP3    H170987   2.167   1.147  15.450 -1.9411 -1.0959  0.5997
16524TIP3    H270988   2.236   1.169  15.583  0.1265 -1.3473 -0.4062
16525TIP3   OH270989   5.449   0.532  15.736 -0.0429  0.0153  0.0190
16525TIP3    H170990   5.437   0.620  15.771 -1.5963  0.0142 -0.4898
16525TIP3    H270991   5.407   0.474  15.799 -0.4192 -0.2200 -0.4442
16526TIP3   OH270992   0.679   2.812   0.990  0.2717  0.3243 -0.2025
16526TIP3    H170993   0.766   2.845   1.014 -0.8953  2.0472  1.8436
16526TIP3    H270994   0.691   2.718   0.981  2.6343  0.6750 -1.2409
16527TIP3   OH270995   1.235   2.978  14.827 -0.5255  0.4189 -0.0436
16527TIP3    H170996   1.192   3.063  14.817 -0.8191  0.3990  0.9456
16527TIP3    H270997   1.165   2.918  14.851 -0.3575 -0.1581 -0.9939
16528TIP3   OH270998   3.668   4.825   3.484 -0.4452 -0.2485  0.0189
16528TIP3    H170999   3.580   4.841   3.451 -0.1353  0.8947 -0.2668
16528TIP3    H271000   3.711   4.911   3.482  0.3900 -0.6277  0.9867
16529TIP3   OH271001   3.976   0.970  13.211 -0.1020 -0.1039  0.5094
16529TIP3    H171002   4.037   1.039  13.238  0.5637 -1.0363  1.4492
16529TIP3    H271003   3.892   1.014  13.204  0.4325  0.9370  0.4935
16530TIP3   OH271004   1.957   0.568   1.771 -0.2188  0.6106 -0.4051
16530TIP3    H171005   2.013   0.601   1.841  0.3360 -0.9341 -0.1044
16530TIP3    H271006   1.958   0.638   1.705 -0.7364  2.0659  1.0963
16531TIP3   OH271007   5.170   4.825   5.240 -0.0615 -0.7742  0.4652
16531TIP3    H171008   5.220   4.902   5.213 -0.7066 -0.2842  0.6725
16531TIP3    H271009   5.230   4.777   5.297  0.7522 -1.0169 -0.5649
16532TIP3   OH271010   2.667   6.214  10.901  0.3738  0.7134  0.2375
16532TIP3    H171011   2.623   6.136  10.865  2.0683  0.1807 -0.7750
16532TIP3    H271012   2.596   6.274  10.922 -0.8250 -0.0232 -1.5748
16533TIP3   OH271013   3.433   4.584  11.887 -0.8392  0.1440  0.2849
16533TIP3    H171014   3.416   4.677  11.896 -0.7060  0.0831  1.2703
16533TIP3    H271015   3.412   4.547  11.973  0.7617 -0.4669  0.4383
16534TIP3   OH271016   2.332   3.175   3.768  0.0525 -0.1619  0.1951
16534TIP3    H171017   2.426   3.179   3.747  0.4584 -1.1929  1.7782
16534TIP3    H271018   2.329   3.178   3.863 -1.4916 -1.0416  0.1736
16535TIP3   OH271019   2.102   3.231   0.451  0.8321  0.1105  0.2213
16535TIP3    H171020   2.044   3.301   0.482  0.1496 -0.7390  0.8689
16535TIP3    H271021   2.081   3.222   0.358 -0.4213 -0.5186  0.5514
16536TIP3   OH271022   3.410   5.509  14.919 -0.2223  0.2494  0.5082
16536TIP3    H171023   3.386   5.566  14.992 -0.9327  0.5211  0.0655
16536TIP3    H271024   3.483   5.457  14.953 -0.5953  0.3204  1.4361
16537TIP3   OH271025   3.548   0.218   3.303 -0.5290 -0.2530  0.5386
16537TIP3    H171026   3.564   0.214   3.208 -2.3149 -0.1379  0.2100
16537TIP3    H271027   3.628   0.184   3.342  0.7664  1.0029 -0.9742
16538TIP3   OH271028   3.264   1.842  14.012  0.4633  0.0967 -0.4964
16538TIP3    H171029   3.325   1.849  14.085  0.6450  0.5226 -0.6893
16538TIP3    H271030   3.320   1.839  13.934  0.1915  1.7447 -0.7618
16539TIP3   OH271031   1.616   3.266  11.506  0.1217 -0.0589  0.2979
16539TIP3    H171032   1.683   3.317  11.552 -0.7383  0.4318  1.0290
16539TIP3    H271033   1.555   3.332  11.473  0.6709 -0.4182 -1.4851
16540TIP3   OH271034   3.837   1.781  11.556 -0.1012 -0.3957  0.2924
16540TIP3    H171035   3.806   1.755  11.642 -0.0403 -1.7583 -0.0792
16540TIP3    H271036   3.826   1.703  11.502  3.6849 -0.8843  0.0720
16541TIP3   OH271037   5.912   2.313   6.432  0.4808 -0.1193 -0.1010
16541TIP3    H171038   5.983   2.373   6.409  1.6368 -0.9793  1.1466
16541TIP3    H271039   5.873   2.350   6.512  0.9819 -0.8321  0.4837
16542TIP3   OH271040   3.600   2.827   5.349  0.2118 -0.3939 -0.3872
16542TIP3    H171041   3.520   2.868   5.315 -0.6782 -1.6459  0.1671
16542TIP3    H271042   3.595   2.840   5.444  1.1534  0.3720 -0.4377
16543TIP3   OH271043   6.501   0.324   4.935  0.0216 -0.1355 -0.3040
16543TIP3    H171044   6.514   0.267   5.011  1.1225  0.0988 -0.2978
16543TIP3    H271045   6.540   0.407   4.962 -2.0617  0.8041 -0.1009
16544TIP3   OH271046   1.523   6.049  14.415  0.0151 -0.3310  0.0626
16544TIP3    H171047   1.595   6.110  14.401  1.6856 -1.9243  1.4181
16544TIP3    H271048   1.543   5.974  14.360  0.7358 -1.8125  2.2406
16545TIP3   OH271049   1.638   4.469  13.882  0.2409  0.2097 -0.0539
16545TIP3    H171050   1.637   4.378  13.911  2.3879 -0.4582 -1.8848
16545TIP3    H271051   1.612   4.465  13.790  0.9474  1.3477 -0.3193
16546TIP3   OH271052   3.618   5.430  13.113 -0.4138  0.1509 -0.3442
16546TIP3    H171053   3.705   5.405  13.080 -0.8474 -0.2875 -1.1760
16546TIP3    H271054   3.591   5.502  13.055 -1.8401 -1.6399 -1.9581
16547TIP3   OH271055   4.644   2.837   3.769  0.3283  0.0216 -0.2146
16547TIP3    H171056   4.561   2.819   3.812 -0.3243  2.4938 -0.3448
16547TIP3    H271057   4.654   2.768   3.703 -1.9081  0.0521 -0.6012
16548TIP3   OH271058   5.915   0.535   3.318  0.2620  0.2956 -0.3281
16548TIP3    H171059   5.929   0.570   3.406  1.5644 -0.6995 -0.1064
16548TIP3    H271060   5.969   0.456   3.316  1.1323  0.9153 -2.4027
16549TIP3   OH271061   2.573   4.464   1.972 -0.0063 -0.4238  0.4198
16549TIP3    H171062   2.633   4.439   2.043 -1.1514 -0.5029  1.3815
16549TIP3    H271063   2.556   4.557   1.987 -0.0431 -0.3787  0.0924
16550TIP3   OH271064   2.288   1.359  11.477 -0.6196 -0.0483 -0.4154
16550TIP3    H171065   2.228   1.375  11.405  0.0547  0.3261 -0.9049
16550TIP3    H271066   2.240   1.385  11.556 -0.9194  0.6799 -0.8451
16551TIP3   OH271067   5.014   1.302   2.180 -0.3971 -0.2950 -0.0151
16551TIP3    H171068   5.019   1.234   2.248  2.3999 -0.8765 -0.7368
16551TIP3    H271069   4.942   1.273   2.124 -0.6221 -1.5426  0.8832
16552TIP3   OH271070   3.897   4.470   1.596 -0.2552  0.3081  0.0443
16552TIP3    H171071   3.989   4.463   1.621 -0.1026 -0.3935 -0.6944
16552TIP3    H271072   3.886   4.562   1.572 -0.4625  1.0553  2.8558
16553TIP3   OH271073   2.323   0.893  13.543  0.6399 -0.1291  0.5486
16553TIP3    H171074   2.277   0.961  13.594  0.7258  0.2219  0.1650
16553TIP3    H271075   2.416   0.911  13.558  0.7131  1.1796 -1.2524
16554TIP3   OH271076   5.225   5.704  12.393 -0.5622 -0.0285 -0.0859
16554TIP3    H171077   5.162   5.725  12.323 -0.8304  0.2946  0.2521
16554TIP3    H271078   5.243   5.788  12.435  1.4047  0.1878 -1.2561
16555TIP3   OH271079   5.703   6.106   2.957 -0.6056  0.2421 -0.1234
16555TIP3    H171080   5.721   6.195   2.926 -1.3793  1.1667  1.9885
16555TIP3    H271081   5.711   6.051   2.879 -0.4246  2.2069 -1.5144
16556TIP3   OH271082   1.678   5.829   0.870  0.0610  0.5088 -0.5013
16556TIP3    H171083   1.632   5.749   0.845  0.2593  0.3928 -0.4993
16556TIP3    H271084   1.703   5.868   0.786 -0.9333  1.1011 -0.5322
16557TIP3   OH271085   4.656   3.365  14.422  0.0407  0.2443  0.1010
16557TIP3    H171086   4.691   3.403  14.341  0.1168 -1.5614 -0.7380
16557TIP3    H271087   4.715   3.395  14.490  1.9922 -0.9931 -1.0072
16558TIP3   OH271088   0.589   6.127   1.840  0.3118 -0.3788  0.1202
16558TIP3    H171089   0.646   6.160   1.770  0.2585  0.8846  0.6621
16558TIP3    H271090   0.645   6.067   1.890  0.8798  0.1300  0.0924
16559TIP3   OH271091   2.433   6.556   4.181 -0.5567  0.2793 -0.4574
16559TIP3    H171092   2.523   6.525   4.172  0.0246  2.1487 -1.5057
16559TIP3    H271093   2.424   6.576   4.274 -1.0542 -3.1763  0.3023
16560TIP3   OH271094   1.103   6.085   2.589 -0.2445 -0.5164 -0.2382
16560TIP3    H171095   1.173   6.060   2.649  0.3509 -0.0475 -0.7223
16560TIP3    H271096   1.101   6.181   2.594 -3.0228 -0.6199  2.2057
16561TIP3   OH271097   6.728   5.083  16.738  0.2202 -0.3878  0.3419
16561TIP3    H171098   6.638   5.049  16.732  0.6958 -1.4773 -0.7019
16561TIP3    H271099   6.767   5.064  16.653  1.8004 -0.9410  1.1683
16562TIP3   OH271100   4.200   2.744  12.299  0.0653  0.0486 -0.6505
16562TIP3    H171101   4.186   2.826  12.250 -1.7584  0.3817  0.3948
16562TIP3    H271102   4.169   2.676  12.240 -1.3186  0.3805 -0.3193
16563TIP3   OH271103   1.219   3.686  11.370  0.3814  0.0873 -0.0890
16563TIP3    H171104   1.155   3.755  11.392  0.1557 -0.2703  0.3733
16563TIP3    H271105   1.304   3.730  11.375  0.1186  0.8429 -1.7618
16564TIP3   OH271106   6.456   6.144  16.390  0.5849  0.6561 -0.3303
16564TIP3    H171107   6.489   6.135  16.301  0.0602  0.9549 -0.5569
16564TIP3    H271108   6.413   6.229  16.391  0.7401  0.7274  0.2596
16565TIP3   OH271109   2.559   0.937   3.771  0.5926 -0.5296  0.0851
16565TIP3    H171110   2.599   0.863   3.726 -1.0346 -0.5048 -1.4666
16565TIP3    H271111   2.631   0.980   3.816  1.6146 -2.9226  0.8614
16566TIP3   OH271112   1.525   3.634  14.626  0.0647  0.5565  0.1924
16566TIP3    H171113   1.597   3.619  14.686  0.1781  0.1553 -0.0409
16566TIP3    H271114   1.457   3.572  14.653 -0.1808  0.9119  0.3932
16567TIP3   OH271115   4.255   0.172  12.104 -0.2751  0.0725 -0.2271
16567TIP3    H171116   4.325   0.237  12.107 -1.5119  1.5329 -1.9187
16567TIP3    H271117   4.177   0.221  12.078 -1.3452 -2.0141 -1.1030
16568TIP3   OH271118   2.981   1.956   4.656 -0.8116  0.3314 -0.3900
16568TIP3    H171119   2.933   2.030   4.693 -0.4648 -0.7065  2.2353
16568TIP3    H271120   3.064   1.993   4.626 -1.5203  1.3729 -1.1177
16569TIP3   OH271121   0.893   2.963   1.211  0.4589  0.0933  0.2287
16569TIP3    H171122   0.893   2.877   1.253  0.2535 -0.7837 -1.4969
16569TIP3    H271123   0.927   2.947   1.123 -0.6673  1.5776 -0.5150
16570TIP3   OH271124   4.009   5.632   3.997 -0.0520  0.1574  0.5475
16570TIP3    H171125   4.079   5.653   3.936  1.4222  0.3655  2.2744
16570TIP3    H271126   3.998   5.537   3.990  0.2542  0.1528  0.1214
16571TIP3   OH271127   1.507   3.921  12.139 -0.2697  0.3463  0.0733
16571TIP3    H171128   1.501   3.927  12.043 -3.2550 -1.9385  0.0601
16571TIP3    H271129   1.550   3.837  12.155  0.3562  0.7929  0.7573
16572TIP3   OH271130   3.395   2.567   5.001  0.8657 -0.4863 -0.3243
16572TIP3    H171131   3.385   2.551   5.095 -2.3117 -1.1808 -0.7178
16572TIP3    H271132   3.474   2.518   4.977  2.4166  0.6744  2.1571
16573TIP3   OH271133   5.019   2.005  15.853  0.0275 -0.1861 -0.6130
16573TIP3    H171134   5.095   1.964  15.810 -0.9051 -2.0787 -0.4694
16573TIP3    H271135   5.052   2.033  15.938  1.2158  1.2904 -1.5222
16574TIP3   OH271136   5.682   3.274  14.110  0.2101  0.4309 -0.1543
16574TIP3    H171137   5.695   3.217  14.033 -0.1065  1.2374 -0.8080
16574TIP3    H271138   5.588   3.290  14.113  0.3282  1.1422 -0.1307
16575TIP3   OH271139   6.348   6.609   1.225  0.1701  0.3914  0.0089
16575TIP3    H171140   6.388   6.599   1.139  0.5898  2.5724 -0.0880
16575TIP3    H271141   6.254   6.598   1.209  0.3392 -0.3443 -0.5170
16576TIP3   OH271142   0.058   4.496   4.825 -0.3653  0.2494  0.0863
16576TIP3    H171143  -0.019   4.517   4.878  0.5050 -0.3675  1.6371
16576TIP3    H271144   0.117   4.452   4.886  0.3072 -1.2854 -1.6265
16577TIP3   OH271145   4.627   5.846   5.607 -0.5889 -0.1422 -0.0965
16577TIP3    H171146   4.644   5.876   5.696 -0.6467 -0.4992  0.0364
16577TIP3    H271147   4.626   5.926   5.554 -1.3131  0.1516  0.3471
16578TIP3   OH271148   2.168   6.044   6.575  0.2645  0.8016  0.0824
16578TIP3    H171149   2.216   5.966   6.603 -0.1609  0.7099  0.5657
16578TIP3    H271150   2.119   6.016   6.498  0.3173  0.6564  0.1032
16579TIP3   OH271151   6.732   5.110  13.997 -0.5270 -0.5905 -0.3884
16579TIP3    H171152   6.652   5.069  14.031 -0.9504  1.3045  1.0164
16579TIP3    H271153   6.748   5.183  14.057  2.1795 -0.8363 -0.7559
16580TIP3   OH271154   3.344   1.704  14.464 -0.1613  0.3595  0.5779
16580TIP3    H171155   3.335   1.652  14.543 -0.9308 -0.2045  0.1226
16580TIP3    H271156   3.263   1.755  14.459 -1.5836 -2.0163 -1.5662
16581TIP3   OH271157   6.092   0.732  13.368 -0.2743 -0.0388 -0.1462
16581TIP3    H171158   6.146   0.812  13.371 -0.6992  0.2124  0.8583
16581TIP3    H271159   6.152   0.662  13.394 -0.0837  0.0540 -0.3353
16582TIP3   OH271160   5.725   0.881  15.553 -0.0788 -0.4585  0.0223
16582TIP3    H171161   5.719   0.855  15.645  1.0323 -0.9535 -0.0338
16582TIP3    H271162   5.742   0.975  15.556 -1.0273 -0.2974  0.3024
16583TIP3   OH271163   0.175   4.236   0.291 -0.0415  0.2739 -0.1796
16583TIP3    H171164   0.211   4.283   0.366  1.0240 -1.7652  0.6367
16583TIP3    H271165   0.082   4.227   0.311  0.1609  0.0959  0.7165
16584TIP3   OH271166   1.209   0.849   6.508  0.2950 -0.8409  0.1683
16584TIP3    H171167   1.142   0.910   6.475 -0.3527 -0.7573  1.5780
16584TIP3    H271168   1.169   0.763   6.497  0.4827 -0.8822 -0.1828
16585TIP3   OH271169   0.851   1.402  12.690 -0.0314  0.2839  0.4095
16585TIP3    H171170   0.854   1.466  12.619  0.9718 -2.0198 -1.6869
16585TIP3    H271171   0.763   1.365  12.686  0.0640  0.0701  0.3013
16586TIP3   OH271172   3.773   6.000   0.649  0.0283 -0.4230  0.5718
16586TIP3    H171173   3.734   5.975   0.565 -2.6203 -1.4398  2.0243
16586TIP3    H271174   3.732   6.084   0.671  3.0253  1.4314 -0.5438
16587TIP3   OH271175   1.028   1.283  14.625  0.2544 -0.1627 -0.2066
16587TIP3    H171176   1.067   1.362  14.661 -0.9250 -0.3429  1.5596
16587TIP3    H271177   1.081   1.262  14.548  1.0658  1.8751 -0.2206
16588TIP3   OH271178   1.075   0.877  16.269 -0.5617  0.1827  0.0885
16588TIP3    H171179   1.122   0.957  16.293 -1.4587  0.0414  2.4311
16588TIP3    H271180   0.985   0.892  16.298 -1.5013 -0.3826 -2.4599
16589TIP3   OH271181   5.182   3.961   2.375 -0.7759 -0.2384 -0.0218
16589TIP3    H171182   5.118   3.936   2.441  0.0934  2.7096  1.9898
16589TIP3    H271183   5.233   3.881   2.361 -2.3395 -1.5031  1.2505
16590TIP3   OH271184   2.729   4.762   0.577 -0.4008 -0.4357  0.2688
16590TIP3    H171185   2.737   4.767   0.672  1.6940 -4.4125  0.4094
16590TIP3    H271186   2.817   4.738   0.546 -1.4377 -0.9089 -2.4889
16591TIP3   OH271187   0.641   0.794  14.373  0.0427  0.2721  0.0400
16591TIP3    H171188   0.601   0.807  14.459  1.0903  0.1516  0.5468
16591TIP3    H271189   0.684   0.877  14.353  0.1276  0.1711 -0.2020
16592TIP3   OH271190   5.043   5.863  16.779 -0.1001 -0.4786 -0.0325
16592TIP3    H171191   5.004   5.947  16.755  1.6759  0.6688  0.9610
16592TIP3    H271192   5.088   5.835  16.699 -1.3091 -0.8432 -0.5853
16593TIP3   OH271193   5.454   5.907  16.827 -0.4866  0.0323  0.2224
16593TIP3    H171194   5.525   5.967  16.805 -2.2255  1.3541 -2.0575
16593TIP3    H271195   5.418   5.879  16.743 -2.8817 -0.3006  1.2875
16594TIP3   OH271196   6.700   4.715   3.381 -0.0488 -0.4736  0.1701
16594TIP3    H171197   6.776   4.748   3.428 -0.2203  2.3495 -1.3902
16594TIP3    H271198   6.640   4.790   3.376 -2.4414 -2.2949  0.3545
16595TIP3   OH271199   2.366   0.349  13.560 -0.2246 -0.2199  0.0238
16595TIP3    H171200   2.278   0.346  13.597  0.1540  1.0931  1.0791
16595TIP3    H271201   2.355   0.389  13.473 -0.3562  2.4801  1.2324
16596TIP3   OH271202   0.529   3.347   1.690  0.1914  0.1687 -0.1102
16596TIP3    H171203   0.446   3.306   1.667  0.3805 -0.1049 -0.3050
16596TIP3    H271204   0.507   3.407   1.762 -0.3354  0.7851 -0.7781
16597TIP3   OH271205   3.925   3.958   1.643 -0.4334  0.2337 -0.2885
16597TIP3    H171206   3.979   4.020   1.692 -0.1509  0.0795 -0.4068
16597TIP3    H271207   3.882   3.905   1.710  1.7310 -1.5187 -0.2281
16598TIP3   OH271208   5.170   1.371  13.616 -0.4325  0.0341 -0.2827
16598TIP3    H171209   5.119   1.393  13.538 -2.9746 -0.1742  1.2866
16598TIP3    H271210   5.225   1.297  13.588 -1.4353 -0.1421 -1.8321
16599TIP3   OH271211   2.180   1.050  13.300 -0.4732 -0.3837 -0.2942
16599TIP3    H171212   2.157   0.990  13.230  1.5841 -1.8266  0.2298
16599TIP3    H271213   2.202   0.994  13.374 -0.4756  1.0743  0.8485
16600TIP3   OH271214   1.061   1.200   0.943 -0.1233  0.1988 -0.4350
16600TIP3    H171215   0.989   1.263   0.955 -0.1067 -0.0136  0.8513
16600TIP3    H271216   1.017   1.115   0.938  0.0322  0.0843  0.1909
16601TIP3   OH271217   0.574   1.929  16.643 -0.0559  0.1179 -0.0802
16601TIP3    H171218   0.636   1.856  16.649  2.0322  1.9387  1.1172
16601TIP3    H271219   0.490   1.891  16.672  0.3244 -2.4903 -2.1861
16602TIP3   OH271220   6.165   3.590  16.268  0.0195 -0.1924 -0.5222
16602TIP3    H171221   6.188   3.567  16.178 -1.2005  0.0631 -0.9209
16602TIP3    H271222   6.243   3.632  16.303  1.4518 -2.7522 -0.5544
16603TIP3   OH271223   2.219   1.505   5.452  0.0523 -0.6601 -0.0665
16603TIP3    H171224   2.163   1.528   5.526  0.5197 -0.8819  0.3577
16603TIP3    H271225   2.169   1.438   5.405 -1.9020  2.0814 -2.0446
16604TIP3   OH271226   2.527   1.042  16.180  0.0206  0.3134  0.2113
16604TIP3    H171227   2.570   1.123  16.153  0.5875  0.5357  1.7398
16604TIP3    H271228   2.433   1.061  16.172  0.0567  2.0023  2.8922
16605TIP3   OH271229   2.876   6.002  15.928  0.4269 -0.5668  0.0775
16605TIP3    H171230   2.784   6.029  15.923  0.6178  0.5271  1.9445
16605TIP3    H271231   2.873   5.919  15.975  0.5009  0.2639  1.5885
16606TIP3   OH271232   4.158   3.574  15.437 -0.3487 -0.8633  0.1752
16606TIP3    H171233   4.249   3.564  15.466 -1.1234 -2.1226  2.2451
16606TIP3    H271234   4.146   3.507  15.371  0.0525 -1.1012  0.3424
16607TIP3   OH271235   0.797   4.789   0.861  0.2428  0.3355 -0.7228
16607TIP3    H171236   0.783   4.879   0.890 -1.9281 -0.0975 -0.2781
16607TIP3    H271237   0.878   4.762   0.902 -0.0496  1.4964  0.6421
16608TIP3   OH271238   2.137   6.708  11.834  0.0404  0.0767 -0.7532
16608TIP3    H171239   2.179   6.769  11.774  0.2519 -0.8169 -1.5309
16608TIP3    H271240   2.119   6.631  11.781  0.6238 -0.8969  0.4441
16609TIP3   OH271241   4.849   1.939  12.046 -0.0540 -0.5535 -0.5284
16609TIP3    H171242   4.908   1.990  11.990  0.5014 -0.9867 -0.3459
16609TIP3    H271243   4.787   1.899  11.986 -0.2375 -0.0002 -0.7097
16610TIP3   OH271244   3.452   4.854   2.107 -0.3419  0.3469 -0.2327
16610TIP3    H171245   3.495   4.883   2.026 -0.4178 -0.6898 -0.6423
16610TIP3    H271246   3.359   4.851   2.084 -0.6081  2.1467  0.5209
16611TIP3   OH271247   4.669   4.998   1.006  0.0701 -0.2782 -0.2979
16611TIP3    H171248   4.763   5.002   1.026  0.4018 -0.9983 -1.6345
16611TIP3    H271249   4.627   4.980   1.090  1.1991 -0.7170  0.1819
16612TIP3   OH271250   4.023   2.863  11.754 -0.1571 -0.4033  0.0149
16612TIP3    H171251   3.934   2.857  11.719 -0.4326  0.1231  0.6237
16612TIP3    H271252   4.015   2.837  11.846  0.0943  0.8606  0.4085
16613TIP3   OH271253   2.153   1.073   1.498  0.1934  0.0465  0.7573
16613TIP3    H171254   2.124   1.159   1.530 -1.6389 -0.4567  0.5082
16613TIP3    H271255   2.096   1.055   1.424  1.6619 -0.6642 -0.2195
16614TIP3   OH271256   3.905   2.195   1.912  0.1258  0.5138  0.1014
16614TIP3    H171257   3.828   2.226   1.960  1.3196  0.9908  1.7583
16614TIP3    H271258   3.973   2.187   1.979  0.8226 -2.4007 -0.8753
16615TIP3   OH271259   1.647   2.919   4.196 -0.1527  0.1302  0.4432
16615TIP3    H171260   1.724   2.965   4.230 -0.2983  0.1552  0.7439
16615TIP3    H271261   1.679   2.873   4.118  0.2234 -0.0486  0.6976
16616TIP3   OH271262   6.482   0.431   1.649 -0.7114  0.0738 -0.1374
16616TIP3    H171263   6.533   0.392   1.720 -2.2027  1.2570  1.6475
16616TIP3    H271264   6.394   0.395   1.661 -1.6117  2.2743  0.2765
16617TIP3   OH271265   6.117   2.920  16.740 -0.4055  0.4916 -0.2369
16617TIP3    H171266   6.157   2.835  16.759 -1.5942  0.3557  1.8372
16617TIP3    H271267   6.191   2.980  16.728  0.4213 -0.5945 -0.5949
16618TIP3   OH271268   0.487   0.928   3.782  0.5110  0.4275  0.0786
16618TIP3    H171269   0.531   0.930   3.697 -0.4048 -0.4448 -0.4198
16618TIP3    H271270   0.407   0.878   3.767  0.2471  0.4290  1.4097
16619TIP3   OH271271   5.097   0.567  14.798  0.1994 -0.0437  0.5255
16619TIP3    H171272   5.157   0.544  14.869 -0.2444 -0.8477  0.6476
16619TIP3    H271273   5.115   0.659  14.780  1.0781 -0.1301  0.9398
16620TIP3   OH271274   0.949   5.631   1.275  0.1388 -0.0935 -0.2158
16620TIP3    H171275   0.860   5.645   1.241  0.0739  0.0618  0.0176
16620TIP3    H271276   1.007   5.662   1.205  0.0110 -0.3568 -0.4400
16621TIP3   OH271277   2.900   4.778   1.145  0.5343  0.0068 -0.3624
16621TIP3    H171278   2.904   4.726   1.064 -0.7222 -0.5213 -0.1073
16621TIP3    H271279   2.936   4.721   1.212  1.1407  0.2701 -0.4610
16622TIP3   OH271280   2.179   5.639   1.768 -0.5168  0.1111  0.0984
16622TIP3    H171281   2.088   5.640   1.797 -0.1471 -1.0697  1.3750
16622TIP3    H271282   2.230   5.641   1.849  0.5773 -0.0505 -0.5690
16623TIP3   OH271283   4.881   3.533  12.431 -0.1557 -0.3471  0.5917
16623TIP3    H171284   4.787   3.545  12.447 -0.2547 -2.9702  2.1330
16623TIP3    H271285   4.885   3.481  12.351 -0.0167 -0.4669  0.6763
16624TIP3   OH271286   2.332   6.260   2.002  0.8134 -0.1086  0.2150
16624TIP3    H171287   2.357   6.230   1.914  0.7126  0.4163  0.0042
16624TIP3    H271288   2.410   6.302   2.037  1.2480 -1.4373  0.8870
16625TIP3   OH271289   0.992   1.116  15.239 -0.0816 -0.4566  0.0298
16625TIP3    H171290   0.965   1.032  15.203 -1.2259  0.6618 -1.8414
16625TIP3    H271291   0.942   1.125  15.320  1.0007 -2.1225  0.8979
16626TIP3   OH271292   2.602   1.475  10.581 -0.8456  0.1008 -0.0314
16626TIP3    H171293   2.654   1.552  10.606 -0.2045 -0.7746  1.4353
16626TIP3    H271294   2.514   1.510  10.564 -0.5445  1.1677  0.5280
16627TIP3   OH271295   6.505   3.872   1.009  0.0218  0.2701 -0.8697
16627TIP3    H171296   6.510   3.777   1.013  1.9639  0.3496 -0.7865
16627TIP3    H271297   6.594   3.900   0.988 -0.2511  2.1195  0.2728
16628TIP3   OH271298   6.581   0.419   0.632 -0.3139 -0.0329  0.0433
16628TIP3    H171299   6.528   0.494   0.607 -1.8685 -0.5877  1.6320
16628TIP3    H271300   6.537   0.344   0.593 -0.7667 -0.5106  1.4715
16629TIP3   OH271301   0.644   4.405   0.909  0.4161  0.2429  0.2620
16629TIP3    H171302   0.662   4.374   0.998  1.9373  0.1692 -0.0565
16629TIP3    H271303   0.731   4.418   0.870 -0.2353  0.5308 -1.1259
16630TIP3   OH271304   1.653   6.388  12.388  0.1339  0.0848 -0.2585
16630TIP3    H171305   1.699   6.395  12.471 -0.7697 -0.3555  0.2842
16630TIP3    H271306   1.668   6.472  12.345 -1.1991  1.1460  1.2853
16631TIP3   OH271307   4.656   6.039   4.690  0.1703  0.0518 -0.6971
16631TIP3    H171308   4.625   6.107   4.750 -0.1143  0.4399 -1.2800
16631TIP3    H271309   4.707   5.979   4.745 -1.2579 -0.3580  0.1930
16632TIP3   OH271310   2.579   1.236  15.937 -0.1001 -0.3041  0.2519
16632TIP3    H171311   2.604   1.181  15.863  0.6559  0.8275 -0.3408
16632TIP3    H271312   2.661   1.273  15.970 -0.4568 -0.5565  1.4791
16633TIP3   OH271313   2.582   2.259   1.444  0.3802 -0.1994 -0.2998
16633TIP3    H171314   2.606   2.326   1.508 -1.2992 -1.6784  1.9335
16633TIP3    H271315   2.602   2.176   1.486 -0.3021 -1.2039 -1.8971
16634TIP3   OH271316   3.309   5.789   1.440  0.5737 -0.1318  0.0895
16634TIP3    H171317   3.284   5.766   1.351 -1.1488 -0.4786  0.6480
16634TIP3    H271318   3.335   5.706   1.481  1.2615  0.0110 -0.0384
16635TIP3   OH271319   2.380   4.336  11.509  0.0963 -0.2063 -0.0352
16635TIP3    H171320   2.402   4.418  11.465  0.3026  0.4021  1.1801
16635TIP3    H271321   2.289   4.319  11.486  0.5255 -0.4718 -1.5785
16636TIP3   OH271322   2.664   4.505  11.180 -0.3355  0.1429  0.6588
16636TIP3    H171323   2.604   4.519  11.253  0.5519  0.0863  1.3956
16636TIP3    H271324   2.628   4.559  11.109 -1.2653  0.0933  1.0804
16637TIP3   OH271325   0.085   3.877   2.238 -0.2761 -0.4245  0.7470
16637TIP3    H171326   0.071   3.866   2.332 -2.5156 -1.3498  0.3118
16637TIP3    H271327   0.172   3.840   2.223 -0.1877 -0.9070  2.3251
16638TIP3   OH271328   6.065   3.736   6.037  0.3362  0.1088 -0.7246
16638TIP3    H171329   6.156   3.729   6.007  0.2133  1.5930 -1.5227
16638TIP3    H271330   6.066   3.810   6.098  0.2506 -1.8450  1.7469
16639TIP3   OH271331   1.625   3.512  11.254  0.7338  0.0735  0.4504
16639TIP3    H171332   1.620   3.418  11.241 -1.2251  0.1735  0.3233
16639TIP3    H271333   1.682   3.524  11.329 -0.7517 -1.3203  1.8203
16640TIP3   OH271334   6.402   2.199  12.574  0.0099  0.2553 -0.0367
16640TIP3    H171335   6.455   2.194  12.653  1.1140 -1.0165 -0.8280
16640TIP3    H271336   6.450   2.259  12.517  0.3511 -0.5124 -0.5668
16641TIP3   OH271337   4.489   3.945   4.665 -0.1166 -0.4255 -0.2006
16641TIP3    H171338   4.397   3.918   4.657 -0.5755  1.0236  0.0399
16641TIP3    H271339   4.530   3.874   4.715 -1.1149 -1.0588 -0.2598
16642TIP3   OH271340   3.326   1.422   2.450  0.0328 -0.4178 -0.2175
16642TIP3    H171341   3.328   1.330   2.476 -1.7298 -0.7356 -1.1215
16642TIP3    H271342   3.380   1.466   2.514  1.2117 -2.1433  0.0128
16643TIP3   OH271343   5.009   2.561  14.606 -0.0879  0.0391 -0.4289
16643TIP3    H171344   5.037   2.487  14.660 -0.9340  0.0761  0.0557
16643TIP3    H271345   5.000   2.634  14.667 -1.4342 -0.0203 -0.5610
16644TIP3   OH271346   5.774   6.081   2.066 -0.3705 -0.3905  0.2096
16644TIP3    H171347   5.867   6.091   2.089 -0.6155  1.0865  0.5774
16644TIP3    H271348   5.742   6.013   2.126  0.2559 -0.2778  0.6758
16645TIP3   OH271349   0.379   4.847  15.681  0.5354 -0.0505 -0.2814
16645TIP3    H171350   0.399   4.765  15.636  0.5728 -0.7634  0.9959
16645TIP3    H271351   0.461   4.896  15.680 -0.0417  0.9271 -2.9498
16646TIP3   OH271352   2.150   2.090  12.541 -0.1401 -0.2376 -0.5545
16646TIP3    H171353   2.216   2.138  12.492  0.4996 -0.2291  0.3077
16646TIP3    H271354   2.083   2.069  12.476  0.2912  0.5079 -1.2489
16647TIP3   OH271355   5.319   5.995  15.772  0.5572 -0.2167 -0.2659
16647TIP3    H171356   5.281   6.074  15.735 -0.2580 -0.6476 -0.3561
16647TIP3    H271357   5.362   6.025  15.853 -1.6740 -0.0425  0.8843
16648TIP3   OH271358   5.992   6.633   0.747 -0.1209 -0.2605 -0.0616
16648TIP3    H171359   5.910   6.646   0.699  0.6046  0.5226 -1.1182
16648TIP3    H271360   5.982   6.687   0.826  0.2829  1.6904 -1.3158
16649TIP3   OH271361   2.219   1.138  11.718  0.0158  0.0629  0.0907
16649TIP3    H171362   2.156   1.166  11.784  0.2342  0.4257  0.1435
16649TIP3    H271363   2.165   1.125  11.639 -0.5921 -2.4285  0.8642
16650TIP3   OH271364   4.495   5.446  10.687  0.1648  0.2915  0.2875
16650TIP3    H171365   4.511   5.365  10.735  1.1956 -0.5450 -1.4079
16650TIP3    H271366   4.404   5.469  10.708  0.4972 -0.1898  2.3671
16651TIP3   OH271367   1.039   5.639  11.012 -0.5688 -0.3221 -0.4199
16651TIP3    H171368   1.019   5.728  11.040 -0.0200 -0.9136  1.9304
16651TIP3    H271369   1.106   5.650  10.944 -1.1410  1.0965 -0.7730
16652TIP3   OH271370   0.538   0.143  11.750 -0.1566 -0.5136  0.5597
16652TIP3    H171371   0.451   0.165  11.783 -1.3492 -0.3258 -2.5671
16652TIP3    H271372   0.563   0.217  11.695  2.4491 -0.1248  2.1407
16653TIP3   OH271373   6.658   1.214  12.632 -0.0946 -0.4550  0.8541
16653TIP3    H171374   6.647   1.119  12.640  0.3442 -0.7102 -1.1460
16653TIP3    H271375   6.650   1.247  12.721 -2.7520 -2.0956  1.2640
16654TIP3   OH271376   3.332   0.025   0.566 -0.2075 -0.1856  0.2646
16654TIP3    H171377   3.241   0.053   0.556 -0.2905 -0.5841 -0.1300
16654TIP3    H271378   3.330  -0.033   0.642 -0.1085  0.5492  0.8333
16655TIP3   OH271379   2.598   3.217   0.061  0.2843  0.3293  0.3391
16655TIP3    H171380   2.677   3.270   0.057  1.6868 -1.7016  0.1235
16655TIP3    H271381   2.596   3.181   0.149  0.3266 -0.6880 -0.0654
16656TIP3   OH271382   2.420   5.528   0.431 -0.8193 -0.2704  0.1462
16656TIP3    H171383   2.371   5.574   0.363 -0.2553  0.6084  0.3263
16656TIP3    H271384   2.509   5.560   0.422 -0.9345  0.6135  1.9364
16657TIP3   OH271385   3.029   1.134  16.153 -0.0417 -0.1158 -0.0360
16657TIP3    H171386   3.098   1.175  16.101 -0.4056  0.0403 -0.3938
16657TIP3    H271387   3.073   1.109  16.234  0.5066 -0.2981 -0.3885
16658TIP3   OH271388   6.177   0.815   5.881  0.1385 -0.6940 -0.0006
16658TIP3    H171389   6.094   0.859   5.865  0.0648 -0.2499  1.5119
16658TIP3    H271390   6.218   0.808   5.795  0.1946  2.4457 -0.2816
16659TIP3   OH271391   2.841   0.290   2.083  0.6927  0.1454 -0.4159
16659TIP3    H171392   2.794   0.250   2.011 -0.6305  2.4846 -0.9304
16659TIP3    H271393   2.803   0.251   2.162 -1.6843  1.4604 -0.8532
16660TIP3   OH271394   2.846   4.501   5.937 -0.1348  0.7476 -0.1263
16660TIP3    H171395   2.892   4.532   5.859 -0.0283 -4.0593 -2.1197
16660TIP3    H271396   2.806   4.419   5.910 -2.5046  0.3848  4.1270
16661TIP3   OH271397   5.199   6.173   0.398 -0.1178  0.3097 -0.0479
16661TIP3    H171398   5.294   6.159   0.406 -0.0923  0.3070 -0.3820
16661TIP3    H271399   5.160   6.094   0.436  0.0179  0.0407 -0.4612
16662TIP3   OH271400   0.535   5.578  11.258  0.0699 -0.0565  0.2820
16662TIP3    H171401   0.515   5.569  11.351 -1.3936  1.4998  0.1472
16662TIP3    H271402   0.461   5.627  11.222  1.0464  0.1402 -1.5265
16663TIP3   OH271403   2.986   4.450   4.124 -0.0666  0.4410  0.1792
16663TIP3    H171404   2.994   4.411   4.037  2.7304  0.6405  0.2774
16663TIP3    H271405   3.007   4.543   4.110 -0.3065  0.6178  0.9610
16664TIP3   OH271406   3.923   0.157  15.258 -0.1797  0.1452  0.1265
16664TIP3    H171407   3.878   0.090  15.309  0.3141  0.7476  1.3859
16664TIP3    H271408   3.868   0.235  15.266 -0.1968  0.1888 -0.4198
16665TIP3   OH271409   2.681   3.854   4.640 -0.0003  0.1809  0.4265
16665TIP3    H171410   2.754   3.800   4.611  0.6899 -0.1186  2.6350
16665TIP3    H271411   2.722   3.931   4.680 -0.8409 -0.2241  2.1337
16666TIP3   OH271412   0.793   4.079  12.353  0.2248 -0.1005 -0.4926
16666TIP3    H171413   0.824   4.061  12.442 -1.5705 -0.2960  0.1172
16666TIP3    H271414   0.853   4.030  12.296  0.5047 -1.1645  0.6911
16667TIP3   OH271415   4.660   1.940  14.583  0.4191  0.2316  0.1571
16667TIP3    H171416   4.597   1.923  14.653  0.8211 -0.8132  0.2754
16667TIP3    H271417   4.733   1.881  14.601  0.8550  0.4909 -0.7151
16668TIP3   OH271418   4.502   2.851   1.283  0.1573 -0.9095 -0.3959
16668TIP3    H171419   4.521   2.863   1.190 -0.2191 -0.2093 -0.3857
16668TIP3    H271420   4.480   2.939   1.315 -0.8505 -1.3212  0.0908
16669TIP3   OH271421   3.493   4.119  11.275 -0.2230 -0.0883 -0.1040
16669TIP3    H171422   3.469   4.137  11.366  2.0334 -0.5367  0.6083
16669TIP3    H271423   3.579   4.160  11.265 -0.5608  0.1543 -2.1100
16670TIP3   OH271424   5.484   3.243  11.539  0.3082  0.2695  0.3752
16670TIP3    H171425   5.494   3.236  11.444 -0.5245  1.1731  0.2184
16670TIP3    H271426   5.389   3.240  11.553  0.4001  0.9106  1.1180
16671TIP3   OH271427   2.186   1.396   5.766  0.0768  0.2820 -0.4678
16671TIP3    H171428   2.121   1.339   5.726 -0.0986  0.2637 -0.1621
16671TIP3    H271429   2.269   1.370   5.727 -0.0836  0.2141 -0.7601
16672TIP3   OH271430   6.120   4.519  13.479 -0.0546  0.2932  0.4799
16672TIP3    H171431   6.186   4.489  13.541 -0.1762  1.5479  1.2332
16672TIP3    H271432   6.062   4.576  13.530 -1.3918 -0.3309 -0.2955
16673TIP3   OH271433   3.572   4.961  10.943 -0.3703 -0.2608  0.3011
16673TIP3    H171434   3.648   4.966  11.000  0.6986 -3.5481 -0.7082
16673TIP3    H271435   3.600   5.005  10.862 -0.3168  0.4294  0.6907
16674TIP3   OH271436   0.292   2.427   2.413  0.6757 -0.1764  1.0586
16674TIP3    H171437   0.254   2.381   2.488 -0.3412 -0.1104  0.6020
16674TIP3    H271438   0.386   2.423   2.427  0.5685 -1.7346  1.4122
16675TIP3   OH271439   5.090   2.723  16.517  0.3196 -0.5968  0.3247
16675TIP3    H171440   5.001   2.713  16.484  0.6985  0.5708 -1.0882
16675TIP3    H271441   5.133   2.640  16.497  0.5258  0.0752 -2.0832
16676TIP3   OH271442   3.842   4.061  13.318  0.4537 -0.1265  0.5885
16676TIP3    H171443   3.893   4.043  13.397 -0.2279  0.6592  1.2162
16676TIP3    H271444   3.753   4.034  13.341  0.3344 -0.2667 -0.0489
16677TIP3   OH271445   5.638   4.353  13.952 -0.1889 -0.0341 -0.5831
16677TIP3    H171446   5.550   4.379  13.978 -0.1654 -2.1944  1.8138
16677TIP3    H271447   5.694   4.426  13.980 -0.8074 -0.1363  0.9236
16678TIP3   OH271448   6.332   5.345   4.473  0.4195 -0.1652  0.6001
16678TIP3    H171449   6.326   5.249   4.469 -0.7083 -0.0478 -0.7459
16678TIP3    H271450   6.249   5.373   4.512 -0.1717  0.3781 -1.0032
16679TIP3   OH271451   3.152   1.492  16.000  0.0107  0.3881  0.1791
16679TIP3    H171452   3.200   1.481  16.082  0.7166 -0.4710 -0.3367
16679TIP3    H271453   3.216   1.470  15.932 -0.9870 -0.3563 -0.5412
16680TIP3   OH271454   0.846   4.413  16.226  0.7019  0.8215 -0.1456
16680TIP3    H171455   0.757   4.422  16.261  0.2553  1.7784 -1.4891
16680TIP3    H271456   0.834   4.397  16.133  1.9287  0.1717 -0.2028
16681TIP3   OH271457   2.652   6.657   2.420 -0.0864  0.2516  0.1337
16681TIP3    H171458   2.644   6.667   2.325 -1.0733 -0.6302  0.1162
16681TIP3    H271459   2.730   6.708   2.443  1.4503 -1.3273 -1.4360
16682TIP3   OH271460   2.832   3.375  14.003  0.3407 -0.5322  0.6032
16682TIP3    H171461   2.751   3.343  14.042 -0.5585  2.7054  1.5916
16682TIP3    H271462   2.885   3.405  14.077  0.8812  0.7375 -0.2700
16683TIP3   OH271463   2.953   3.891  17.041 -0.4742 -0.4390 -0.0647
16683TIP3    H171464   2.926   3.950  17.112  0.5671 -1.4204  1.1670
16683TIP3    H271465   2.871   3.859  17.005 -1.0574  1.4621 -0.5102
16684TIP3   OH271466   5.862   2.668   1.500  0.3025  0.3189 -0.3656
16684TIP3    H171467   5.882   2.731   1.431  0.6642 -0.1221 -0.6649
16684TIP3    H271468   5.871   2.718   1.581  2.5770  0.1423 -0.4933
16685TIP3   OH271469   2.890   0.537   0.260  0.4797 -0.8808  0.7337
16685TIP3    H171470   2.914   0.624   0.292 -1.1456  0.3187 -1.1191
16685TIP3    H271471   2.837   0.499   0.330 -1.7680  1.0936  0.2038
16686TIP3   OH271472   1.450   3.111   5.023  0.6626  1.2423 -0.2838
16686TIP3    H171473   1.471   3.199   5.055  1.5203  0.6350  0.8717
16686TIP3    H271474   1.513   3.095   4.953  1.3500  1.0499  0.3759
16687TIP3   OH271475   4.180   5.522   0.970 -0.1041  0.0172  0.1870
16687TIP3    H171476   4.093   5.486   0.951 -0.8826  1.0110  1.7622
16687TIP3    H271477   4.174   5.552   1.061  2.5823 -1.9404  1.0778
16688TIP3   OH271478   2.312   5.080  14.840 -0.3371  0.0375  0.1973
16688TIP3    H171479   2.291   4.995  14.802 -0.1713 -0.1342  0.4826
16688TIP3    H271480   2.297   5.068  14.934  2.4246 -0.5384  0.6050
16689TIP3   OH271481   1.008   3.753   0.466 -0.0169  0.4220  0.0918
16689TIP3    H171482   0.994   3.790   0.554  0.1094 -1.0968  0.7603
16689TIP3    H271483   0.920   3.731   0.435  0.0979 -0.9064  0.6733
16690TIP3   OH271484   2.532   5.750   3.780 -0.7658 -0.0798  0.4899
16690TIP3    H171485   2.561   5.838   3.805  2.4532 -1.0757  0.5883
16690TIP3    H271486   2.553   5.743   3.687  1.2394 -1.5031  1.0015
16691TIP3   OH271487   1.442   0.489   4.405 -0.2302 -0.4495  0.0618
16691TIP3    H171488   1.392   0.444   4.337  0.2862 -1.1158  0.1184
16691TIP3    H271489   1.396   0.469   4.486 -0.8912  0.4087 -0.0927
16692TIP3   OH271490   3.164   2.412  14.003  0.5345  0.1321  0.1355
16692TIP3    H171491   3.228   2.340  14.001 -1.0209 -1.3580  1.3753
16692TIP3    H271492   3.104   2.387  14.073 -2.4424  0.5848 -2.1874
16693TIP3   OH271493   3.959   4.032   5.768 -0.3243 -0.1213  0.8515
16693TIP3    H171494   3.965   4.124   5.795  0.4208 -0.5737  2.2859
16693TIP3    H271495   4.046   4.012   5.732  0.0243 -0.7064  2.0091
16694TIP3   OH271496   1.902   3.619   1.026  0.8231  0.1899  0.4838
16694TIP3    H171497   1.954   3.539   1.022  0.8572  0.3123 -2.3479
16694TIP3    H271498   1.966   3.690   1.036  0.8897  0.0056  1.4225
16695TIP3   OH271499   6.379   5.781   3.385  0.2062  0.3955  0.3138
16695TIP3    H171500   6.461   5.820   3.416  0.5111  1.7271 -2.0223
16695TIP3    H271501   6.317   5.854   3.383  0.0341  0.2201 -1.5211
16696TIP3   OH271502   5.706   5.501  11.057 -0.6762  0.2101  0.0051
16696TIP3    H171503   5.714   5.596  11.057 -0.4768  0.2074  1.2664
16696TIP3    H271504   5.654   5.481  11.136  0.6586 -0.8154  0.6475
16697TIP3   OH271505   2.420   6.101   2.222  0.1296  0.1488 -0.0863
16697TIP3    H171506   2.483   6.071   2.157 -0.1574  0.1811 -0.3819
16697TIP3    H271507   2.378   6.177   2.182  1.3299  1.3810  0.9297
16698TIP3   OH271508   2.621   6.261  13.256 -0.0843 -0.3172 -0.5177
16698TIP3    H171509   2.607   6.267  13.351  1.2801 -0.0241 -0.3155
16698TIP3    H271510   2.614   6.351  13.225 -2.4180 -0.6390 -1.0047
16699TIP3   OH271511   1.924   4.368  15.537 -0.3510 -0.6873 -0.3436
16699TIP3    H171512   1.879   4.393  15.456  1.0237 -0.0187 -0.9159
16699TIP3    H271513   1.929   4.448  15.588 -0.6686 -0.9717  0.1363
16700TIP3   OH271514   5.374   3.776   1.032  0.7667 -0.4797 -0.1089
16700TIP3    H171515   5.313   3.808   1.098 -0.6267 -0.9910 -1.1293
16700TIP3    H271516   5.394   3.686   1.059 -2.1005 -1.7362 -1.9136
16701TIP3   OH271517   0.120   2.238  13.682 -0.0847  0.1952  0.3210
16701TIP3    H171518   0.154   2.275  13.764  1.3834 -0.8267  0.1862
16701TIP3    H271519   0.032   2.275  13.675  0.7558  2.4673  0.9582
16702TIP3   OH271520   5.901   3.961  14.542  0.0756  0.3815  0.1800
16702TIP3    H171521   5.805   3.961  14.537  0.1383 -0.0781 -1.3071
16702TIP3    H271522   5.924   4.053  14.554 -0.6354  0.2431  2.9381
16703TIP3   OH271523   6.638   0.937  14.201 -0.1279  0.2234  0.2337
16703TIP3    H171524   6.663   0.982  14.282 -0.3273 -1.6068  1.3579
16703TIP3    H271525   6.695   0.859  14.199 -1.5410 -0.8158 -0.3138
16704TIP3   OH271526   4.740   5.088   6.582  0.5809  0.2030 -0.4242
16704TIP3    H171527   4.687   5.112   6.658 -0.4715  1.4389 -1.5380
16704TIP3    H271528   4.831   5.098   6.613  0.2001 -0.9745  1.1792
16705TIP3   OH271529   5.862   3.424   4.675 -0.1081  0.0054 -0.2196
16705TIP3    H171530   5.811   3.486   4.727 -1.2324 -0.6683 -0.4973
16705TIP3    H271531   5.811   3.411   4.596  0.8248 -0.1874 -0.7991
16706TIP3   OH271532   2.601   3.208  15.578  0.6074  0.3657 -0.0169
16706TIP3    H171533   2.676   3.260  15.548 -0.0556  1.2366 -0.1785
16706TIP3    H271534   2.550   3.269  15.631 -0.5347  0.0727 -0.7703
16707TIP3   OH271535   3.365   3.937  15.387  0.0987 -0.0490  0.4194
16707TIP3    H171536   3.396   4.025  15.410 -2.2652  0.3297  2.3185
16707TIP3    H271537   3.437   3.879  15.413  0.4832  1.0587  1.9317
16708TIP3   OH271538   1.709   5.556  14.235 -0.2487  0.4956  0.0212
16708TIP3    H171539   1.706   5.649  14.255 -0.3279  0.4182  0.3830
16708TIP3    H271540   1.723   5.551  14.141 -1.2433  0.8740 -0.1507
16709TIP3   OH271541   6.769   1.767  15.146 -0.4752  0.0750 -0.6386
16709TIP3    H171542   6.722   1.776  15.229  1.2612  0.7706  0.2902
16709TIP3    H271543   6.706   1.795  15.080 -1.3261  1.1591  0.5987
16710TIP3   OH271544   5.268   0.290  10.887 -0.0440  0.6055 -0.7173
16710TIP3    H171545   5.234   0.369  10.845 -0.8138  0.3677 -0.5376
16710TIP3    H271546   5.214   0.219  10.853 -1.2811  0.5098  1.3282
16711TIP3   OH271547   2.664   0.120   3.252  0.2158 -0.1836 -0.0802
16711TIP3    H171548   2.696   0.209   3.245  0.4896 -0.3152 -0.5257
16711TIP3    H271549   2.673   0.098   3.344  0.1754  0.2391  0.0238
16712TIP3   OH271550   5.763   0.498   0.524 -0.6602 -0.0383 -0.1695
16712TIP3    H171551   5.821   0.454   0.461  0.4292  1.2580 -0.1060
16712TIP3    H271552   5.823   0.537   0.588 -1.7509 -1.2057  1.6020
16713TIP3   OH271553   5.954   2.185   3.623 -0.4073  0.0640 -0.1897
16713TIP3    H171554   5.976   2.107   3.674 -0.6701  0.1013 -0.0202
16713TIP3    H271555   5.888   2.154   3.560 -1.4379  0.4283  0.7007
16714TIP3   OH271556   0.581   2.494   6.067  0.4893 -0.0762  0.5198
16714TIP3    H171557   0.566   2.399   6.064  0.8676 -0.1804  1.5985
16714TIP3    H271558   0.563   2.517   6.158  0.3238  0.9063  0.2409
16715TIP3   OH271559   0.562   4.772   1.302  0.1784 -0.2568 -0.1651
16715TIP3    H171560   0.652   4.787   1.273  0.1726  2.0363  0.9115
16715TIP3    H271561   0.561   4.682   1.335  2.2257 -0.0737  0.4078
16716TIP3   OH271562   4.209   2.575  11.908  0.0849 -0.2344 -0.1979
16716TIP3    H171563   4.294   2.619  11.917 -0.7154  0.6541  3.7011
16716TIP3    H271564   4.223   2.488  11.945 -0.6727 -0.1137  0.3814
16717TIP3   OH271565   2.264   5.703  14.845  0.4818  0.1117 -0.0793
16717TIP3    H171566   2.248   5.620  14.890 -1.0909  0.0629 -0.7036
16717TIP3    H271567   2.236   5.770  14.907 -0.6007  0.0778 -0.5063
16718TIP3   OH271568   0.237   0.934  13.972 -0.3665 -0.1955  0.0739
16718TIP3    H171569   0.144   0.953  13.957 -0.1571  2.3679  1.6257
16718TIP3    H271570   0.249   0.950  14.066  1.8334  0.3550 -0.2849
16719TIP3   OH271571   0.780   5.009  15.136  0.0195 -0.6223 -0.4922
16719TIP3    H171572   0.761   4.969  15.221  0.2552 -0.1503 -0.2185
16719TIP3    H271573   0.722   4.963  15.075 -1.9195  0.7073  0.3135
16720TIP3   OH271574   5.003   3.410   4.703 -0.1282 -0.4714  0.0539
16720TIP3    H171575   4.961   3.422   4.788  0.2670  0.6459  0.0946
16720TIP3    H271576   5.084   3.363   4.722  0.1717  0.1641  0.3458
16721TIP3   OH271577   3.476   4.630  16.747  0.3055  0.0565 -0.6064
16721TIP3    H171578   3.472   4.609  16.653 -1.0001 -0.3110 -0.4769
16721TIP3    H271579   3.570   4.628  16.767  0.4652 -2.0671 -1.4188
16722TIP3   OH271580   5.919   0.352  13.171 -0.4123  0.4940  0.2517
16722TIP3    H171581   5.870   0.369  13.251 -1.5145  2.5492 -0.8028
16722TIP3    H271582   6.002   0.398  13.184 -0.9991  1.7166 -0.1522
16723TIP3   OH271583   2.743   3.740   5.581 -0.4688 -0.7481  0.1678
16723TIP3    H171584   2.745   3.652   5.619 -2.0369 -0.6457  0.5568
16723TIP3    H271585   2.650   3.763   5.581 -0.0035  1.2100  0.7652
16724TIP3   OH271586   3.259   3.905  13.728  0.2822 -0.2222 -0.1307
16724TIP3    H171587   3.178   3.884  13.775 -0.7877  0.4757 -1.6325
16724TIP3    H271588   3.288   3.988  13.766  1.4504 -1.4743  1.8430
16725TIP3   OH271589   3.999   5.821  11.987  0.3298  0.2580 -0.0863
16725TIP3    H171590   4.041   5.823  11.900  1.7440  1.7392  0.6038
16725TIP3    H271591   4.007   5.729  12.015  1.0528  0.0471 -0.9554
16726TIP3   OH271592   2.372   3.303  11.004 -0.2705 -0.3109  0.3816
16726TIP3    H171593   2.426   3.226  10.988 -2.3488 -1.6725 -0.1490
16726TIP3    H271594   2.341   3.292  11.094  1.6024  1.2917  1.2702
16727TIP3   OH271595   2.903   1.182   5.188  0.1925  0.0298 -0.1991
16727TIP3    H171596   2.809   1.180   5.171  0.3786 -2.3157 -1.1145
16727TIP3    H271597   2.921   1.273   5.213 -1.9464  1.0501 -2.1783
16728TIP3   OH271598   0.897   3.364  17.099 -0.4473  0.2956  0.0288
16728TIP3    H171599   0.885   3.385  17.191 -2.6886 -0.1143 -0.1510
16728TIP3    H271600   0.987   3.332  17.093 -0.0431  1.0430  1.9276
16729TIP3   OH271601   6.130   2.412  11.622  0.3016  0.1620 -0.0716
16729TIP3    H171602   6.192   2.444  11.555 -1.1282  0.6663 -1.1726
16729TIP3    H271603   6.178   2.421  11.704  1.2998  1.5828 -0.7824
16730TIP3   OH271604   2.720   0.198   4.940 -0.7506  0.0929 -0.4283
16730TIP3    H171605   2.633   0.225   4.910 -0.4873  1.4719  0.0107
16730TIP3    H271606   2.737   0.253   5.016  0.2704 -0.5792 -0.1642
16731TIP3   OH271607   6.559   3.909   4.742 -0.1639  0.3015  0.1562
16731TIP3    H171608   6.515   3.908   4.656 -1.3134 -1.5703  0.7286
16731TIP3    H271609   6.546   3.998   4.774 -2.2214  0.2442 -0.3929
16732TIP3   OH271610   5.008   4.155   0.618  0.1321 -0.0394 -0.0317
16732TIP3    H171611   5.100   4.174   0.637  0.6736 -3.1478  0.6572
16732TIP3    H271612   5.006   4.061   0.598 -2.9831 -0.1649  0.6040
16733TIP3   OH271613   4.185   5.741  15.902  0.0049 -0.0750 -0.0983
16733TIP3    H171614   4.166   5.652  15.933  1.9604 -0.4192  0.1550
16733TIP3    H271615   4.279   5.741  15.886 -0.1464  1.6712 -1.0580
16734TIP3   OH271616   5.767   6.340   2.209  0.4323  0.1320 -0.0750
16734TIP3    H171617   5.752   6.386   2.127 -1.2228 -1.1563 -0.5242
16734TIP3    H271618   5.766   6.247   2.185  0.9988 -0.2299  1.2423
16735TIP3   OH271619   3.315   0.489  14.767  0.1766  0.6393  0.2081
16735TIP3    H171620   3.236   0.435  14.769 -0.0845  1.0384  0.8237
16735TIP3    H271621   3.294   0.565  14.822  1.2017  0.4558  0.8811
16736TIP3   OH271622   0.480   0.948  14.565  0.3590  0.3343 -0.3424
16736TIP3    H171623   0.553   0.941  14.626  2.0957  0.9259 -2.2704
16736TIP3    H271624   0.402   0.946  14.620  1.7512 -1.6482  1.6816
16737TIP3   OH271625   4.596   0.405  15.730 -0.5606  0.3267 -0.2399
16737TIP3    H171626   4.648   0.366  15.660  0.6419  2.8197 -0.7785
16737TIP3    H271627   4.527   0.341  15.747  0.8743 -1.6349 -1.6389
16738TIP3   OH271628   2.138   0.218   1.412 -0.6582  0.3158  1.1502
16738TIP3    H171629   2.093   0.135   1.427 -1.5480  0.1668 -2.1119
16738TIP3    H271630   2.208   0.197   1.350 -0.2609  1.8183  1.0735
16739TIP3   OH271631   3.185   2.931  13.449  0.0770 -0.4663  0.5609
16739TIP3    H171632   3.249   2.861  13.432 -0.9553 -1.3759  0.3695
16739TIP3    H271633   3.139   2.902  13.528 -1.5177 -0.8468 -0.4968
16740TIP3   OH271634   5.500   1.018  13.266 -0.0054  0.2944  0.0104
16740TIP3    H171635   5.412   0.983  13.250 -0.5929  1.7318 -0.0038
16740TIP3    H271636   5.548   1.000  13.185 -0.5070  0.1904 -0.2663
16741TIP3   OH271637   2.878   4.243  12.283 -0.7463 -0.2612  0.1505
16741TIP3    H171638   2.803   4.293  12.250  0.2103 -0.5233 -2.4981
16741TIP3    H271639   2.940   4.310  12.312 -0.4489  0.0481 -1.1758
16742TIP3   OH271640   2.234   5.031  14.414 -0.3985  0.1616 -0.2090
16742TIP3    H171641   2.260   5.045  14.322  2.2659  1.2043  0.6497
16742TIP3    H271642   2.148   5.073  14.421  0.2497  1.8523 -1.7772
16743TIP3   OH271643   6.086   5.350   2.259  0.0319 -0.3963 -0.5187
16743TIP3    H171644   6.002   5.396   2.255 -0.1113 -0.6662 -0.6495
16743TIP3    H271645   6.099   5.330   2.352  0.2413  0.1767 -0.4237
16744TIP3   OH271646   4.390   3.124   1.166  0.0092 -1.2212 -0.1741
16744TIP3    H171647   4.318   3.078   1.208 -0.0382  0.1892  1.3271
16744TIP3    H271648   4.373   3.217   1.184  1.8792 -0.8403 -0.2980
16745TIP3   OH271649   0.819   2.180  13.171 -0.2944  0.1235  0.0810
16745TIP3    H171650   0.905   2.140  13.155 -0.1992 -0.8479  2.6720
16745TIP3    H271651   0.757   2.108  13.161 -0.5151  0.1882  0.9088
16746TIP3   OH271652   4.185   3.793   0.932 -0.3523  0.0531 -0.2380
16746TIP3    H171653   4.202   3.883   0.961  1.5314 -0.2261 -0.4670
16746TIP3    H271654   4.262   3.744   0.959  0.2099 -0.7835 -3.2290
16747TIP3   OH271655   1.984   2.269   1.873 -0.2563 -0.5102  0.7573
16747TIP3    H171656   1.921   2.341   1.863  0.6392  0.0594 -0.9348
16747TIP3    H271657   1.984   2.250   1.967 -2.8838 -0.4676  0.8053
16748TIP3   OH271658   0.216   2.788  11.391 -0.1034 -0.1810 -0.5106
16748TIP3    H171659   0.159   2.790  11.313 -0.7677  0.9578 -0.0236
16748TIP3    H271660   0.155   2.792  11.465  0.5610 -0.3525  0.0474
16749TIP3   OH271661   0.402   1.663  12.211  0.0591 -0.3281 -0.0987
16749TIP3    H171662   0.401   1.639  12.119 -0.6268  1.4102 -0.5650
16749TIP3    H271663   0.337   1.733  12.219  1.1795  0.6072  1.3836
16750TIP3   OH271664   2.859   1.984  13.475 -0.1671 -0.0936 -0.0073
16750TIP3    H171665   2.859   1.890  13.457 -0.0590 -0.0962  0.0075
16750TIP3    H271666   2.797   1.994  13.548 -0.4576 -0.1063 -0.2505
16751TIP3   OH271667   0.573   6.354  12.800 -0.2497  0.7667  0.3962
16751TIP3    H171668   0.647   6.321  12.850  0.4396  1.2604 -0.2765
16751TIP3    H271669   0.570   6.298  12.722 -0.9331  0.3886  0.6952
16752TIP3   OH271670   1.702   6.586   0.116  0.2345 -0.3238  0.6918
16752TIP3    H171671   1.778   6.593   0.058 -0.4543  1.3881 -0.0047
16752TIP3    H271672   1.669   6.497   0.101 -1.1252  0.7129 -3.0543
16753TIP3   OH271673   4.022   3.390  13.610  0.0031  0.7535  0.0721
16753TIP3    H171674   4.070   3.441  13.674  0.1039 -0.6524  1.1314
16753TIP3    H271675   4.046   3.299  13.628 -2.8304  0.0244  0.4987
16754TIP3   OH271676   1.686   2.560  10.466 -0.0193  0.0809 -0.0035
16754TIP3    H171677   1.662   2.527  10.553 -2.2843  3.0042  0.5641
16754TIP3    H271678   1.730   2.643  10.483  1.2637 -0.2641 -1.5844
16755TIP3   OH271679   1.066   4.604   4.424 -0.1882  0.2507  0.2904
16755TIP3    H171680   1.161   4.590   4.431  0.0704  1.5248 -0.5087
16755TIP3    H271681   1.057   4.688   4.379 -1.7190 -0.9489 -1.7451
16756TIP3   OH271682   4.076   6.419   4.829 -0.1968  0.8322 -0.3878
16756TIP3    H171683   4.062   6.340   4.777 -1.3989  1.4699 -1.0514
16756TIP3    H271684   4.024   6.486   4.785  2.2210  2.4446 -0.8856
16757TIP3   OH271685   2.039   6.601   3.002  0.3259  0.4576 -0.0592
16757TIP3    H171686   1.947   6.628   3.005 -0.6030 -2.3675 -1.8996
16757TIP3    H271687   2.072   6.638   2.920  0.8501  1.4023  0.5619
16758TIP3   OH271688   1.330   5.998  12.945 -0.6786  0.4065 -0.2924
16758TIP3    H171689   1.368   6.019  12.860 -0.3369  1.9443  0.2172
16758TIP3    H271690   1.352   6.073  13.000  0.1583 -1.1176  1.5010
16759TIP3   OH271691   2.963   6.556  12.777 -0.0440  0.3205  0.1671
16759TIP3    H171692   2.876   6.593  12.761 -0.8555 -1.1271  1.1033
16759TIP3    H271693   2.974   6.560  12.872 -0.0158 -1.4766  0.2651
16760TIP3   OH271694   5.050   1.477  11.284 -0.0656 -0.3980  0.1434
16760TIP3    H171695   5.100   1.558  11.294 -1.2361  0.3722 -0.2749
16760TIP3    H271696   5.088   1.436  11.206 -0.1460  0.2287 -0.2283
16761TIP3   OH271697   2.170   4.569  12.276  0.5217 -0.1217  0.7502
16761TIP3    H171698   2.114   4.508  12.227  2.0198 -1.3701  0.5432
16761TIP3    H271699   2.117   4.593  12.352 -1.1911  0.5526 -0.6240
16762TIP3   OH271700   3.702   6.321   5.393  0.2620  0.3670  0.0054
16762TIP3    H171701   3.728   6.295   5.482  1.3741  2.5233  0.3408
16762TIP3    H271702   3.768   6.283   5.336  1.0713  1.2278  0.3603
16763TIP3   OH271703   4.218   6.514   0.879  0.3397 -0.1757 -0.7612
16763TIP3    H171704   4.202   6.571   0.805 -1.0813  3.1881  1.9945
16763TIP3    H271705   4.291   6.554   0.926  0.5064 -1.6399  0.2874
16764TIP3   OH271706   3.868   4.125   5.072 -0.1378  0.2199 -0.1044
16764TIP3    H171707   3.926   4.051   5.055  0.3207  0.6782 -0.5823
16764TIP3    H271708   3.835   4.150   4.985  0.4330  1.1525 -0.0644
16765TIP3   OH271709   6.784   3.058  11.038 -0.7967  0.6759  0.2329
16765TIP3    H171710   6.865   3.048  11.088 -0.7651  1.4728  0.3519
16765TIP3    H271711   6.806   3.025  10.951 -0.2756  1.0933  0.2036
16766TIP3   OH271712   5.277   1.925  15.841 -0.2524 -0.1663 -0.1444
16766TIP3    H171713   5.311   1.962  15.923  1.0034 -2.1416  0.2768
16766TIP3    H271714   5.345   1.863  15.813 -1.7205 -1.2236 -1.4534
16767TIP3   OH271715   3.970   6.404   0.908 -0.1887 -0.2044  0.1123
16767TIP3    H171716   4.057   6.444   0.900 -0.7589  1.2352  0.9578
16767TIP3    H271717   3.986   6.310   0.898  1.7296 -0.1391  2.1542
16768TIP3   OH271718   0.564   2.455   6.365  0.3208 -0.5568  0.7430
16768TIP3    H171719   0.624   2.512   6.413  2.4413 -1.8817 -0.2034
16768TIP3    H271720   0.546   2.383   6.425  3.4484 -2.5226 -0.4964
16769TIP3   OH271721   4.586   5.829  13.044 -0.6414  0.1618 -0.1507
16769TIP3    H171722   4.532   5.851  12.968 -2.8565  1.1802  1.6450
16769TIP3    H271723   4.530   5.771  13.097  0.9256 -0.6593  0.6451
16770TIP3   OH271724   5.297   6.648  12.330 -0.4249  0.0856 -0.4975
16770TIP3    H171725   5.377   6.610  12.294  0.4923  0.8298  0.7371
16770TIP3    H271726   5.276   6.720  12.270  0.8064  0.9876  0.1288
16771TIP3   OH271727   0.758   2.173   3.655 -0.6862  0.4146  0.6606
16771TIP3    H171728   0.731   2.212   3.738 -0.7544 -0.3800  1.0065
16771TIP3    H271729   0.681   2.125   3.624 -0.5324  0.3789  0.3289
16772TIP3   OH271730   5.532   3.543   3.728 -0.2324  0.7624 -0.4690
16772TIP3    H171731   5.592   3.491   3.782 -0.0128  0.2912 -1.1727
16772TIP3    H271732   5.492   3.480   3.668 -2.2108  0.8881  0.6752
16773TIP3   OH271733   6.761   0.953  16.948 -0.0767 -0.5531  0.2544
16773TIP3    H171734   6.754   1.028  16.889 -0.4633  0.0328  1.0321
16773TIP3    H271735   6.855   0.938  16.957 -0.0164 -0.5435 -0.3845
16774TIP3   OH271736   5.410   0.646   3.344 -0.1955  0.2289  0.3710
16774TIP3    H171737   5.432   0.720   3.287  2.0070 -0.5791  0.1248
16774TIP3    H271738   5.491   0.594   3.348 -1.9917 -2.7065 -0.2906
16775TIP3   OH271739   3.224   0.486   2.600  0.4867  0.2148 -0.0211
16775TIP3    H171740   3.271   0.444   2.527  0.5772  1.6697 -0.8161
16775TIP3    H271741   3.132   0.473   2.578  0.5097 -0.4614  0.2645
16776TIP3   OH271742   0.150   6.627  14.587 -0.5874 -0.4544  0.1232
16776TIP3    H171743   0.091   6.702  14.578 -1.1497 -0.9670 -0.5262
16776TIP3    H271744   0.148   6.585  14.501  1.6466  0.1974 -0.2763
16777TIP3   OH271745   5.068   1.808  12.929 -0.3598  0.1797  0.0502
16777TIP3    H171746   5.065   1.713  12.930 -0.0241  0.1335 -1.7824
16777TIP3    H271747   5.013   1.834  13.004 -2.9506 -1.4133 -1.2004
16778TIP3   OH271748   1.266   1.763  12.617  0.4499  0.4120  0.4733
16778TIP3    H171749   1.233   1.709  12.545 -0.7453  2.4626 -0.5597
16778TIP3    H271750   1.222   1.729  12.695 -0.4457  0.0449 -0.1865
16779TIP3   OH271751   1.086   1.280  12.757  0.2473 -0.1844  0.4627
16779TIP3    H171752   1.002   1.311  12.723  0.2239  0.1903  0.8478
16779TIP3    H271753   1.088   1.186  12.737  1.1962  0.4362 -2.5000
16780TIP3   OH271754   2.652   2.516   4.418  0.2888  0.2575  0.0157
16780TIP3    H171755   2.600   2.498   4.340  0.4738  2.3406 -0.6290
16780TIP3    H271756   2.609   2.467   4.488  0.1046 -1.6098 -1.3783
16781TIP3   OH271757   2.807   4.342   3.113 -0.2009  0.4322  0.1932
16781TIP3    H171758   2.757   4.326   3.193 -1.4909 -2.0845 -1.0550
16781TIP3    H271759   2.749   4.394   3.058 -0.2453  0.1776 -0.0059
16782TIP3   OH271760   1.079   0.348  12.466  0.1514  0.1226 -1.0552
16782TIP3    H171761   1.109   0.272  12.516 -0.8333  1.6532  1.9851
16782TIP3    H271762   1.159   0.389  12.433  0.8285 -0.8267 -0.6022
16783TIP3   OH271763   6.299   2.330   1.886  0.0163  0.3963 -0.3573
16783TIP3    H171764   6.232   2.329   1.818  0.0377 -0.8988 -0.3820
16783TIP3    H271765   6.378   2.360   1.842 -0.1968  0.4723 -0.6857
16784TIP3   OH271766   4.594   2.319  12.628  0.5460 -0.0559  1.1404
16784TIP3    H171767   4.544   2.254  12.679  0.9460 -1.5299 -0.2959
16784TIP3    H271768   4.592   2.285  12.538  0.0684  2.3777  0.1976
16785TIP3   OH271769   5.255   5.289   1.328  0.2955 -0.6024  0.1865
16785TIP3    H171770   5.342   5.298   1.365  0.5552 -2.7957  0.1284
16785TIP3    H271771   5.197   5.280   1.404  0.1694  0.2567  0.2032
16786TIP3   OH271772   0.541   0.381  16.460 -0.2272  0.1994  0.0369
16786TIP3    H171773   0.479   0.450  16.485 -1.1501 -0.9218  0.9321
16786TIP3    H271774   0.542   0.383  16.364 -2.1390 -0.1413 -0.0273
16787TIP3   OH271775   0.148   2.267   3.801 -0.2021  0.1435 -0.4030
16787TIP3    H171776   0.237   2.267   3.836 -0.6487  1.2585  0.7832
16787TIP3    H271777   0.148   2.334   3.734  0.6412 -1.9601 -2.5728
16788TIP3   OH271778   6.675   2.033   4.393 -0.5247  0.5334  0.7632
16788TIP3    H171779   6.668   1.961   4.455 -1.4985 -1.3086 -1.4295
16788TIP3    H271780   6.768   2.054   4.390 -0.2078 -0.7816  1.2828
16789TIP3   OH271781   0.761   2.197  14.246 -0.3293 -0.0903 -0.1056
16789TIP3    H171782   0.767   2.262  14.177 -0.9710  0.0581 -0.0216
16789TIP3    H271783   0.835   2.139  14.230 -0.9479 -0.5516 -1.4336
16790TIP3   OH271784   1.688   2.206  11.594 -0.6040 -0.3286  0.5153
16790TIP3    H171785   1.681   2.117  11.628 -2.4035 -0.5606 -0.4035
16790TIP3    H271786   1.667   2.199  11.501  0.0427  0.9414  0.2551
16791TIP3   OH271787   4.494   4.579  16.278  0.6107  0.2599  0.0521
16791TIP3    H171788   4.406   4.541  16.272  0.7681  0.0604 -1.4402
16791TIP3    H271789   4.528   4.571  16.189  1.1653  2.7086  0.0104
16792TIP3   OH271790   3.795   0.581   4.601 -0.0507  0.3037 -0.0097
16792TIP3    H171791   3.821   0.615   4.686 -0.8426  1.2513 -0.1349
16792TIP3    H271792   3.788   0.486   4.614 -0.3713  0.4597  1.0384
16793TIP3   OH271793   4.133   3.687   4.468  0.6019 -0.4226 -0.2665
16793TIP3    H171794   4.155   3.595   4.482  0.8501 -0.2743  0.3487
16793TIP3    H271795   4.050   3.700   4.514  0.1851 -0.5200 -0.9872
16794TIP3   OH271796   5.297   4.736   4.717  0.4358  0.0359 -0.1139
16794TIP3    H171797   5.372   4.713   4.662  0.6179 -1.2017  0.6510
16794TIP3    H271798   5.222   4.695   4.674  0.6111 -1.1299  0.6693
16795TIP3   OH271799   0.690   0.929   2.768 -0.2892 -0.2265 -0.4097
16795TIP3    H171800   0.761   0.993   2.764 -1.2072  0.8217 -0.0486
16795TIP3    H271801   0.677   0.913   2.862 -1.9529  1.2079 -0.3632
16796TIP3   OH271802   4.868   2.316  15.938  0.2550 -0.1455 -0.3453
16796TIP3    H171803   4.952   2.322  15.892  0.7517 -2.0510  0.2644
16796TIP3    H271804   4.807   2.284  15.872  0.8378 -2.2970  0.1078
16797TIP3   OH271805   2.663   6.547  13.258  0.1775 -0.5017  0.2125
16797TIP3    H171806   2.614   6.624  13.231  1.0347  0.4503  1.3702
16797TIP3    H271807   2.752   6.578  13.272  0.6279 -1.7844  0.2750
16798TIP3   OH271808   3.179   6.162  14.512 -0.8289  0.8394 -0.0889
16798TIP3    H171809   3.225   6.230  14.561  2.3132 -1.8012  0.8161
16798TIP3    H271810   3.196   6.183  14.420  0.4542  1.0695  0.1939
16799TIP3   OH271811   0.567   1.185   5.276  0.2544 -0.2012 -0.1419
16799TIP3    H171812   0.526   1.180   5.362 -0.8584  0.4720 -0.6280
16799TIP3    H271813   0.507   1.236   5.223  1.1945 -0.1434 -1.1799
16800TIP3   OH271814   4.923   1.528   2.804  0.1933  0.0551 -0.0626
16800TIP3    H171815   5.006   1.499   2.765 -0.2596  0.2846 -1.2105
16800TIP3    H271816   4.940   1.619   2.828 -0.1426  0.5331 -1.5588
16801TIP3   OH271817   3.002   0.031   1.056 -0.3081  0.1716  0.6547
16801TIP3    H171818   3.088   0.048   1.016 -0.8162  2.4911  0.4614
16801TIP3    H271819   3.021  -0.027   1.129  1.5189  1.0702  0.9311
16802TIP3   OH271820   4.836   2.090  10.892  0.1472 -0.1293  0.1753
16802TIP3    H171821   4.771   2.038  10.845 -2.2123  1.9531  1.0357
16802TIP3    H271822   4.890   2.129  10.824  0.1824 -1.4484 -0.5644
16803TIP3   OH271823   5.305   6.100   0.711  0.0444 -0.1002  0.2264
16803TIP3    H171824   5.253   6.021   0.697 -1.0283  0.5013  0.7502
16803TIP3    H271825   5.392   6.067   0.733 -0.4278 -1.1452  0.5776
16804TIP3   OH271826   6.665   2.326   5.710  0.3771  0.0739 -0.7139
16804TIP3    H171827   6.705   2.413   5.711 -2.1753  1.3064 -1.5279
16804TIP3    H271828   6.653   2.304   5.802  0.0506  1.0577 -0.5188
16805TIP3   OH271829   1.167   6.115  16.815 -0.2068  0.1454 -0.1446
16805TIP3    H171830   1.125   6.189  16.859  0.7727  1.5502 -1.5237
16805TIP3    H271831   1.120   6.107  16.732 -0.3988 -0.8886  0.0570
16806TIP3   OH271832   2.800   0.731   2.786  0.3573 -0.0157 -0.7072
16806TIP3    H171833   2.882   0.681   2.782  1.5797  1.8001  0.4176
16806TIP3    H271834   2.753   0.694   2.860  2.0278  1.5246  1.2061
16807TIP3   OH271835   1.509   2.271   4.972 -0.0702  0.0210 -0.1028
16807TIP3    H171836   1.425   2.225   4.974  0.6391 -1.2772  3.0721
16807TIP3    H271837   1.491   2.355   5.016 -0.0268  0.3492 -0.7075
16808TIP3   OH271838   2.250   3.491   5.032 -0.2967 -0.3172 -0.2126
16808TIP3    H171839   2.257   3.586   5.036 -0.2087 -0.1631 -3.1394
16808TIP3    H271840   2.234   3.465   5.123  0.7333  2.3749  0.7969
16809TIP3   OH271841   6.637   0.150  11.829  0.3468 -0.4936 -0.2263
16809TIP3    H171842   6.593   0.214  11.773  0.2708 -1.5631 -1.4351
16809TIP3    H271843   6.568   0.087  11.851  0.7676 -0.9998 -0.3372
16810TIP3   OH271844   5.226   6.659   3.146 -0.2678 -0.1083  0.1391
16810TIP3    H171845   5.211   6.746   3.183  1.0584  0.3959 -0.4666
16810TIP3    H271846   5.293   6.620   3.202 -1.4435 -1.0763  0.9017
16811TIP3   OH271847   4.636   6.218  11.280  0.3798 -0.3227 -0.4396
16811TIP3    H171848   4.611   6.192  11.191  1.7382  0.2312 -0.9888
16811TIP3    H271849   4.681   6.302  11.269  0.4263 -0.1716  0.7917
16812TIP3   OH271850   6.663   6.453  13.951 -0.3288  0.0576 -0.2175
16812TIP3    H171851   6.725   6.524  13.970  0.3610 -0.7623  0.6457
16812TIP3    H271852   6.705   6.405  13.879 -0.9196  0.6577 -0.9792
16813TIP3   OH271853   5.255   2.844   2.280 -0.6532  0.3916 -0.7337
16813TIP3    H171854   5.212   2.887   2.354 -2.9334 -2.8276 -0.0647
16813TIP3    H271855   5.200   2.866   2.205 -0.9098 -0.0368 -0.6717
16814TIP3   OH271856   5.207   3.478   3.145  0.1808 -1.1438 -0.0598
16814TIP3    H171857   5.125   3.507   3.185  0.5014 -1.4847  0.8739
16814TIP3    H271858   5.263   3.555   3.146  0.2185 -1.1720  0.2555
16815TIP3   OH271859   0.094   3.581   4.502 -0.1871 -0.3470 -0.1732
16815TIP3    H171860   0.182   3.568   4.537  0.0479  0.7096 -0.3374
16815TIP3    H271861   0.040   3.599   4.579  0.0497  0.5640 -0.2186
16816TIP3   OH271862   4.159   1.050  13.623  0.3544 -0.3773  0.0663
16816TIP3    H171863   4.090   1.056  13.556 -0.1149 -0.2722  0.5528
16816TIP3    H271864   4.189   0.959  13.619 -0.2973 -0.6070  0.3247
16817TIP3   OH271865   6.259   3.052  16.463 -0.3637 -0.6903  1.0474
16817TIP3    H171866   6.318   3.051  16.538  0.5223  1.0499  0.3903
16817TIP3    H271867   6.229   3.143  16.457 -1.0998 -1.0040 -0.1883
16818TIP3   OH271868   6.024   1.343   5.034  0.0301 -0.0003 -0.1471
16818TIP3    H171869   5.934   1.368   5.058  0.4080  1.5856 -0.3296
16818TIP3    H271870   6.013   1.287   4.957 -0.8292 -0.2009  0.1097
16819TIP3   OH271871   6.724   3.179   1.289 -0.3218  0.9421 -0.3035
16819TIP3    H171872   6.819   3.168   1.288 -0.5126 -0.8872 -1.5808
16819TIP3    H271873   6.692   3.104   1.340 -1.2182 -0.1022 -2.3365
16820TIP3   OH271874   6.409   6.617   3.908  0.1732  0.0706  0.5469
16820TIP3    H171875   6.468   6.606   3.983  0.2027 -2.2289  0.2317
16820TIP3    H271876   6.434   6.547   3.848 -1.4219  0.4423 -0.5786
16821TIP3   OH271877   6.729   4.808   1.568  0.1303  0.2907 -0.6298
16821TIP3    H171878   6.823   4.814   1.557  0.3056 -2.5403 -0.9389
16821TIP3    H271879   6.694   4.886   1.525  2.2291  0.6662 -1.6753
16822TIP3   OH271880   0.696   2.503   1.673  0.4182  0.6610  0.3313
16822TIP3    H171881   0.702   2.465   1.760 -1.6147 -0.7856 -0.1172
16822TIP3    H271882   0.602   2.519   1.660  0.5634 -0.1669 -1.9954
16823TIP3   OH271883   5.879   0.992  14.041  0.2707 -0.7485 -0.2738
16823TIP3    H171884   5.902   1.069  13.988  1.2049 -0.7838  0.0818
16823TIP3    H271885   5.961   0.943  14.049 -0.1936 -1.4817  0.0003
16824TIP3   OH271886   6.556   0.079   2.730  0.2929 -0.0886  0.6836
16824TIP3    H171887   6.556   0.003   2.672  2.6686  1.5362 -1.6133
16824TIP3    H271888   6.649   0.100   2.742 -0.2936  2.7286  0.7810
16825TIP3   OH271889   6.074   2.170   2.862 -0.0736 -0.3211 -0.5521
16825TIP3    H171890   6.145   2.118   2.825  1.0017  1.4420 -1.0018
16825TIP3    H271891   6.115   2.221   2.932 -1.4144 -1.1202  0.8533
16826TIP3   OH271892   5.952   5.786   6.639  0.1952  0.0582  0.2785
16826TIP3    H171893   5.982   5.771   6.729 -0.8595 -0.2357  0.5882
16826TIP3    H271894   5.866   5.745   6.635  0.9327 -1.3924 -1.3534
16827TIP3   OH271895   3.055   5.261  12.836 -0.4353 -0.0041  0.1118
16827TIP3    H171896   3.118   5.250  12.765  0.3517 -0.6112  0.8779
16827TIP3    H271897   2.979   5.209  12.810  0.3741 -1.3157  0.3061
16828TIP3   OH271898   1.082   2.031  13.197  0.7935  0.5493  0.3512
16828TIP3    H171899   1.125   2.093  13.256 -0.9417  1.0906  1.0646
16828TIP3    H271900   1.033   1.972  13.255  1.1991 -0.5565 -0.4088
16829TIP3   OH271901   0.186   6.037   5.596 -0.0614 -0.7814  1.6295
16829TIP3    H171902   0.120   6.107   5.593  1.1210  0.4300  3.1243
16829TIP3    H271903   0.270   6.083   5.597  0.8898 -2.3170 -0.9519
16830TIP3   OH271904   4.365   5.775  16.671  0.2017  0.0107  0.2120
16830TIP3    H171905   4.278   5.815  16.670  0.0509 -0.3417 -0.7215
16830TIP3    H271906   4.395   5.787  16.761 -0.9207 -0.1110  0.6112
16831TIP3   OH271907   2.763   5.156   5.515  0.0018 -0.2826  0.2942
16831TIP3    H171908   2.807   5.087   5.565  2.7261  1.7763  0.8300
16831TIP3    H271909   2.730   5.217   5.581  0.7175  0.7387 -0.2722
16832TIP3   OH271910   2.917   2.349   0.555  0.2786  0.2654 -0.6173
16832TIP3    H171911   3.009   2.323   0.567  0.4483  0.9124 -0.4903
16832TIP3    H271912   2.916   2.394   0.470  0.0347  0.0640 -0.7205
16833TIP3   OH271913   6.321   2.072   4.039  0.3503  0.1665 -0.9729
16833TIP3    H171914   6.374   2.128   4.096 -2.1465  1.5549  0.1014
16833TIP3    H271915   6.310   1.991   4.089 -0.9169  0.9750  0.1114
16834TIP3   OH271916   2.852   3.781   1.195 -0.4663  0.4811 -0.2260
16834TIP3    H171917   2.915   3.850   1.216 -1.5017  1.5264 -0.5281
16834TIP3    H271918   2.903   3.700   1.202  1.1078  1.3510 -1.1552
16835TIP3   OH271919   0.693   4.503  11.897  0.4066  0.3575  0.0777
16835TIP3    H171920   0.720   4.559  11.969 -0.4436  0.5246  0.2793
16835TIP3    H271921   0.617   4.456  11.931  1.6969 -1.6412  0.2331
16836TIP3   OH271922   3.715   6.082  11.392 -0.3911 -0.5949 -0.0258
16836TIP3    H171923   3.771   6.068  11.315  0.9481 -0.1092  0.8474
16836TIP3    H271924   3.636   6.121  11.356  0.5988  0.5023 -1.0649
16837TIP3   OH271925   3.596   3.319   5.514 -0.0026  0.2309  0.0029
16837TIP3    H171926   3.505   3.346   5.522 -0.6235 -2.2748  2.2414
16837TIP3    H271927   3.642   3.368   5.582  0.0787  0.5475 -0.2814
16838TIP3   OH271928   2.101   1.748   4.463  0.5317  0.3621 -0.8313
16838TIP3    H171929   2.124   1.831   4.504  1.9332  0.4016 -1.6686
16838TIP3    H271930   2.176   1.726   4.409 -0.4271 -0.7396 -1.7516
16839TIP3   OH271931   5.039   0.129   4.262 -0.2360 -0.5426 -0.2612
16839TIP3    H171932   4.985   0.174   4.198  2.1881  1.3410 -1.0611
16839TIP3    H271933   5.076   0.054   4.214  1.6291  0.9039 -1.1272
16840TIP3   OH271934   1.399   1.651  13.986 -0.3134 -0.3760 -0.5890
16840TIP3    H171935   1.384   1.745  13.985 -2.6256 -0.6903  0.6040
16840TIP3    H271936   1.450   1.634  13.907 -1.4799  1.6326 -1.8379
16841TIP3   OH271937   1.723   5.041   1.193 -0.4149 -0.0977  0.9583
16841TIP3    H171938   1.676   5.054   1.110  1.6000  1.5760  0.0472
16841TIP3    H271939   1.731   4.945   1.200 -1.4025 -0.2960 -0.3165
16842TIP3   OH271940   6.178   5.722  13.530 -0.1635 -0.2973 -0.2467
16842TIP3    H171941   6.172   5.671  13.449  1.5903  1.9549 -1.8413
16842TIP3    H271942   6.245   5.678  13.581 -1.9379 -2.2854  0.4439
16843TIP3   OH271943   1.653   3.289   2.517 -0.0538 -0.0686  0.5040
16843TIP3    H171944   1.630   3.375   2.553 -3.0867 -0.6054 -0.0690
16843TIP3    H271945   1.612   3.287   2.431 -1.0892 -2.5658  1.0219
16844TIP3   OH271946   6.627   0.595  14.826  0.1928  0.0149  0.5587
16844TIP3    H171947   6.580   0.516  14.850 -3.5677  2.0565  0.3284
16844TIP3    H271948   6.619   0.600  14.730 -1.8154  1.8601  0.7591
16845TIP3   OH271949   5.880   5.986  10.477  0.2924  0.1943  0.4552
16845TIP3    H171950   5.805   5.985  10.418  0.2596 -0.9667  0.5100
16845TIP3    H271951   5.912   6.077  10.474 -0.5213  0.4583 -0.3047
16846TIP3   OH271952   5.729   0.273   4.567 -0.4369  0.0980  0.3489
16846TIP3    H171953   5.677   0.283   4.647 -2.0629  1.2953 -0.8254
16846TIP3    H271954   5.672   0.304   4.497  1.9849  1.8039 -0.9529
16847TIP3   OH271955   5.964   5.035  16.841  0.2617  0.4350 -0.5163
16847TIP3    H171956   5.919   4.970  16.895 -0.1867  0.6610 -0.6088
16847TIP3    H271957   5.981   4.991  16.758  1.0500  0.0519 -0.1501
16848TIP3   OH271958   2.448   1.455  14.292  0.7553 -0.5615  0.2124
16848TIP3    H171959   2.529   1.404  14.292  0.7688 -0.6078 -2.6530
16848TIP3    H271960   2.450   1.503  14.209 -1.8096  0.0027  0.4452
16849TIP3   OH271961   3.243   4.656  12.122  0.0059  0.2333  0.2535
16849TIP3    H171962   3.317   4.688  12.174  0.8551 -1.1572 -0.0639
16849TIP3    H271963   3.183   4.618  12.186  0.3343 -0.1011  0.3664
16850TIP3   OH271964   6.316   5.908  13.806 -0.0976  0.2877  0.2744
16850TIP3    H171965   6.304   5.817  13.836 -0.2169 -0.1884 -1.1984
16850TIP3    H271966   6.387   5.903  13.742 -1.0536  1.0193 -0.8448
16851TIP3   OH271967   2.511   2.676  16.132 -0.7405 -0.3980 -0.4845
16851TIP3    H171968   2.517   2.767  16.104  2.2675 -0.5350 -0.5380
16851TIP3    H271969   2.471   2.630  16.058 -1.5869  0.7527 -0.7488
16852TIP3   OH271970   1.381   3.745   2.178  0.2951 -0.3574 -0.1417
16852TIP3    H171971   1.427   3.828   2.176 -0.5164  0.1956  2.6004
16852TIP3    H271972   1.372   3.720   2.086  2.6331  1.3920 -0.8740
16853TIP3   OH271973   5.731   0.805  11.817  0.1096 -0.0111 -0.4013
16853TIP3    H171974   5.747   0.716  11.850 -1.6192 -0.2544 -0.1514
16853TIP3    H271975   5.760   0.803  11.726 -0.4475 -0.9993 -0.5595
16854TIP3   OH271976   4.890   1.248   2.516 -0.1642 -0.1000  0.6721
16854TIP3    H171977   4.917   1.157   2.505 -0.9505 -0.1845 -0.7383
16854TIP3    H271978   4.795   1.245   2.513 -0.1953  1.2547 -4.2275
16855TIP3   OH271979   5.020   6.700  14.657  0.1719  0.3105 -0.7807
16855TIP3    H171980   5.093   6.679  14.715 -1.6730  0.2250  1.6005
16855TIP3    H271981   5.028   6.794  14.641  0.8730  0.2741 -0.6491
16856TIP3   OH271982   5.656   4.364   5.693 -0.6647 -0.0647  0.2769
16856TIP3    H171983   5.565   4.392   5.683 -1.0807 -2.0240 -2.2810
16856TIP3    H271984   5.652   4.268   5.684  1.5904 -0.2211  0.6625
16857TIP3   OH271985   0.706   4.844   5.217 -0.4098  0.1113 -0.5217
16857TIP3    H171986   0.639   4.810   5.277 -0.5550  0.0744 -0.7026
16857TIP3    H271987   0.655   4.877   5.142 -0.2246  0.0832 -0.6595
16858TIP3   OH271988   4.786   2.866   1.018  0.9535 -0.7531 -0.4317
16858TIP3    H171989   4.863   2.897   1.067  0.6224 -1.5945  0.6319
16858TIP3    H271990   4.712   2.907   1.062  0.7241 -0.6290 -0.9302
16859TIP3   OH271991   6.420   3.056   3.324  0.1627  0.7593  0.3499
16859TIP3    H171992   6.380   3.004   3.393  0.5100 -0.9043 -0.6700
16859TIP3    H271993   6.348   3.077   3.264  0.5826 -1.4025 -0.9713
16860TIP3   OH271994   1.646   1.220  14.591  0.1692 -0.3566  0.0904
16860TIP3    H171995   1.559   1.223  14.551  0.9347  0.9430 -1.5394
16860TIP3    H271996   1.657   1.306  14.631  0.8262 -0.3857 -0.0178
16861TIP3   OH271997   0.621   3.062   2.996 -0.1741  0.4368  0.1755
16861TIP3    H171998   0.630   3.104   2.911  2.2969 -1.0707 -0.3723
16861TIP3    H271999   0.611   3.135   3.058 -1.4047  1.5578 -1.3118
16862TIP3   OH272000   6.236   6.095  16.785  0.1149 -0.0812  0.4097
16862TIP3    H172001   6.298   6.142  16.729 -0.9567  2.0280  0.9484
16862TIP3    H272002   6.220   6.012  16.738  2.7673 -0.3746 -0.0777
16863TIP3   OH272003   1.982   0.289   3.317  0.3398  0.1421 -0.1879
16863TIP3    H172004   2.076   0.277   3.302  0.5099 -1.6261  1.9371
16863TIP3    H272005   1.952   0.203   3.347 -1.4375  1.3308  1.5845
16864TIP3   OH272006   3.567   0.972   1.984 -0.0857 -0.0035  0.2090
16864TIP3    H172007   3.577   0.884   1.947  0.8783 -0.1229  0.7374
16864TIP3    H272008   3.624   0.972   2.061  1.1239  1.5710 -0.6585
16865TIP3   OH272009   5.028   6.540   4.512  0.5356  0.0198 -0.0902
16865TIP3    H172010   4.997   6.476   4.448 -0.3253  0.9572 -0.6242
16865TIP3    H272011   4.949   6.567   4.560  1.5986 -3.0631  3.6250
16866TIP3   OH272012   4.265   1.313  13.690  0.0844  0.4563 -0.5277
16866TIP3    H172013   4.222   1.235  13.656  0.7626 -1.0798  2.0305
16866TIP3    H272014   4.357   1.289  13.695  0.4211  1.7314 -0.5287
16867TIP3   OH272015   6.070   3.054   2.555  0.4333 -0.5887 -0.3459
16867TIP3    H172016   6.103   3.144   2.562 -1.3215 -0.0069  0.5927
16867TIP3    H272017   6.029   3.051   2.468  1.5437 -0.8597 -0.8766
16868TIP3   OH272018   1.172   3.865  16.481 -0.6372 -0.0759 -0.1168
16868TIP3    H172019   1.082   3.894  16.497 -0.1939  0.9709  0.5849
16868TIP3    H272020   1.215   3.873  16.567 -0.0355 -1.1422 -0.3077
16869TIP3   OH272021   0.950   5.018  13.418  0.2178  0.6267  0.2961
16869TIP3    H172022   0.892   5.057  13.483 -0.1479 -0.5725  0.6962
16869TIP3    H272023   1.036   5.019  13.460 -0.1738 -0.9686  1.1693
16870TIP3   OH272024   0.831   3.129  16.484  0.2953 -0.0586  0.3244
16870TIP3    H172025   0.763   3.165  16.540 -0.3942 -0.5996 -0.1595
16870TIP3    H272026   0.816   3.034  16.486  0.3021 -0.0867 -0.7302
16871TIP3   OH272027   3.931   4.413   2.367 -0.0322  0.2397  0.4410
16871TIP3    H172028   3.842   4.446   2.384 -0.1752  1.6378 -2.6666
16871TIP3    H272029   3.986   4.460   2.429 -0.9194  2.6764 -0.5635
16872TIP3   OH272030   0.028   0.841   5.552  0.0406  0.6048 -0.2006
16872TIP3    H172031  -0.050   0.820   5.500  0.2722 -0.1254 -0.2553
16872TIP3    H272032   0.058   0.925   5.517 -0.9959  1.1318  0.1360
16873TIP3   OH272033   6.367   2.713  13.206  0.2757  0.0074  0.4202
16873TIP3    H172034   6.431   2.688  13.273 -2.0244 -1.6716  2.0722
16873TIP3    H272035   6.365   2.638  13.146  2.0941  1.3733 -1.3816
16874TIP3   OH272036   4.413   0.933   2.909  0.1351  0.3303  0.2577
16874TIP3    H172037   4.343   0.894   2.857 -0.9692  0.8618  1.3021
16874TIP3    H272038   4.393   0.908   2.999  2.2384 -0.9113  0.4116
16875TIP3   OH272039   5.283   6.712   1.018  0.1176  0.4912 -0.6966
16875TIP3    H172040   5.228   6.760   1.079  0.9725  1.2346 -0.5140
16875TIP3    H272041   5.358   6.684   1.069 -0.1834 -0.7284 -0.8918
16876TIP3   OH272042   3.485   3.933  16.192 -0.4164 -0.3748  0.0152
16876TIP3    H172043   3.531   3.861  16.148 -1.1168 -1.1423  0.5237
16876TIP3    H272044   3.397   3.900  16.207 -0.7795  0.6382  0.1570
16877TIP3   OH272045   6.677   0.700  13.875  0.6957  0.1831  0.6247
16877TIP3    H172046   6.683   0.784  13.921 -1.0521  0.4447  0.4380
16877TIP3    H272047   6.585   0.694  13.849  1.6920  0.2576 -3.2372
16878TIP3   OH272048   4.366   4.262  16.334 -0.3196  0.2786  0.2291
16878TIP3    H172049   4.396   4.307  16.413  0.3791 -0.2347  0.2589
16878TIP3    H272050   4.430   4.286  16.267 -0.7141  0.4289 -0.0939
16879TIP3   OH272051   3.092   2.199  13.143 -0.0800 -0.1221  0.1774
16879TIP3    H172052   3.152   2.146  13.195 -0.0125 -0.2597 -0.0414
16879TIP3    H272053   3.143   2.222  13.065  0.3302  1.3071  0.8417
16880TIP3   OH272054   3.578   4.103   0.366 -0.3807 -0.3159 -0.0005
16880TIP3    H172055   3.589   4.190   0.329  0.4897 -0.9135 -1.1674
16880TIP3    H272056   3.662   4.060   0.353 -0.7645 -1.2858  0.6732
16881TIP3   OH272057   3.401   1.848   2.137 -0.5086  0.2137 -0.4836
16881TIP3    H172058   3.310   1.860   2.110 -1.8217 -1.7303  2.7776
16881TIP3    H272059   3.425   1.762   2.102 -0.0969  0.4709 -0.8409
16882TIP3   OH272060   4.521   3.851  15.801 -0.1222  0.4589 -0.0843
16882TIP3    H172061   4.492   3.762  15.819  0.5776  0.5656  1.7522
16882TIP3    H272062   4.616   3.844  15.794  0.0786  1.2361  1.4647
16883TIP3   OH272063   2.048   2.859   1.429  0.2842 -0.2104 -0.6371
16883TIP3    H172064   2.011   2.781   1.387 -3.3467  0.1566  1.7131
16883TIP3    H272065   2.025   2.930   1.370 -1.0390 -0.2484 -0.1748
16884TIP3   OH272066   0.932   5.545   4.283 -0.2362  0.1607 -0.0890
16884TIP3    H172067   1.001   5.489   4.247  0.7399  1.9495 -1.0724
16884TIP3    H272068   0.872   5.560   4.210 -0.8685 -0.1686  0.3579
16885TIP3   OH272069   3.222   1.141   1.325 -0.1220  0.0296  0.3599
16885TIP3    H172070   3.168   1.129   1.246 -0.5299 -1.6424  0.8865
16885TIP3    H272071   3.160   1.170   1.391 -0.0767 -0.2284  0.5150
16886TIP3   OH272072   0.672   0.306   6.749  0.0022  0.2778 -0.1201
16886TIP3    H172073   0.621   0.345   6.820 -1.6587 -2.3848  0.2608
16886TIP3    H272074   0.608   0.253   6.701  1.7442 -0.4388 -1.7053
16887TIP3   OH272075   5.460   3.850  13.634  0.0262 -0.1122  0.4910
16887TIP3    H172076   5.409   3.925  13.602  1.2235  0.0840 -0.9884
16887TIP3    H272077   5.432   3.777  13.579  1.1289 -0.0638 -0.1418
16888TIP3   OH272078   0.287   6.755   1.105  0.0273  0.1119 -0.0119
16888TIP3    H172079   0.285   6.674   1.157  3.1586 -0.6445 -0.9667
16888TIP3    H272080   0.245   6.730   1.023  1.3437 -0.6655 -0.4559
16889TIP3   OH272081   6.732   3.039   0.441 -0.1627  0.5571 -0.0488
16889TIP3    H172082   6.812   3.040   0.494  0.7481  0.6094 -1.3831
16889TIP3    H272083   6.706   3.131   0.436 -1.3198  0.3488  1.8546
16890TIP3   OH272084   3.784   3.402   2.290  0.2087 -0.0848  0.1476
16890TIP3    H172085   3.763   3.311   2.273  1.2261 -0.1833 -0.6843
16890TIP3    H272086   3.705   3.439   2.329 -1.0060 -0.7511 -1.6263
16891TIP3   OH272087   0.692   6.267   2.243  0.4623 -0.1456  0.1043
16891TIP3    H172088   0.725   6.303   2.160  0.7853 -0.8849 -0.0875
16891TIP3    H272089   0.619   6.325   2.267  0.1311 -0.1501 -0.8786
16892TIP3   OH272090   3.361   0.068  15.581 -0.5197  0.3235 -0.0749
16892TIP3    H172091   3.399   0.095  15.664  0.9867 -0.3910 -0.5101
16892TIP3    H272092   3.355  -0.028  15.586 -1.0543  0.3248 -0.5262
16893TIP3   OH272093   4.879   1.749   2.112  0.1129 -0.0361  0.4541
16893TIP3    H172094   4.832   1.815   2.061  1.2337  0.0907 -0.4406
16893TIP3    H272095   4.811   1.689   2.142 -0.9064  1.4004  1.1199
16894TIP3   OH272096   6.370   4.504   0.774  0.4628 -0.0799  0.1916
16894TIP3    H172097   6.438   4.439   0.753  0.4849 -0.0033  0.0212
16894TIP3    H272098   6.337   4.531   0.688  1.5045  1.2647  0.2113
16895TIP3   OH272099   1.399   0.555  11.379  0.3881 -0.0391  0.4928
16895TIP3    H172100   1.451   0.479  11.353  1.4458  0.8751 -0.1184
16895TIP3    H272101   1.340   0.522  11.447 -0.0983 -1.7086 -0.6853
16896TIP3   OH272102   0.564   3.713  13.544  0.2216  0.5737 -0.1615
16896TIP3    H172103   0.495   3.754  13.595  0.3361  1.1527 -0.4703
16896TIP3    H272104   0.640   3.711  13.602  0.4164  1.4318 -0.3768
16897TIP3   OH272105   2.710   2.916   2.095 -0.4136 -0.1793 -0.6579
16897TIP3    H172106   2.644   2.985   2.085 -1.9540 -1.6658 -0.9356
16897TIP3    H272107   2.673   2.841   2.049  2.2360 -0.5573 -2.2647
16898TIP3   OH272108   0.244   0.186  15.449  0.0976 -0.0871  0.2374
16898TIP3    H172109   0.207   0.105  15.483  0.6169 -0.5559 -0.2901
16898TIP3    H272110   0.264   0.166  15.358  1.3448  0.2515  0.4308
16899TIP3   OH272111   1.891   2.084   6.376  0.1981 -0.0662 -0.3326
16899TIP3    H172112   1.860   2.153   6.318  0.2932 -1.1864 -1.7358
16899TIP3    H272113   1.987   2.092   6.374  0.1755  0.5201  0.4660
16900TIP3   OH272114   4.454   0.008   6.364  0.4880  0.3253  0.2395
16900TIP3    H172115   4.446   0.027   6.457  0.7503 -0.1322  0.3527
16900TIP3    H272116   4.365   0.021   6.330  0.3436  0.2573  0.5919
16901TIP3   OH272117   0.397   0.350   2.111 -0.5990 -0.3173 -0.2733
16901TIP3    H172118   0.405   0.327   2.018  1.9377  0.0345 -0.1855
16901TIP3    H272119   0.431   0.440   2.116 -0.4986 -0.4181  1.0270
16902TIP3   OH272120   5.654   2.240   0.759  0.2574  0.2170 -0.3305
16902TIP3    H172121   5.741   2.211   0.788  0.0723 -1.4421 -1.3517
16902TIP3    H272122   5.667   2.329   0.728  1.2210  0.6483  1.2498
16903TIP3   OH272123   1.826   0.725  12.978 -0.1085 -0.5041 -0.2018
16903TIP3    H172124   1.771   0.685  12.911  1.9026 -1.5831 -1.2489
16903TIP3    H272125   1.796   0.687  13.060 -2.1271  0.3088 -0.5254
16904TIP3   OH272126   0.006   5.054  11.799 -0.6286  0.5530  0.0176
16904TIP3    H172127   0.072   5.106  11.752 -0.1806 -0.2273 -0.2247
16904TIP3    H272128   0.055   5.009  11.868 -0.3115 -2.4285 -2.0426
16905TIP3   OH272129   5.816   3.867  13.060 -0.2948  0.5504  0.1827
16905TIP3    H172130   5.894   3.923  13.051 -0.5931  0.9315 -0.0658
16905TIP3    H272131   5.811   3.848  13.154  0.9959 -0.7768  0.0063
16906TIP3   OH272132   6.162   3.732   3.197  0.0529  0.2679 -0.3116
16906TIP3    H172133   6.096   3.752   3.131  0.1225  0.4459 -0.3283
16906TIP3    H272134   6.166   3.810   3.251  0.4737  0.3835 -0.5016
16907TIP3   OH272135   0.841   6.455  15.006 -0.4763 -0.5157  0.0231
16907TIP3    H172136   0.784   6.415  14.941 -0.9951  1.4008 -0.7353
16907TIP3    H272137   0.907   6.501  14.954  1.7232 -2.6012  0.8830
16908TIP3   OH272138   4.370   1.394   2.090  0.3935 -0.2057  0.1317
16908TIP3    H172139   4.371   1.393   2.185  2.2143  1.2042  0.1504
16908TIP3    H272140   4.333   1.309   2.065 -0.5502 -0.3760  2.0811
16909TIP3   OH272141   2.955   0.744  16.550 -0.2948 -0.3897 -0.6268
16909TIP3    H172142   2.967   0.809  16.481 -0.2198  0.7700  0.4601
16909TIP3    H272143   3.004   0.779  16.624  0.0849 -1.8990 -0.1484
16910TIP3   OH272144   3.021   1.544  13.752  0.5381  0.4350  0.3133
16910TIP3    H172145   3.035   1.533  13.846  3.0513  0.4136 -0.0209
16910TIP3    H272146   2.940   1.497  13.733  0.3589 -0.0957  2.3595
16911TIP3   OH272147   6.429   6.743  11.981  0.7120  0.0618 -0.4370
16911TIP3    H172148   6.369   6.816  11.967  1.6832  0.4582 -2.7694
16911TIP3    H272149   6.457   6.752  12.072 -1.2510  0.9978  0.0933
16912TIP3   OH272150   6.730   1.247  15.875  0.2976  0.1441 -0.6048
16912TIP3    H172151   6.777   1.180  15.925  3.6798  1.6332 -1.6166
16912TIP3    H272152   6.760   1.330  15.913 -1.5645  1.1632 -1.3051
16913TIP3   OH272153   3.346   2.318   3.910 -0.0735  0.3118  0.3353
16913TIP3    H172154   3.402   2.241   3.921  1.8393  1.4117 -1.3908
16913TIP3    H272155   3.309   2.334   3.997 -0.0304 -2.1765  0.8448
16914TIP3   OH272156   0.489   5.413  14.452  0.0470  0.0564 -0.4359
16914TIP3    H172157   0.471   5.399  14.545  1.7420  2.4363  0.3171
16914TIP3    H272158   0.564   5.357  14.433 -0.7879 -1.0205 -0.5820
16915TIP3   OH272159   4.984   5.254   4.854 -0.5019  0.7392 -0.4854
16915TIP3    H172160   5.035   5.195   4.799 -0.3061 -0.1979  0.6901
16915TIP3    H272161   5.032   5.258   4.937 -1.3668  1.2864 -0.0014
16916TIP3   OH272162   3.794   5.309   4.795  0.3714  0.1992 -0.9002
16916TIP3    H172163   3.798   5.387   4.739 -0.6327 -1.2702 -3.1265
16916TIP3    H272164   3.869   5.317   4.853  0.8001  2.3678 -1.7054
16917TIP3   OH272165   1.091   6.158  13.981  0.5463  0.2690  0.1337
16917TIP3    H172166   1.131   6.201  13.906  2.3347 -0.7259  0.4917
16917TIP3    H272167   1.014   6.113  13.946  0.8062  0.6274 -0.9043
16918TIP3   OH272168   1.910   2.205   0.357 -0.0452 -0.0568 -0.1409
16918TIP3    H172169   1.844   2.271   0.376 -0.6783 -0.6442 -0.2790
16918TIP3    H272170   1.897   2.138   0.424  0.6574  0.0045  0.0598
16919TIP3   OH272171   6.176   1.842   4.921 -0.3440  0.0317  0.0624
16919TIP3    H172172   6.247   1.886   4.874  1.8566 -0.8102  2.5593
16919TIP3    H272173   6.123   1.914   4.956 -1.5455  0.6698 -2.8656
16920TIP3   OH272174   5.810   0.946  11.583 -0.3778 -0.4016  0.4067
16920TIP3    H172175   5.800   0.956  11.489 -0.5627 -0.2167  0.4454
16920TIP3    H272176   5.851   1.027  11.612 -1.6446  0.1424  0.6874
16921TIP3   OH272177   4.439   2.476  14.801 -0.3310  0.0247 -0.7462
16921TIP3    H172178   4.406   2.428  14.726 -0.0104 -1.1076 -0.1858
16921TIP3    H272179   4.443   2.567  14.773  0.8118 -0.5298 -2.4624
16922TIP3   OH272180   3.617   5.145  15.957  0.4196 -0.0099 -0.2215
16922TIP3    H172181   3.531   5.118  15.923  0.9998 -3.3787  0.7851
16922TIP3    H272182   3.602   5.161  16.050  0.9165 -0.8858  0.0161
16923TIP3   OH272183   0.714   0.974  10.922 -0.1750 -0.3982  0.4624
16923TIP3    H172184   0.774   1.000  10.992  0.2154  0.1435 -0.0704
16923TIP3    H272185   0.727   0.879  10.913  0.3975 -0.3300  0.5439
16924TIP3   OH272186   1.500   3.127  13.404  0.2072  0.4728  0.2616
16924TIP3    H172187   1.521   3.149  13.313  0.2841  0.2980  0.2384
16924TIP3    H272188   1.585   3.117  13.447  0.1755  1.7954  0.6557
16925TIP3   OH272189   3.072   5.168  15.537 -0.1709 -0.7214  0.5717
16925TIP3    H172190   3.096   5.210  15.454 -0.1902 -0.8273  0.5122
16925TIP3    H272191   3.155   5.140  15.574  0.0676  1.4911  1.7582
16926TIP3   OH272192   2.164   3.271  11.520  0.1196  0.3773 -0.1674
16926TIP3    H172193   2.229   3.203  11.537 -3.0859 -2.5135  1.1281
16926TIP3    H272194   2.149   3.266  11.425  1.2882  0.6278 -0.3746
16927TIP3   OH272195   2.628   6.068  12.878 -0.7397  0.5058 -0.0183
16927TIP3    H172196   2.605   5.975  12.888  0.0370  0.3569  0.4308
16927TIP3    H272197   2.557   6.115  12.920  0.0311  0.0271  1.8726
16928TIP3   OH272198   0.411   6.640  14.669 -0.4359  0.5880 -0.1943
16928TIP3    H172199   0.318   6.654  14.652 -0.7567 -0.8058  0.2792
16928TIP3    H272200   0.433   6.561  14.619  0.2954  0.4703  0.2966
16929TIP3   OH272201   0.042   0.041   2.723  0.2701 -0.1849  0.5474
16929TIP3    H172202   0.065  -0.014   2.649  0.8162  0.3939  0.2735
16929TIP3    H272203   0.120   0.096   2.737 -1.1668  2.3058 -0.8174
16930TIP3   OH272204   4.008   0.830   5.219  0.0926  0.7827 -0.0771
16930TIP3    H172205   4.080   0.857   5.276 -0.2748 -0.0344  0.7645
16930TIP3    H272206   4.032   0.742   5.189 -0.6052  0.4675  0.2850
16931TIP3   OH272207   6.102   3.377  15.658 -0.3444 -0.0698 -0.1054
16931TIP3    H172208   6.134   3.384  15.748 -0.7354 -1.1111  0.1237
16931TIP3    H272209   6.174   3.408  15.604  0.4574 -0.8702  0.4934
16932TIP3   OH272210   3.774   1.305   2.044  0.3498 -0.0281  0.0692
16932TIP3    H172211   3.773   1.373   1.976  1.5216 -0.5553 -0.5035
16932TIP3    H272212   3.841   1.243   2.014  1.1851 -0.0456  1.9267
16933TIP3   OH272213   1.423   5.702   5.179 -0.4190 -0.7575  0.0655
16933TIP3    H172214   1.420   5.725   5.272 -2.6997 -0.3004 -0.0860
16933TIP3    H272215   1.364   5.765   5.137 -3.1363 -3.8971 -1.0330
16934TIP3   OH272216   4.549   5.089   3.373 -0.1098 -0.3188 -0.2205
16934TIP3    H172217   4.487   5.155   3.404 -1.1229 -0.3574 -2.1287
16934TIP3    H272218   4.561   5.109   3.280  3.0978 -0.0141  0.1931
16935TIP3   OH272219   5.864   1.128  12.696 -0.0836 -0.0075  0.7541
16935TIP3    H172220   5.859   1.118  12.791  0.9206 -0.0094  0.8074
16935TIP3    H272221   5.952   1.098  12.673 -0.3635 -0.1279 -0.1930
16936TIP3   OH272222   2.977   2.303   5.599 -0.2130 -0.5058 -0.0457
16936TIP3    H172223   2.978   2.374   5.663 -0.6374  0.0097 -0.6005
16936TIP3    H272224   3.050   2.323   5.540 -1.1806  0.2363 -1.0124
16937TIP3   OH272225   5.145   3.339   5.592 -0.2115  0.1725  0.4638
16937TIP3    H172226   5.225   3.290   5.573  0.1113  1.0848 -0.6034
16937TIP3    H272227   5.080   3.273   5.615  0.4722 -0.6706 -0.0208
16938TIP3   OH272228   3.590   2.755   5.879 -0.2382 -0.3797  0.6847
16938TIP3    H172229   3.511   2.754   5.932 -1.4069 -0.0976 -1.0145
16938TIP3    H272230   3.643   2.683   5.914 -0.6699  0.2221  2.6484
16939TIP3   OH272231   2.056   1.744   5.196  0.6458 -0.3775 -0.6715
16939TIP3    H172232   2.010   1.695   5.264  0.5463 -0.6954 -0.9656
16939TIP3    H272233   1.986   1.776   5.138  0.6148  1.0310  0.1029
16940TIP3   OH272234   6.258   6.780   0.008 -0.2094  0.3333  0.0983
16940TIP3    H172235   6.206   6.850   0.047  0.0184  0.9793 -0.7316
16940TIP3    H272236   6.336   6.774   0.063  0.3979  1.6507 -0.5751
16941TIP3   OH272237   0.148   2.721   5.802  0.1516 -0.2849  0.0980
16941TIP3    H172238   0.219   2.769   5.759  1.4949 -0.3841  2.1293
16941TIP3    H272239   0.191   2.673   5.873 -1.7806 -1.3138  0.6106
16942TIP3   OH272240   4.854   3.447  16.405  0.3464  0.4323 -0.4554
16942TIP3    H172241   4.900   3.385  16.463  1.5639  0.4472 -1.3638
16942TIP3    H272242   4.809   3.391  16.342 -0.1193  0.4384 -0.1323
16943TIP3   OH272243   3.252   3.495   0.659  0.3256 -0.0323 -0.3459
16943TIP3    H172244   3.310   3.456   0.725 -1.4266 -0.8499  0.7332
16943TIP3    H272245   3.185   3.428   0.644 -1.0819  1.4171 -0.6125
16944TIP3   OH272246   2.228   3.137  12.398  0.8663 -0.4808 -0.0986
16944TIP3    H172247   2.141   3.119  12.362  0.1980  2.0044  0.1519
16944TIP3    H272248   2.235   3.079  12.474  1.2057 -3.8217 -2.6351
16945TIP3   OH272249   6.003   6.461  13.180  0.1495 -0.6904 -0.3975
16945TIP3    H172250   6.017   6.408  13.102  0.0223  0.9885 -1.5795
16945TIP3    H272251   5.916   6.497  13.170  0.4972  0.2962  0.0699
16946TIP3   OH272252   1.221   0.810   5.296  0.0297 -0.6524  0.0681
16946TIP3    H172253   1.213   0.888   5.351 -1.4400 -0.7541  0.0298
16946TIP3    H272254   1.308   0.815   5.258  0.4292  0.2894  1.1024
16947TIP3   OH272255   5.238   3.464  14.720 -0.9417 -0.4750  0.0476
16947TIP3    H172256   5.249   3.388  14.777 -1.5445 -0.0337  0.7664
16947TIP3    H272257   5.167   3.440  14.660 -0.6660 -0.7366 -0.1763
16948TIP3   OH272258   0.342   4.472  11.231 -0.0544 -0.0741 -0.3162
16948TIP3    H172259   0.383   4.556  11.212 -2.1416  0.5728 -2.3012
16948TIP3    H272260   0.249   4.494  11.242 -0.8778 -2.2932 -2.4886
16949TIP3   OH272261   5.941   0.236  11.719 -0.0823 -0.3655 -0.5794
16949TIP3    H172262   5.950   0.263  11.628 -1.0347 -0.8295 -0.8205
16949TIP3    H272263   5.999   0.295  11.768 -3.3933  3.3210 -0.8668
16950TIP3   OH272264   4.546   2.316  15.994  0.1334  0.6638 -0.2857
16950TIP3    H172265   4.618   2.276  15.946 -1.5572 -0.4908 -1.9532
16950TIP3    H272266   4.560   2.291  16.085  2.0587  0.8385 -0.5214
16951TIP3   OH272267   5.422   4.275   5.340  0.2154 -0.1048 -0.0435
16951TIP3    H172268   5.514   4.298   5.352  0.0683 -0.0545  1.1170
16951TIP3    H272269   5.384   4.350   5.294  0.5967  0.2068  0.1507
16952TIP3   OH272270   0.930   6.250   5.044  0.1353 -0.3568 -0.4241
16952TIP3    H172271   0.859   6.310   5.020  1.1022  1.7381  1.7519
16952TIP3    H272272   1.005   6.281   4.993  0.2942 -0.6026 -0.3403
16953TIP3   OH272273   4.582   1.257   2.503 -0.2518  0.3268  0.0278
16953TIP3    H172274   4.499   1.215   2.525 -0.2498  0.1596 -0.2752
16953TIP3    H272275   4.580   1.266   2.408  1.3337 -2.3898 -0.3205
16954TIP3   OH272276   6.733   5.090   2.111 -0.2559 -0.3552 -0.3229
16954TIP3    H172277   6.660   5.149   2.123 -0.6827 -1.2042  1.5824
16954TIP3    H272278   6.775   5.117   2.029 -2.8028 -0.0001 -1.5331
16955TIP3   OH272279   3.377   4.158  12.836 -0.1680  0.8550 -0.0119
16955TIP3    H172280   3.368   4.064  12.824 -0.8159  1.1231 -1.8865
16955TIP3    H272281   3.468   4.170  12.865 -0.2980 -0.3826  0.9632
16956TIP3   OH272282   2.639   1.637  12.751  0.3423  0.3646 -0.5059
16956TIP3    H172283   2.566   1.575  12.754 -0.3240  1.1029 -1.1935
16956TIP3    H272284   2.622   1.699  12.822  1.1334 -0.3572  0.3334
16957TIP3   OH272285   5.878   3.148  16.582  0.2121 -0.5319 -0.4826
16957TIP3    H172286   5.937   3.100  16.524  2.1914  2.0472 -0.6290
16957TIP3    H272287   5.916   3.137  16.669 -1.3328 -2.2030  0.0252
16958TIP3   OH272288   3.839   1.466  11.544 -0.2326 -0.8702 -0.5606
16958TIP3    H172289   3.810   1.445  11.633 -3.5759  1.8574 -0.9080
16958TIP3    H272290   3.818   1.388  11.493  0.2066 -1.8476  0.7230
16959TIP3   OH272291   2.059   0.204  10.496  0.1139 -0.2670 -0.1004
16959TIP3    H172292   2.138   0.201  10.442  1.1253  0.1605  1.3187
16959TIP3    H272293   2.044   0.297  10.512  0.5149 -0.4375  1.3256
16960TIP3   OH272294   0.909   2.692   3.766 -1.1474  0.4551  0.1391
16960TIP3    H172295   0.988   2.745   3.778  0.4063 -1.5510 -0.9230
16960TIP3    H272296   0.874   2.681   3.855  0.8107 -0.1513  0.8667
16961TIP3   OH272297   2.644   5.518  12.270 -0.3749 -0.4264 -0.1026
16961TIP3    H172298   2.648   5.422  12.265 -1.1332 -0.4310 -0.6474
16961TIP3    H272299   2.551   5.538  12.262 -0.4088  0.2644  1.7765
16962TIP3   OH272300   2.975   3.418   2.387 -0.4984 -0.7049 -0.1915
16962TIP3    H172301   3.012   3.480   2.325  0.0825 -0.9548 -0.0953
16962TIP3    H272302   3.051   3.374   2.426 -0.8952 -1.3033 -0.0826
16963TIP3   OH272303   3.242   0.291  15.924 -0.0488  0.3075 -0.0181
16963TIP3    H172304   3.247   0.385  15.909  0.8174  0.1272 -0.8964
16963TIP3    H272305   3.171   0.280  15.987  0.7290  1.6649  1.1066
16964TIP3   OH272306   6.313   3.806  12.341 -0.3563 -0.0059  0.3676
16964TIP3    H172307   6.227   3.775  12.371 -0.4876 -1.1936 -1.1759
16964TIP3    H272308   6.306   3.807  12.246  1.0884  0.6879  0.2557
16965TIP3   OH272309   6.397   2.711   1.759  0.0323  0.7757 -0.2059
16965TIP3    H172310   6.408   2.750   1.846 -3.3948  0.1588  0.5505
16965TIP3    H272311   6.325   2.760   1.720 -2.6537 -2.9974 -0.2440
16966TIP3   OH272312   1.314   5.658  11.429  0.0838  0.1080 -0.4684
16966TIP3    H172313   1.248   5.635  11.364 -0.0653 -0.0095 -0.2767
16966TIP3    H272314   1.381   5.591  11.421  0.2306  0.2862 -0.7356
16967TIP3   OH272315   2.438   2.438   0.815  0.1876 -0.2052 -0.1884
16967TIP3    H172316   2.464   2.425   0.906  2.7333 -0.5747 -0.9367
16967TIP3    H272317   2.515   2.412   0.764 -1.7525 -1.5689 -2.5131
16968TIP3   OH272318   2.527   3.051  16.344  0.9491  0.5463 -0.2510
16968TIP3    H172319   2.501   2.960  16.330  1.7769  0.5054 -1.6318
16968TIP3    H272320   2.459   3.103  16.302 -0.1655  0.6227  1.5842
16969TIP3   OH272321   2.444   3.696   4.491  0.0793 -0.9337 -0.0348
16969TIP3    H172322   2.508   3.737   4.549  1.2355 -0.8895 -1.3107
16969TIP3    H272323   2.497   3.652   4.424 -1.1978 -2.6809  0.0767
16970TIP3   OH272324   5.006   5.905  12.452 -0.4727 -0.0460 -0.5890
16970TIP3    H172325   4.985   5.938  12.539  0.8998  0.6572 -0.5268
16970TIP3    H272326   5.033   5.982  12.403  1.7720 -0.9036 -0.7287
16971TIP3   OH272327   6.492   0.232  13.724  0.1485 -0.3051 -0.0986
16971TIP3    H172328   6.481   0.248  13.631  1.1456 -1.6871 -0.4679
16971TIP3    H272329   6.587   0.232  13.737  0.0007  1.7538  1.2623
16972TIP3   OH272330   3.159   5.822  11.296 -0.0942 -0.1568 -0.6050
16972TIP3    H172331   3.235   5.878  11.279 -0.9768  1.6443  1.1109
16972TIP3    H272332   3.083   5.875  11.271 -0.8864 -1.1545 -0.3871
16973TIP3   OH272333   5.989   3.731  14.001  0.0617  0.1486  0.4005
16973TIP3    H172334   6.078   3.703  14.020  0.0356  0.7131  1.3837
16973TIP3    H272335   5.934   3.661  14.038  0.0899 -0.0041  0.1499
16974TIP3   OH272336   3.010   1.964   3.030  0.3813  0.2885  0.0298
16974TIP3    H172337   2.922   2.001   3.040 -0.5285 -1.3573 -1.7217
16974TIP3    H272338   2.995   1.873   3.006  2.5872 -0.1582  0.3086
16975TIP3   OH272339   3.518   0.380   5.662  0.0748 -0.3164 -0.6000
16975TIP3    H172340   3.502   0.291   5.694 -0.0664  0.4056  1.3331
16975TIP3    H272341   3.433   0.411   5.633 -0.3388  0.1152  1.0688
16976TIP3   OH272342   6.117   4.171  15.386  0.0146 -0.8166 -0.2599
16976TIP3    H172343   6.093   4.256  15.349  0.7943  0.9249  3.0722
16976TIP3    H272344   6.213   4.171  15.386  0.0153 -1.0459  1.1671
16977TIP3   OH272345   0.274   4.118  16.165 -0.0867 -0.0129  0.0865
16977TIP3    H172346   0.201   4.069  16.204  0.4673  0.2374  1.4688
16977TIP3    H272347   0.347   4.105  16.226  0.4958  1.2919 -0.3152
16978TIP3   OH272348   3.298   5.271   1.541 -0.1115 -0.1951  0.2351
16978TIP3    H172349   3.242   5.335   1.586 -0.0249  0.7776 -1.0135
16978TIP3    H272350   3.243   5.237   1.471  0.6118  0.2009 -0.5287
16979TIP3   OH272351   3.354   4.256  11.499 -0.0372  0.0609 -0.9744
16979TIP3    H172352   3.376   4.319  11.567 -1.0193  1.1114 -1.6118
16979TIP3    H272353   3.262   4.274  11.479 -0.4261 -1.8053 -0.9253
16980TIP3   OH272354   2.974   5.508  13.198  0.0931  0.3272 -0.3361
16980TIP3    H172355   2.998   5.520  13.290  0.1306  1.2381 -0.4596
16980TIP3    H272356   3.056   5.520  13.150  0.0510 -0.0280 -0.4945
16981TIP3   OH272357   1.949   6.098  16.578 -0.2153  0.3287 -0.3160
16981TIP3    H172358   1.906   6.149  16.509 -0.5071  0.3768 -0.0999
16981TIP3    H272359   2.031   6.070  16.539 -0.7122 -0.2668 -0.9392
16982TIP3   OH272360   3.969   0.255   1.635  0.2756 -0.4001  0.0690
16982TIP3    H172361   3.950   0.312   1.561 -1.0054 -1.2835 -0.3098
16982TIP3    H272362   4.057   0.221   1.618  0.0965 -0.3773 -0.9117
16983TIP3   OH272363   2.964   3.499   4.203 -0.0235  0.5084  0.6199
16983TIP3    H172364   2.927   3.586   4.191 -0.1338  0.4693  0.6748
16983TIP3    H272365   3.023   3.508   4.278 -2.9746 -0.3590  3.1499
16984TIP3   OH272366   1.234   5.086  13.308 -0.3994 -0.5885  0.6317
16984TIP3    H172367   1.146   5.114  13.284 -0.6400 -1.2721  0.7147
16984TIP3    H272368   1.286   5.098  13.229 -0.2129  1.2853  1.0200
16985TIP3   OH272369   3.071   2.605   0.394  0.1358  0.0051 -0.5595
16985TIP3    H172370   3.132   2.674   0.419  0.8589 -0.2668 -1.5797
16985TIP3    H272371   2.986   2.650   0.390  0.8856  1.2740 -3.1144
16986TIP3   OH272372   0.359   1.283  13.355  0.3529  0.1851  0.3133
16986TIP3    H172373   0.324   1.213  13.410 -0.5362  0.5193  0.1807
16986TIP3    H272374   0.441   1.248  13.320 -0.7482 -1.3136 -0.8233
16987TIP3   OH272375   0.280   0.209  11.776  0.3477 -0.4771 -0.6731
16987TIP3    H172376   0.304   0.295  11.812 -0.3430 -0.3692 -0.4732
16987TIP3    H272377   0.253   0.228  11.686 -2.7481 -0.0521  0.3094
16988TIP3   OH272378   0.482   5.232  16.062  0.0351  0.1944 -0.1798
16988TIP3    H172379   0.386   5.225  16.060 -0.0164  0.7007  0.3931
16988TIP3    H272380   0.500   5.321  16.031  0.3396 -0.0194 -0.6218
16989TIP3   OH272381   6.744   1.918  13.829  0.2637 -0.2988 -0.3349
16989TIP3    H172382   6.743   1.959  13.742 -0.8049 -0.1271 -0.2483
16989TIP3    H272383   6.784   1.833  13.815  2.2748  0.6569 -0.5692
16990TIP3   OH272384   3.135   1.402   1.117  0.3463  0.2011 -0.1337
16990TIP3    H172385   3.108   1.443   1.034 -0.8128  1.9162  1.0550
16990TIP3    H272386   3.222   1.437   1.134  0.3613  0.2758 -0.3643
16991TIP3   OH272387   0.887   3.165   5.205 -0.2115 -0.1414  0.2344
16991TIP3    H172388   0.917   3.241   5.255  2.5941 -1.3065  0.4157
16991TIP3    H272389   0.801   3.145   5.241  1.1519 -0.1004  3.6774
16992TIP3   OH272390   3.301   0.236  16.708 -0.0629  0.2604  0.3632
16992TIP3    H172391   3.255   0.241  16.792  1.1785  0.8380  1.0373
16992TIP3    H272392   3.288   0.322  16.669  0.7607  0.5630  0.7402
16993TIP3   OH272393   4.236   5.787   4.161  0.3752  0.5373 -0.1712
16993TIP3    H172394   4.245   5.776   4.066  2.0266  1.3720 -0.1258
16993TIP3    H272395   4.325   5.779   4.195 -0.2835 -0.4995  1.4115
16994TIP3   OH272396   5.607   2.042  15.896  0.2970 -0.3436  0.0092
16994TIP3    H172397   5.682   2.088  15.933  0.8425 -0.1468 -1.2956
16994TIP3    H272398   5.557   2.110  15.851 -1.1710 -0.3084  1.6281
16995TIP3   OH272399   5.489   0.860   1.036 -0.0425  0.5181  0.5162
16995TIP3    H172400   5.435   0.820   0.968 -0.2227  1.0009  0.3788
16995TIP3    H272401   5.453   0.827   1.118  0.1068  0.0225  0.3861
16996TIP3   OH272402   2.408   1.803   4.575  0.4735 -0.1064  0.4726
16996TIP3    H172403   2.405   1.884   4.626 -1.2522 -1.0177  1.8848
16996TIP3    H272404   2.372   1.827   4.490  0.7675  0.8097  0.6042
16997TIP3   OH272405   3.007   0.758   1.626  0.3861  0.1007  0.4472
16997TIP3    H172406   2.993   0.666   1.648  0.2120 -0.0871 -0.4264
16997TIP3    H272407   2.993   0.805   1.708  0.2983 -0.6385  0.8562
16998TIP3   OH272408   6.224   5.723   3.908 -0.3084 -0.3661 -0.2504
16998TIP3    H172409   6.257   5.764   3.988 -0.4922 -0.8140  0.0584
16998TIP3    H272410   6.229   5.629   3.925  0.6218 -0.4926 -1.1632
16999TIP3   OH272411   5.261   0.694  14.531 -0.0998 -0.0667  0.1336
16999TIP3    H172412   5.300   0.751  14.597  2.0516 -0.8986 -0.3742
16999TIP3    H272413   5.307   0.716  14.450 -0.4605 -1.3044 -0.4225
17000TIP3   OH272414   0.769   5.991  15.610 -0.2243 -0.2532  1.0000
17000TIP3    H172415   0.820   6.017  15.534 -0.5163 -0.3759  0.7557
17000TIP3    H272416   0.686   5.959  15.573 -0.2035 -0.7106  1.3413
17001TIP3   OH272417   1.476   4.182   2.694 -0.3604  0.0581  0.4646
17001TIP3    H172418   1.435   4.192   2.608  0.5087  0.5423  0.1016
17001TIP3    H272419   1.417   4.124   2.742 -0.9015 -0.1360 -0.4257
17002TIP3   OH272420   4.433   5.422   4.284 -0.5631  0.7986  0.1685
17002TIP3    H172421   4.484   5.421   4.203 -0.1739  1.0880  0.4065
17002TIP3    H272422   4.495   5.451   4.351 -0.1540 -2.1441  1.0968
17003TIP3   OH272423   2.061   4.490  16.215 -0.3384  0.2958 -0.2167
17003TIP3    H172424   2.050   4.525  16.127 -1.7404 -0.1662 -0.2386
17003TIP3    H272425   2.142   4.530  16.247  0.1296  0.5363 -1.6707
17004TIP3   OH272426   5.234   2.053   3.328 -0.4154 -0.5024  0.0231
17004TIP3    H172427   5.309   2.093   3.284 -0.4478 -1.0529 -0.5461
17004TIP3    H272428   5.192   2.125   3.375 -0.0982 -0.0022 -0.4606
17005TIP3   OH272429   0.880   5.192  13.219 -0.0627 -0.4256 -0.1575
17005TIP3    H172430   0.917   5.130  13.281 -0.7882 -2.5628 -1.7958
17005TIP3    H272431   0.913   5.278  13.247 -0.2444 -1.3522  3.0094
17006TIP3   OH272432   4.791   2.219   6.226 -0.0193 -0.3128  0.0214
17006TIP3    H172433   4.722   2.239   6.289  2.3771  2.2763  1.9759
17006TIP3    H272434   4.827   2.135   6.255 -0.6716 -0.4376  0.4765
17007TIP3   OH272435   5.232   5.098  14.014 -0.5265 -0.0954 -0.3622
17007TIP3    H172436   5.137   5.087  14.023 -0.5230 -2.4957 -2.5586
17007TIP3    H272437   5.265   5.008  14.005  1.9486  0.7246  0.2509
17008TIP3   OH272438   4.093   1.797  16.960  0.1900 -0.3917 -0.1085
17008TIP3    H172439   4.022   1.771  17.018  1.1669  1.7397  2.1434
17008TIP3    H272440   4.171   1.797  17.016  0.9603  2.9347 -1.0655
17009TIP3   OH272441   3.193   4.145  16.497 -0.0360  0.0937 -0.1436
17009TIP3    H172442   3.257   4.095  16.547 -0.6474 -2.4968 -1.8614
17009TIP3    H272443   3.108   4.114  16.528 -0.4218  0.2894 -0.9849
17010TIP3   OH272444   5.424   2.073  13.734  0.1871  0.6929 -0.4071
17010TIP3    H172445   5.359   2.076  13.803 -0.4818  0.8701 -1.0362
17010TIP3    H272446   5.375   2.046  13.656  0.8550  0.8668 -0.8964
17011TIP3   OH272447   1.107   3.433   4.227  0.0094 -0.3514 -0.5093
17011TIP3    H172448   1.063   3.421   4.311  2.0039  0.6022  0.7065
17011TIP3    H272449   1.179   3.493   4.246  2.6260 -2.8213 -2.1039
17012TIP3   OH272450   2.007   5.386  11.582 -0.1472  0.6875 -0.1224
17012TIP3    H172451   1.920   5.423  11.597 -1.1529 -0.7584 -2.1875
17012TIP3    H272452   2.036   5.425  11.499  0.4135 -0.1908 -0.3450
17013TIP3   OH272453   3.740   4.809  14.664  0.3525 -0.2789  0.1039
17013TIP3    H172454   3.736   4.878  14.598  1.4202 -3.1262 -3.0543
17013TIP3    H272455   3.650   4.776  14.669  0.2105  0.1309  0.3218
17014TIP3   OH272456   0.423   3.336  14.298  0.8033 -0.0140 -0.4334
17014TIP3    H172457   0.467   3.263  14.253  2.2212  0.8330 -0.4479
17014TIP3    H272458   0.333   3.331  14.267  0.7028 -2.1588  0.0647
17015TIP3   OH272459   2.152   6.722   3.613  0.7549  0.4340  0.4155
17015TIP3    H172460   2.210   6.769   3.554 -0.8383  1.1434 -0.6086
17015TIP3    H272461   2.104   6.790   3.660  0.2254 -0.1327  0.7092
17016TIP3   OH272462   6.085   1.130  13.516  0.1101  0.0588 -0.5086
17016TIP3    H172463   6.159   1.154  13.571  0.5204 -1.6590 -0.2769
17016TIP3    H272464   6.062   1.211  13.470  0.6016  1.1930  1.1789
17017TIP3   OH272465   3.933   2.590   0.378 -0.3634  0.6486 -0.0710
17017TIP3    H172466   3.855   2.599   0.324  0.7795  1.4514 -1.6387
17017TIP3    H272467   3.902   2.598   0.468 -2.0022  1.4756 -0.7065
17018TIP3   OH272468   4.950   4.167   2.626  0.4183 -0.4177 -0.2065
17018TIP3    H172469   4.911   4.186   2.712  0.1735 -1.9200  0.0288
17018TIP3    H272470   5.042   4.150   2.645  0.4189 -0.4859 -0.2674
17019TIP3   OH272471   5.540   4.389   4.134 -0.4610  0.3930  0.2609
17019TIP3    H172472   5.534   4.483   4.118  2.9972  0.6756  0.0730
17019TIP3    H272473   5.596   4.382   4.212 -0.1470 -1.4963 -0.1077
17020TIP3   OH272474   3.743   2.959   3.113 -0.0881  0.6598 -0.5277
17020TIP3    H172475   3.665   3.006   3.083 -0.7710 -0.5325 -0.6519
17020TIP3    H272476   3.709   2.882   3.158  1.0146  0.1419 -0.5625
17021TIP3   OH272477   2.245   3.958  16.472 -0.0217  1.1391  0.2100
17021TIP3    H172478   2.284   3.872  16.453 -0.7819  1.0313 -0.9178
17021TIP3    H272479   2.250   3.966  16.568  1.1767  0.3816  0.2246
17022TIP3   OH272480   5.798   4.250  12.537 -0.5513 -1.1077  0.3287
17022TIP3    H172481   5.810   4.160  12.566 -0.8177 -0.5407  2.2793
17022TIP3    H272482   5.847   4.302  12.600  0.0287  0.0969 -1.0826
17023TIP3   OH272483   0.836   3.218   2.015 -0.6122  0.3270  0.1978
17023TIP3    H172484   0.919   3.197   2.056 -0.6196  0.0203  0.0574
17023TIP3    H272485   0.849   3.195   1.922 -0.8916  0.1610  0.1987
17024TIP3   OH272486   4.159   5.283  14.914 -0.1459 -0.4091  0.4709
17024TIP3    H172487   4.226   5.301  14.848  0.5274 -2.1935  0.6245
17024TIP3    H272488   4.095   5.228  14.869 -0.2980 -0.6361  0.9647
17025TIP3   OH272489   2.472   6.442   6.641  0.2288 -0.0789  0.4229
17025TIP3    H172490   2.497   6.349   6.637 -0.6242 -0.3825  1.6280
17025TIP3    H272491   2.390   6.447   6.592 -0.9251 -0.4265  2.2394
17026TIP3   OH272492   3.535   2.533  10.678  0.1378  0.0723  0.5267
17026TIP3    H172493   3.480   2.605  10.709  1.3619  1.8012 -1.2141
17026TIP3    H272494   3.472   2.468  10.643 -0.9647  0.3014  2.0360
17027TIP3   OH272495   4.923   1.882  12.498  0.4167 -0.0165  0.1509
17027TIP3    H172496   4.942   1.950  12.432 -1.6388 -0.1310 -0.6094
17027TIP3    H272497   4.940   1.800  12.453  1.2425 -0.0584  0.5243
17028TIP3   OH272498   6.736   6.177  13.494  0.0662 -0.5804 -0.1633
17028TIP3    H172499   6.678   6.252  13.482 -1.3212 -1.5202  0.6496
17028TIP3    H272500   6.752   6.145  13.405 -0.3194 -0.0872 -0.4118
17029TIP3   OH272501   0.608   6.555   5.203  0.0404  0.1132  0.4480
17029TIP3    H172502   0.606   6.482   5.266  1.8684 -0.4293 -0.0686
17029TIP3    H272503   0.517   6.582   5.194 -0.6772 -2.1671  0.5988
17030TIP3   OH272504   0.254   4.627   1.322  0.0321 -0.1363 -0.3146
17030TIP3    H172505   0.302   4.568   1.264 -0.7724 -0.8348 -0.2797
17030TIP3    H272506   0.175   4.578   1.346  0.2571  0.2221  1.1975
17031TIP3   OH272507   0.643   2.771  12.701 -0.0407  0.2790  0.5437
17031TIP3    H172508   0.633   2.735  12.613 -1.5151  0.1882  0.7380
17031TIP3    H272509   0.554   2.793  12.728  0.5501  1.5169  1.5065
17032TIP3   OH272510   1.607   2.572  13.025  0.2097  0.0187  0.0951
17032TIP3    H172511   1.651   2.493  13.055 -0.1012  0.3071  1.3409
17032TIP3    H272512   1.662   2.644  13.056  1.2637  0.2861 -2.2732
17033TIP3   OH272513   0.375   6.328   0.242 -0.3000  0.0551  0.0471
17033TIP3    H172514   0.460   6.367   0.263 -1.7240  2.8850  0.7761
17033TIP3    H272515   0.359   6.351   0.151  0.0574 -1.1665 -0.3329
17034TIP3   OH272516   1.429   2.876  15.466  0.0585 -0.3786 -0.1798
17034TIP3    H172517   1.393   2.940  15.405  1.5945 -1.2310 -1.9949
17034TIP3    H272518   1.366   2.875  15.539 -1.2355  1.4052 -1.2452
17035TIP3   OH272519   3.658   6.704  14.120 -0.5544 -0.8744  0.1604
17035TIP3    H172520   3.659   6.618  14.077  1.3697  0.2556 -2.1761
17035TIP3    H272521   3.589   6.752  14.076 -0.8233 -0.8263  0.6348
17036TIP3   OH272522   2.943   6.538   4.274  0.4428 -0.2382 -0.1603
17036TIP3    H172523   2.996   6.482   4.330  1.9087  1.5952  0.3101
17036TIP3    H272524   2.992   6.544   4.192 -0.1892 -0.4044 -0.5575
17037TIP3   OH272525   1.931   6.154   2.480 -0.2816 -0.2555 -0.7443
17037TIP3    H172526   1.910   6.098   2.554  1.7980 -1.3176 -0.9319
17037TIP3    H272527   2.022   6.133   2.459  0.7201  3.4884 -0.5147
17038TIP3   OH272528   4.501   5.362  15.718 -0.3665  0.5386  0.0269
17038TIP3    H172529   4.521   5.269  15.705 -4.1816 -0.3592 -0.1112
17038TIP3    H272530   4.544   5.384  15.800  1.5421 -1.0302 -0.5065
17039TIP3   OH272531   4.774   3.134   0.628 -0.0639  0.0742 -0.5495
17039TIP3    H172532   4.774   3.170   0.540 -3.8166  0.5172 -0.4764
17039TIP3    H272533   4.802   3.043   0.617  2.8961  1.0794 -1.6674
17040TIP3   OH272534   3.818   1.894  12.265 -0.7194  0.4135  0.3518
17040TIP3    H172535   3.879   1.822  12.250 -2.2665 -1.1735  1.5182
17040TIP3    H272536   3.743   1.854  12.308 -1.7614  2.6714  0.7319
17041TIP3   OH272537   3.311   2.241   6.689  0.7087 -0.6018 -0.1930
17041TIP3    H172538   3.401   2.237   6.654  1.9459  3.4160  2.1750
17041TIP3    H272539   3.322   2.231   6.783 -0.9342  3.2094  0.4671
17042TIP3   OH272540   5.496   3.239   5.178 -0.8394  0.0180  0.4140
17042TIP3    H172541   5.553   3.262   5.105 -0.3077 -0.8406  0.5477
17042TIP3    H272542   5.534   3.286   5.253  0.1530 -1.1419  0.6564
17043TIP3   OH272543   6.514   0.519   4.699  0.7440 -0.4162 -0.3075
17043TIP3    H172544   6.461   0.482   4.769  0.4813  0.3548 -0.1010
17043TIP3    H272545   6.604   0.504   4.727  0.6566 -2.5774 -1.0981
17044TIP3   OH272546   4.626   1.640  15.929 -0.3390 -0.1322  0.0847
17044TIP3    H172547   4.547   1.691  15.949 -0.5456 -0.3514 -0.1501
17044TIP3    H272548   4.626   1.570  15.994 -0.1144  0.1054  0.3401
17045TIP3   OH272549   1.200   3.304  13.156  0.0264  0.3197  0.3274
17045TIP3    H172550   1.174   3.384  13.202  0.6429  0.1925  0.8973
17045TIP3    H272551   1.119   3.252  13.152 -0.6006  1.3645 -0.8747
17046TIP3   OH272552   6.294   3.667   5.925 -0.0512 -0.5159 -0.0699
17046TIP3    H172553   6.382   3.698   5.946 -0.7564  1.5627 -0.0722
17046TIP3    H272554   6.307   3.579   5.890  2.0885  0.0560 -0.7621
17047TIP3   OH272555   2.318   6.184   4.823 -0.3238  0.3000  0.3375
17047TIP3    H172556   2.321   6.194   4.918  0.7384 -1.8600  0.5544
17047TIP3    H272557   2.368   6.259   4.789 -0.3834  0.8670  1.4731
17048TIP3   OH272558   1.096   6.251  11.771  0.0299  0.3555 -0.1439
17048TIP3    H172559   1.017   6.296  11.740  0.0870  0.8395  0.4158
17048TIP3    H272560   1.078   6.232  11.863  0.1869 -0.3717 -0.2598
17049TIP3   OH272561   6.190   3.793  16.599 -0.5859 -0.0761  0.4814
17049TIP3    H172562   6.205   3.730  16.669 -0.3690 -1.3084 -0.6591
17049TIP3    H272563   6.094   3.800  16.593 -0.5993  0.6653  1.4457
17050TIP3   OH272564   5.642   2.783  16.063 -0.0476  0.4539 -0.4340
17050TIP3    H172565   5.591   2.703  16.050 -0.9347  1.0718 -0.7537
17050TIP3    H272566   5.592   2.833  16.128  1.0956  0.2338  0.6288
17051TIP3   OH272567   5.407   0.769  15.860 -0.2569  0.0456  0.2640
17051TIP3    H172568   5.445   0.767  15.948  1.1755 -2.0752 -0.3779
17051TIP3    H272569   5.425   0.858  15.829 -2.0014  1.2948  2.5835
17052TIP3   OH272570   1.604   3.777   2.712 -0.0245 -0.3533 -0.2015
17052TIP3    H172571   1.679   3.817   2.669  0.0807 -1.1311 -0.7492
17052TIP3    H272572   1.534   3.842   2.704  0.1351 -0.2930 -1.1036
17053TIP3   OH272573   0.070   5.978   3.203 -0.3207 -0.2280  0.3492
17053TIP3    H172574   0.062   5.949   3.112 -0.5314 -0.8309  0.5585
17053TIP3    H272575   0.025   6.063   3.206 -0.8365 -0.4899  0.0248
17054TIP3   OH272576   2.180   5.480  11.755  0.0322 -0.2859 -0.8103
17054TIP3    H172577   2.247   5.412  11.753 -0.1602 -0.4850 -0.5812
17054TIP3    H272578   2.106   5.442  11.707 -0.3648 -0.5501  0.0001
17055TIP3   OH272579   6.206   2.034   4.471  0.1244  0.4804 -0.2633
17055TIP3    H172580   6.272   1.970   4.441 -0.2829 -1.0605  2.0154
17055TIP3    H272581   6.129   2.015   4.417  0.1224 -0.7267  0.1401
17056TIP3   OH272582   1.247   0.500   4.920 -0.0426  1.0063  0.1208
17056TIP3    H172583   1.317   0.563   4.903 -1.5626  2.5277 -0.7072
17056TIP3    H272584   1.292   0.419   4.945  2.0111  1.6846 -1.2928
17057TIP3   OH272585   0.196   2.687  15.421  0.0481  0.2445 -0.0112
17057TIP3    H172586   0.119   2.711  15.472  0.6719 -0.9474  1.5002
17057TIP3    H272587   0.245   2.769  15.412 -0.9880  0.8390 -0.3222
17058TIP3   OH272588   5.727   2.313  12.887  0.1734  0.2092 -0.1778
17058TIP3    H172589   5.669   2.237  12.894  1.4938 -0.7409  0.7920
17058TIP3    H272590   5.689   2.367  12.818 -1.8784 -0.3780  0.4686
17059TIP3   OH272591   4.194   2.064   3.949  0.5918 -0.6679 -0.0737
17059TIP3    H172592   4.275   2.020   3.973  0.6714 -1.4156 -1.6711
17059TIP3    H272593   4.125   2.012   3.991  0.7686 -1.6207 -0.9460
17060TIP3   OH272594   5.982   2.016   4.325  0.5300  0.1302  0.2945
17060TIP3    H172595   5.894   2.025   4.362  0.5680 -2.2856  1.0677
17060TIP3    H272596   5.978   2.063   4.241 -1.4995 -0.0163  0.2851
17061TIP3   OH272597   2.384   1.197  13.175 -0.2623  0.2632 -0.2263
17061TIP3    H172598   2.329   1.125  13.207 -0.4994  0.1885 -0.7990
17061TIP3    H272599   2.447   1.155  13.117 -0.8194  0.5981 -1.0843
17062TIP3   OH272600   4.081   0.112   4.940  0.1011  0.1954  0.1298
17062TIP3    H172601   3.986   0.099   4.939  0.2037 -0.5341 -0.9581
17062TIP3    H272602   4.117   0.024   4.957  0.5577  0.6206  1.4141
17063TIP3   OH272603   3.246   0.136   5.358  0.3830 -0.0757 -0.0238
17063TIP3    H172604   3.224   0.131   5.451 -0.1037  0.2146 -0.1258
17063TIP3    H272605   3.315   0.203   5.354 -0.4951  0.8399 -0.0346
17064TIP3   OH272606   0.091   6.481   0.149  0.3488  0.0789  0.5558
17064TIP3    H172607   0.014   6.531   0.120 -1.6105 -3.2479 -0.2717
17064TIP3    H272608   0.083   6.479   0.245 -1.2014 -1.0496  0.4339
17065TIP3   OH272609   5.807   3.452   0.723  0.4300 -0.2258  0.7011
17065TIP3    H172610   5.802   3.521   0.789 -0.2409  0.2137  0.1972
17065TIP3    H272611   5.824   3.498   0.641  4.4472 -1.0083  0.9939
17066TIP3   OH272612   6.535   1.590  14.094 -0.1799 -0.0801 -0.7219
17066TIP3    H172613   6.446   1.607  14.122 -0.1759 -3.1165  1.4906
17066TIP3    H272614   6.531   1.587  13.999 -2.6710 -1.1375 -0.6127
17067TIP3   OH272615   5.374   6.288  10.321 -0.0537  0.1706 -0.7216
17067TIP3    H172616   5.294   6.339  10.309 -0.0125 -0.1414 -2.4598
17067TIP3    H272617   5.357   6.206  10.275 -0.2914 -1.6186  2.4202
17068TIP3   OH272618   2.892   2.102  14.528 -0.2518 -0.0918 -0.6626
17068TIP3    H172619   2.902   2.067  14.439  0.3998  0.8270 -0.9556
17068TIP3    H272620   2.923   2.192  14.522 -2.3209  0.6844 -0.0063
17069TIP3   OH272621   0.084   4.756   4.202  0.1295  0.1724  0.1443
17069TIP3    H172622   0.128   4.839   4.220  1.4102 -0.4196 -0.2103
17069TIP3    H272623  -0.003   4.766   4.241  0.1361  1.8213 -0.2389
17070TIP3   OH272624   5.939   0.429  12.287 -0.5050  0.1232 -0.6421
17070TIP3    H172625   5.914   0.505  12.339 -1.2546 -0.2737 -0.4179
17070TIP3    H272626   6.004   0.383  12.341 -0.2190  0.4771 -0.6823
17071TIP3   OH272627   0.045   0.657   2.958 -0.2603  0.8097  0.1470
17071TIP3    H172628   0.120   0.703   2.922  0.0351  0.0413 -0.2129
17071TIP3    H272629  -0.025   0.671   2.894 -0.1258  0.6257 -0.0387
17072TIP3   OH272630   1.532   1.763  15.721  0.0451  0.5354  0.0628
17072TIP3    H172631   1.553   1.708  15.645 -1.0032 -0.6262  0.5944
17072TIP3    H272632   1.468   1.826  15.689  0.0428  0.4197 -0.1594
17073TIP3   OH272633   5.524   5.166   6.255 -0.4016 -0.2388  0.2211
17073TIP3    H172634   5.471   5.205   6.185  0.9479  1.6037  0.1871
17073TIP3    H272635   5.512   5.225   6.330  0.0294 -0.8820  0.8008
17074TIP3   OH272636   1.358   5.704  11.985  0.1940  0.4919  0.4039
17074TIP3    H172637   1.417   5.775  12.010 -0.7849  1.0979  1.0537
17074TIP3    H272638   1.392   5.673  11.901  0.3249  2.0757 -0.1491
17075TIP3   OH272639   1.320   2.566   3.818  0.0014  0.4157  0.2181
17075TIP3    H172640   1.393   2.558   3.756 -0.0942 -0.7543  0.2505
17075TIP3    H272641   1.243   2.576   3.762 -0.3262 -2.5002  0.0625
17076TIP3   OH272642   6.294   5.060  13.796  0.0354 -0.1180 -0.0617
17076TIP3    H172643   6.225   5.077  13.732 -0.6544  0.9182  0.9482
17076TIP3    H272644   6.375   5.087  13.752 -0.5026  1.1719 -0.2596
17077TIP3   OH272645   4.229   1.801   3.281 -0.3382 -0.6989  0.0089
17077TIP3    H172646   4.210   1.709   3.262 -3.3688 -0.1185 -0.1419
17077TIP3    H272647   4.207   1.811   3.374 -2.4063  0.3808 -0.5642
17078TIP3   OH272648   3.282   5.548  15.718  0.1502 -0.3509  0.1108
17078TIP3    H172649   3.228   5.627  15.710 -0.5326 -0.8199  0.0447
17078TIP3    H272650   3.366   5.572  15.679 -0.1174  0.2817 -0.0836
17079TIP3   OH272651   1.229   0.252  11.237  0.3572  0.2808  0.0752
17079TIP3    H172652   1.258   0.224  11.151 -0.3326 -1.0199  0.2575
17079TIP3    H272653   1.154   0.309  11.220  0.4378  0.3026 -0.2019
17080TIP3   OH272654   5.165   0.974  16.112 -0.7292  0.1026  0.3121
17080TIP3    H172655   5.162   0.880  16.127  3.4742  0.0669  1.4038
17080TIP3    H272656   5.123   0.986  16.027 -0.1516 -2.9021 -0.4484
17081TIP3   OH272657   2.430   1.412  13.993  0.4383 -0.8747  0.8583
17081TIP3    H172658   2.457   1.441  13.906 -1.3479 -1.4058  0.1133
17081TIP3    H272659   2.336   1.427  13.996  0.0818 -3.1553  1.8070
17082TIP3   OH272660   5.895   6.629  15.645  0.0289  0.2793  0.3204
17082TIP3    H172661   5.969   6.569  15.656 -0.0538  0.1355  0.1111
17082TIP3    H272662   5.914   6.674  15.563 -0.1049  0.2559  0.2771
17083TIP3   OH272663   5.484   0.210   1.464 -0.4292  0.1926  0.2022
17083TIP3    H172664   5.536   0.290   1.456 -1.0293  0.5828  0.1909
17083TIP3    H272665   5.549   0.140   1.474  0.2062  0.2885 -2.8243
17084TIP3   OH272666   5.230   1.670  11.252 -0.0042  0.1858  0.3907
17084TIP3    H172667   5.201   1.754  11.285 -0.2830  0.4321 -0.4771
17084TIP3    H272668   5.323   1.684  11.231 -0.2627  0.5191 -0.5453
17085TIP3   OH272669   3.859   3.694   4.625 -0.5611 -0.3374 -0.2062
17085TIP3    H172670   3.789   3.711   4.562 -1.6168 -1.1447  0.7462
17085TIP3    H272671   3.841   3.607   4.659  0.7898 -0.4664  0.2113
17086TIP3   OH272672   4.327   5.477   3.053 -0.2531  0.2489  0.5310
17086TIP3    H172673   4.408   5.503   3.009 -1.6207 -1.1600 -3.0328
17086TIP3    H272674   4.349   5.397   3.101  0.7773  0.6413  0.7228
17087TIP3   OH272675   3.078   2.030  17.006 -0.5246 -0.4703 -0.4472
17087TIP3    H172676   3.025   2.048  16.928  0.0542 -1.7629 -1.1597
17087TIP3    H272677   3.168   2.024  16.973  0.0333  1.3603  0.7042
17088TIP3   OH272678   2.415   0.872  12.368 -0.7630 -0.1858 -0.2132
17088TIP3    H172679   2.500   0.850  12.330 -0.1239  0.1049  1.0169
17088TIP3    H272680   2.433   0.885  12.461 -2.3767 -1.3216  0.2754
17089TIP3   OH272681   5.965   0.265  14.410 -0.3714  0.4961  0.3454
17089TIP3    H172682   5.918   0.218  14.478  0.4893  1.7432  1.8216
17089TIP3    H272683   5.903   0.331  14.380 -0.8294 -0.1962 -0.2634
17090TIP3   OH272684   2.948   3.631   0.914 -0.1399 -0.1393 -0.0623
17090TIP3    H172685   2.972   3.669   0.998  1.6960 -4.2108  1.4172
17090TIP3    H272686   2.868   3.582   0.933 -0.4330 -0.0251 -0.9962
17091TIP3   OH272687   5.469   1.335   0.915  0.0927  0.3916  0.4294
17091TIP3    H172688   5.396   1.286   0.952  1.2058  1.3186  4.0132
17091TIP3    H272689   5.546   1.280   0.932  0.5264  0.3940 -1.4236
17092TIP3   OH272690   6.055   3.894   1.639 -0.5230 -0.5545  0.1298
17092TIP3    H172691   5.960   3.901   1.626 -0.2158  1.7762 -1.0370
17092TIP3    H272692   6.089   3.870   1.552  0.0234 -0.6190  0.3606
17093TIP3   OH272693   3.255   4.430   5.144 -0.0961 -0.5342  0.9983
17093TIP3    H172694   3.228   4.423   5.053 -0.8878 -0.9069  1.2575
17093TIP3    H272695   3.328   4.368   5.152 -0.1852 -0.6801  0.6838
17094TIP3   OH272696   0.654   0.314   4.982 -0.5666  0.2572 -0.0681
17094TIP3    H172697   0.664   0.409   4.982 -1.4737  0.3559 -0.2806
17094TIP3    H272698   0.661   0.289   5.074 -0.4346  0.5407 -0.0019
17095TIP3   OH272699   6.204   2.705  15.979 -0.5205 -1.0051 -0.3284
17095TIP3    H172700   6.172   2.794  15.963 -2.4623 -1.6862 -0.3471
17095TIP3    H272701   6.222   2.670  15.892  1.0021 -0.3931 -0.2873
17096TIP3   OH272702   3.775   6.356   3.649  0.2502  0.4595  0.1943
17096TIP3    H172703   3.739   6.444   3.660 -0.1711  0.0018  2.8276
17096TIP3    H272704   3.860   6.370   3.607 -0.7152  1.9466 -1.3431
17097TIP3   OH272705   4.138   6.768   2.214  0.0993 -0.0395  0.1040
17097TIP3    H172706   4.078   6.695   2.200  0.5537 -0.1594 -1.2662
17097TIP3    H272707   4.127   6.823   2.137  0.3025  0.9559  0.7821
17098TIP3   OH272708   1.050   2.331  16.112  0.5307  0.6595  0.0550
17098TIP3    H172709   1.070   2.345  16.020 -1.4954 -1.1722 -0.7172
17098TIP3    H272710   1.073   2.240  16.128 -3.4616 -0.4140  0.0885
17099TIP3   OH272711   1.478   2.580  16.355  0.0837  0.8165  0.1520
17099TIP3    H172712   1.412   2.512  16.348  1.1787 -0.2306 -0.0045
17099TIP3    H272713   1.449   2.648  16.294 -1.0620  0.5548  0.3925
17100TIP3   OH272714   5.225   1.284  12.362 -0.0624 -0.3716 -0.7233
17100TIP3    H172715   5.219   1.193  12.390 -0.7063 -0.5034 -1.2898
17100TIP3    H272716   5.194   1.285  12.272  0.2088  0.3644 -0.8176
17101TIP3   OH272717   1.303   0.690   1.489 -0.2539  0.0007 -0.5142
17101TIP3    H172718   1.240   0.655   1.426 -0.2331 -0.7626 -0.1189
17101TIP3    H272719   1.291   0.636   1.567 -1.7900  2.3083  0.9050
17102TIP3   OH272720   0.472   3.241  13.208 -0.6442 -0.3885 -0.4315
17102TIP3    H172721   0.478   3.196  13.292 -1.0349 -1.4916 -0.9947
17102TIP3    H272722   0.560   3.233  13.170  0.5222  3.0477  1.3445
17103TIP3   OH272723   0.545   6.084  13.081 -0.0170 -0.0362  0.4182
17103TIP3    H172724   0.538   6.106  13.174 -0.1269 -1.0297  0.6509
17103TIP3    H272725   0.530   5.990  13.077  0.2518 -0.0469 -0.5795
17104TIP3   OH272726   5.975   3.391   4.098  0.0094  0.0591 -0.3406
17104TIP3    H172727   5.892   3.344   4.098 -0.1678  0.3496 -1.5653
17104TIP3    H272728   5.960   3.467   4.041  0.4468  1.3216  1.1733
17105TIP3   OH272729   3.969   4.400   0.750 -0.3072  0.3107 -0.2128
17105TIP3    H172730   3.983   4.442   0.665 -0.8003  0.8887 -0.0076
17105TIP3    H272731   3.893   4.343   0.737 -0.3234  0.3249 -0.1783
17106TIP3   OH272732   6.684   4.663  14.811 -0.4296  0.3471  0.4811
17106TIP3    H172733   6.746   4.603  14.769 -0.6176  0.8457 -0.5371
17106TIP3    H272734   6.656   4.617  14.890  0.1122 -0.5141  0.1842
17107TIP3   OH272735   1.699   0.834   2.984 -0.1582 -0.2140  0.0597
17107TIP3    H172736   1.702   0.928   3.002 -1.3319  0.1624 -1.6257
17107TIP3    H272737   1.696   0.793   3.071  1.5809  1.2304  0.8377
17108TIP3   OH272738   4.306   2.648   1.986  0.4233  0.3479  0.0559
17108TIP3    H172739   4.226   2.662   2.038  1.1752 -0.7643  1.5549
17108TIP3    H272740   4.276   2.600   1.909 -0.3289 -0.3029  0.7435
17109TIP3   OH272741   3.751   6.385   0.110 -0.3616  0.6396 -0.5099
17109TIP3    H172742   3.813   6.457   0.117 -0.9698  1.1479 -0.2300
17109TIP3    H272743   3.681   6.419   0.054  0.8750 -0.8404 -3.0644
17110TIP3   OH272744   3.422   3.149  11.230 -0.7909 -0.3136 -0.3255
17110TIP3    H172745   3.452   3.237  11.253 -0.9140 -0.9922  2.6790
17110TIP3    H272746   3.423   3.147  11.135  2.9956  1.6865 -0.4317
17111TIP3   OH272747   1.607   0.255  10.874  0.4659  0.0227 -0.0383
17111TIP3    H172748   1.521   0.283  10.905  0.8390  1.2337 -0.0711
17111TIP3    H272749   1.658   0.336  10.870  1.5650 -0.6705 -0.1462
17112TIP3   OH272750   6.322   5.754  12.638  0.0553 -0.1166 -0.1044
17112TIP3    H172751   6.396   5.759  12.699 -0.6775 -1.2695  0.9018
17112TIP3    H272752   6.363   5.759  12.551  1.1834  0.6632  0.4539
17113TIP3   OH272753   4.900   0.321   1.133  0.1628  0.7346  0.3877
17113TIP3    H172754   4.825   0.379   1.124 -0.2739  0.3115  1.2252
17113TIP3    H272755   4.876   0.241   1.087 -0.1221  0.3969  1.1152
17114TIP3   OH272756   0.881   1.558  14.280 -0.0797 -0.0463  0.7895
17114TIP3    H172757   0.839   1.529  14.199  1.3595 -1.2105  0.4441
17114TIP3    H272758   0.847   1.498  14.347  2.6661 -2.4500  0.1257
17115TIP3   OH272759   6.663   6.688   3.468 -0.1835  0.1383 -0.2832
17115TIP3    H172760   6.690   6.679   3.560  0.2014  1.3011 -0.2706
17115TIP3    H272761   6.597   6.756   3.469  1.4914  1.8381 -1.1606
17116TIP3   OH272762   6.707   2.504   0.651  0.2635 -0.1760 -0.3812
17116TIP3    H172763   6.684   2.416   0.621  1.9629 -1.0909  0.8957
17116TIP3    H272764   6.711   2.556   0.571 -2.1997 -0.8890 -1.0128
17117TIP3   OH272765   2.940   6.610  15.325 -0.4236  0.7296  0.1882
17117TIP3    H172766   2.871   6.677  15.328 -0.3294  0.9386 -1.4965
17117TIP3    H272767   2.892   6.528  15.313 -0.4319  0.7739 -0.0905
17118TIP3   OH272768   2.366   5.076   4.246 -0.1292  0.1450 -0.1040
17118TIP3    H172769   2.409   5.154   4.212 -1.8672  2.1832  2.1734
17118TIP3    H272770   2.313   5.043   4.173  2.4529 -0.3138 -1.8079
17119TIP3   OH272771   5.740   0.348  16.769  0.0221  0.5238 -0.0103
17119TIP3    H172772   5.696   0.422  16.728  0.5153  0.3420 -0.8755
17119TIP3    H272773   5.683   0.323  16.842  0.4804  2.5579  1.0730
17120TIP3   OH272774   6.411   1.637   0.246  0.0946 -0.5347  0.7152
17120TIP3    H172775   6.444   1.565   0.192  0.5158 -0.0023  0.2530
17120TIP3    H272776   6.388   1.705   0.182 -1.6973 -0.8031  1.0278
17121TIP3   OH272777   2.630   4.756   0.319 -0.5850  0.2680 -0.3317
17121TIP3    H172778   2.645   4.746   0.413 -2.7525 -0.1636 -0.0137
17121TIP3    H272779   2.597   4.845   0.308 -5.2324 -1.2912  0.0199
17122TIP3   OH272780   1.450   4.382  11.679  0.2743  0.0660  0.3605
17122TIP3    H172781   1.544   4.375  11.661  0.2461 -0.8582  0.5422
17122TIP3    H272782   1.420   4.291  11.684 -0.6170  0.3604  0.3752
17123TIP3   OH272783   5.709   0.763   4.964 -0.5067 -0.2563 -0.1001
17123TIP3    H172784   5.615   0.767   4.943 -0.4756 -0.4541 -0.2749
17123TIP3    H272785   5.736   0.675   4.937 -0.4401 -0.4719  0.6633
17124TIP3   OH272786   6.517   2.768  14.379  0.0874 -0.5216 -0.2438
17124TIP3    H172787   6.424   2.792  14.386  0.4595  0.7308  0.4921
17124TIP3    H272788   6.530   2.754  14.285 -0.6204  0.2465 -0.4645
17125TIP3   OH272789   6.035   4.041  11.442 -0.1390  0.4066  0.0827
17125TIP3    H172790   6.080   4.103  11.384 -1.4263 -0.0951 -1.5107
17125TIP3    H272791   6.094   4.031  11.517  1.8834  0.6016 -1.4164
17126TIP3   OH272792   0.633   5.735  11.759  0.4039 -0.0758 -0.4563
17126TIP3    H172793   0.576   5.700  11.827  1.4979 -0.5369  0.2225
17126TIP3    H272794   0.660   5.659  11.709  1.0252  0.0568 -0.3236
17127TIP3   OH272795   2.855   0.477  12.663 -0.5114  0.3464 -0.4235
17127TIP3    H172796   2.842   0.462  12.570  0.0527 -0.4643 -0.3787
17127TIP3    H272797   2.777   0.440  12.705 -0.4809  0.1544 -0.5351
17128TIP3   OH272798   6.217   6.154  10.723 -0.0188 -0.0562 -0.0922
17128TIP3    H172799   6.159   6.101  10.778 -0.0256 -0.1894 -0.2246
17128TIP3    H272800   6.303   6.112  10.732  0.1570  0.4131  0.4604
17129TIP3   OH272801   3.538   3.848   1.735  0.0529 -0.1799 -0.1516
17129TIP3    H172802   3.594   3.846   1.813  0.8509  0.7758 -0.6878
17129TIP3    H272803   3.508   3.938   1.729 -2.6051 -0.9397  0.8381
17130TIP3   OH272804   1.749   3.825  13.042 -0.8391 -0.4925 -0.3501
17130TIP3    H172805   1.706   3.807  13.125 -1.0840 -1.9819 -0.7761
17130TIP3    H272806   1.842   3.825  13.062 -0.8749 -1.3785 -0.1637
17131TIP3   OH272807   2.508   1.493   0.600 -0.1060 -0.3542 -0.4045
17131TIP3    H172808   2.550   1.537   0.673  1.3460 -1.3089 -0.6300
17131TIP3    H272809   2.414   1.497   0.619  0.1221  1.2826  0.4174
17132TIP3   OH272810   1.244   2.139  16.805 -0.3021  0.4549 -0.4841
17132TIP3    H172811   1.259   2.210  16.867  0.6769 -0.4794  0.3781
17132TIP3    H272812   1.233   2.182  16.720 -2.2755  1.7975  0.4114
17133TIP3   OH272813   6.558   6.444  14.184 -0.5803 -0.5239  0.2918
17133TIP3    H172814   6.593   6.437  14.096  0.2603 -0.0163  0.5777
17133TIP3    H272815   6.463   6.442  14.172 -0.5444  2.0825 -0.8875
17134TIP3   OH272816   1.267   3.113   1.026  0.3812  0.4139 -0.0124
17134TIP3    H172817   1.296   3.022   1.029  0.2452  0.3889  0.6321
17134TIP3    H272818   1.213   3.119   0.948  1.4128  0.2453 -0.7539
17135TIP3   OH272819   3.609   2.421  14.217 -0.4325  0.1316 -0.2317
17135TIP3    H172820   3.570   2.503  14.248  1.9306  0.5807  1.6538
17135TIP3    H272821   3.613   2.432  14.122 -1.4286  1.6071 -0.1351
17136TIP3   OH272822   5.016   6.304  16.817 -0.2175 -0.2184  0.0842
17136TIP3    H172823   5.045   6.256  16.895  0.4084 -1.3273 -0.8198
17136TIP3    H272824   5.067   6.384  16.818  0.9231 -0.9361 -0.0234
17137TIP3   OH272825   4.926   4.483   3.423 -0.2223  0.6290 -0.2130
17137TIP3    H172826   4.890   4.506   3.509  1.5311  0.2076  0.6532
17137TIP3    H272827   4.929   4.388   3.422  1.1755  0.6683 -0.1462
17138TIP3   OH272828   1.530   2.688  12.069  0.3752 -0.0043 -0.8441
17138TIP3    H172829   1.466   2.756  12.089  0.7037  0.1604 -0.3521
17138TIP3    H272830   1.490   2.608  12.103  0.8429  0.2435  0.3288
17139TIP3   OH272831   2.971   3.013  10.200 -0.2503  0.2432 -0.4572
17139TIP3    H172832   3.022   3.088  10.231  0.2540 -0.5123  0.5781
17139TIP3    H272833   2.922   2.984  10.277  0.7723 -1.4798 -0.4404
17140TIP3   OH272834   4.506   2.819  10.577  0.0999 -0.0574  0.1962
17140TIP3    H172835   4.551   2.741  10.545  0.3553  0.4942 -0.7964
17140TIP3    H272836   4.575   2.885  10.586 -0.0354 -0.0736  1.4851
17141TIP3   OH272837   5.525   4.964   5.276  0.2372  0.7868  0.7247
17141TIP3    H172838   5.469   4.889   5.296  0.9816  0.5601  2.1040
17141TIP3    H272839   5.589   4.965   5.348  0.4288  2.5510  0.5489
17142TIP3   OH272840   3.582   1.332   2.902 -0.5151 -0.5644  0.0681
17142TIP3    H172841   3.532   1.388   2.843  2.3102  0.7565 -1.2079
17142TIP3    H272842   3.589   1.248   2.856  0.6058  0.0686 -0.9570
17143TIP3   OH272843   0.949   1.851  16.321  0.0418  0.0836 -0.4180
17143TIP3    H172844   0.871   1.796  16.325 -0.9510  1.4353 -0.8595
17143TIP3    H272845   0.957   1.875  16.229  0.6636  0.4055 -0.2817
17144TIP3   OH272846   6.203   2.168  12.341 -0.3732 -0.3740 -0.3897
17144TIP3    H172847   6.115   2.201  12.356  0.3220  1.6652 -0.7223
17144TIP3    H272848   6.256   2.209  12.408  0.2193 -2.1916  0.2957
17145TIP3   OH272849   6.202   0.435  11.278  0.5618  0.0640 -0.1644
17145TIP3    H172850   6.292   0.413  11.256  0.2213 -1.1981 -0.3323
17145TIP3    H272851   6.157   0.439  11.194  0.1260 -0.8627  0.0190
17146TIP3   OH272852   2.389   2.911  12.892 -0.5471 -0.1558  0.4855
17146TIP3    H172853   2.408   2.981  12.955  2.2519  0.2040 -0.6702
17146TIP3    H272854   2.432   2.834  12.929 -1.5913 -0.7117  0.5579
17147TIP3   OH272855   1.955   1.015  12.014  0.3221 -0.0193  0.2855
17147TIP3    H172856   2.003   0.942  12.053  0.2214 -0.0146  0.4176
17147TIP3    H272857   1.887   1.036  12.077  0.0716 -0.1020  0.0479
17148TIP3   OH272858   6.674   1.771   0.144 -0.1728 -0.0763  0.0071
17148TIP3    H172859   6.632   1.726   0.071 -2.1261  2.3864 -0.4667
17148TIP3    H272860   6.744   1.823   0.104 -0.6268  0.5336 -0.0029
17149TIP3   OH272861   3.419   4.414   1.024 -0.0800  0.2156 -0.2410
17149TIP3    H172862   3.385   4.485   0.968  0.0428  1.7595  1.5735
17149TIP3    H272863   3.392   4.439   1.112  1.8876 -0.8845  0.6983
17150TIP3   OH272864   2.459   4.636   1.056  0.2560  0.6573 -0.4933
17150TIP3    H172865   2.470   4.710   0.996 -0.8558  0.6877 -0.6601
17150TIP3    H272866   2.369   4.607   1.043  0.1742  0.3129  0.7749
17151TIP3   OH272867   0.506   2.619  16.841  0.5267  0.1132  0.5844
17151TIP3    H172868   0.479   2.618  16.933  0.7311 -0.5642  0.6389
17151TIP3    H272869   0.533   2.710  16.824 -1.6468  0.7866  0.5662
17152TIP3   OH272870   0.483   3.175  12.750 -0.7770 -0.1580  0.3260
17152TIP3    H172871   0.421   3.106  12.771 -0.7055  0.0563  1.2359
17152TIP3    H272872   0.456   3.206  12.663 -2.1645  0.1880  0.8720
17153TIP3   OH272873   4.488   5.631   3.860  0.0563 -0.1566  0.4332
17153TIP3    H172874   4.513   5.714   3.899  0.6340 -0.0695 -0.1171
17153TIP3    H272875   4.396   5.643   3.835  0.2570  0.4631 -0.0271
17154TIP3   OH272876   1.900   0.429  16.324  0.0870  0.1496  0.1115
17154TIP3    H172877   1.825   0.415  16.381 -1.0857  0.4264 -1.3360
17154TIP3    H272878   1.969   0.374  16.361 -1.1857 -1.0530  0.7373
17155TIP3   OH272879   1.172   0.123  16.951 -0.6906 -0.1405  0.2177
17155TIP3    H172880   1.253   0.076  16.971  0.1166  2.6431  4.2225
17155TIP3    H272881   1.181   0.148  16.859  2.2140 -1.3719  0.1064
17156TIP3   OH272882   2.790   5.937  14.653 -0.0322  0.3583 -0.2301
17156TIP3    H172883   2.742   6.018  14.670  0.2639  0.3849  0.5044
17156TIP3    H272884   2.722   5.872  14.635 -0.2960  0.6472 -0.2878
17157TIP3   OH272885   5.483   4.019   0.786 -0.3856 -0.3803 -0.7033
17157TIP3    H172886   5.411   4.076   0.813 -0.9860 -1.1453 -0.6576
17157TIP3    H272887   5.447   3.930   0.794  0.3830 -0.7425 -1.2117
17158TIP3   OH272888   0.699   6.463   6.350 -0.1572 -0.3910  0.4081
17158TIP3    H172889   0.699   6.522   6.426  0.0694 -0.6780  0.6375
17158TIP3    H272890   0.693   6.376   6.389  0.2494 -0.5541  0.1107
17159TIP3   OH272891   3.945   6.117   4.267 -0.5563 -0.1126  0.0961
17159TIP3    H172892   3.888   6.119   4.344  0.1021  0.6078  0.5784
17159TIP3    H272893   3.891   6.152   4.196 -1.3121 -1.2152  0.1173
17160TIP3   OH272894   0.007   3.456   2.474 -0.0491  0.2417 -0.2251
17160TIP3    H172895   0.061   3.493   2.404  0.4374  0.2381  0.1520
17160TIP3    H272896   0.068   3.409   2.530 -0.2996  1.0051  0.7096
17161TIP3   OH272897   3.612   4.343  15.298  0.1473  0.5228  0.2635
17161TIP3    H172898   3.655   4.260  15.277  1.0667  0.7956  1.0089
17161TIP3    H272899   3.528   4.318  15.336  0.0934 -0.0475 -0.2265
17162TIP3   OH272900   6.646   3.003  16.338  0.4053  0.0982 -0.2470
17162TIP3    H172901   6.596   3.084  16.353 -1.3617 -1.1334  0.6787
17162TIP3    H272902   6.632   2.984  16.246  0.1363  0.3946 -0.2703
17163TIP3   OH272903   0.449   1.423   5.220  0.3905 -0.0809  0.6388
17163TIP3    H172904   0.364   1.454   5.190  0.2049  0.2592  1.4990
17163TIP3    H272905   0.460   1.462   5.307  0.8321 -1.1989  1.0949
17164TIP3   OH272906   3.142   1.470   2.001 -0.7739  0.4780 -0.1023
17164TIP3    H172907   3.170   1.432   2.084  0.1445  1.4166  0.0354
17164TIP3    H272908   3.051   1.496   2.015 -1.1194 -0.8303  0.0873
17165TIP3   OH272909   4.802   0.297   4.685 -0.0904  0.0861 -0.2499
17165TIP3    H172910   4.803   0.215   4.636 -0.1524  0.1810 -0.4103
17165TIP3    H272911   4.840   0.274   4.770 -2.6798 -0.7385  0.7365
17166TIP3   OH272912   4.229   5.905  16.392 -0.3751  0.0264 -0.4317
17166TIP3    H172913   4.300   5.919  16.330  1.4915  0.9432  1.8457
17166TIP3    H272914   4.225   5.810  16.403  0.1710 -0.0550 -0.9136
17167TIP3   OH272915   3.905   3.801   5.963 -0.1918  0.0260  0.1708
17167TIP3    H172916   3.834   3.748   5.927 -0.5262  0.5332  0.0892
17167TIP3    H272917   3.933   3.857   5.890 -0.2348  0.3832  0.4287
17168TIP3   OH272918   3.652   3.880   0.830  0.9688  0.3408 -0.3549
17168TIP3    H172919   3.589   3.922   0.772 -0.5996 -0.7215  0.5298
17168TIP3    H272920   3.688   3.951   0.882  0.0911  0.9115 -0.5157
17169TIP3   OH272921   3.090   2.311  14.492 -0.0302 -0.2729 -0.3044
17169TIP3    H172922   3.181   2.281  14.501  0.1502  0.2256 -0.4208
17169TIP3    H272923   3.081   2.380  14.558 -0.4315 -0.5578 -0.0599
17170TIP3   OH272924   4.961   5.620  11.871  0.3076  0.6102  0.1014
17170TIP3    H172925   4.983   5.652  11.783 -0.5690  1.5332  0.2166
17170TIP3    H272926   5.020   5.669  11.929  2.7260 -1.8475 -0.1496
17171TIP3   OH272927   4.850   3.620   4.616  0.0991 -0.2128 -0.0433
17171TIP3    H172928   4.783   3.623   4.548  0.8522 -0.4004 -0.7988
17171TIP3    H272929   4.882   3.530   4.614  0.5356 -0.0600  0.1607
17172TIP3   OH272930   6.718   1.421  11.320 -0.0370 -0.3538  0.1462
17172TIP3    H172931   6.694   1.347  11.264  0.6578  1.7653 -3.0961
17172TIP3    H272932   6.783   1.469  11.269 -0.5491  2.5618  2.1406
17173TIP3   OH272933   0.291   0.972  15.886  0.0517  0.3303  0.3412
17173TIP3    H172934   0.331   0.980  15.972  0.4035 -0.3942  0.2474
17173TIP3    H272935   0.320   1.049  15.838  1.9803 -0.5900  0.0092
17174TIP3   OH272936   3.485   3.465   1.481  0.1739 -0.1987  0.5198
17174TIP3    H172937   3.393   3.437   1.483  0.5904 -1.6900 -0.0364
17174TIP3    H272938   3.483   3.552   1.442 -0.8679 -0.8600 -0.9664
17175TIP3   OH272939   3.347   5.288  15.601  0.7092  0.6582  0.1712
17175TIP3    H172940   3.420   5.331  15.557  0.4489 -0.4899 -1.4260
17175TIP3    H272941   3.369   5.194  15.598 -0.4566  0.3667  0.3312
17176TIP3   OH272942   1.292   1.340  15.305  1.1846  0.4532 -0.2810
17176TIP3    H172943   1.337   1.256  15.314  0.7674  0.3804  1.2417
17176TIP3    H272944   1.254   1.337  15.217 -0.8308 -1.9707  0.5718
17177TIP3   OH272945   4.036   2.643  12.864  0.7547  0.1745 -0.3372
17177TIP3    H172946   4.107   2.624  12.803  0.7083  1.9321 -0.9717
17177TIP3    H272947   4.036   2.738  12.872 -0.9823  0.1351  0.3224
17178TIP3   OH272948   1.563   0.020  15.580 -0.4936  0.7275 -0.2359
17178TIP3    H172949   1.548  -0.020  15.495  0.8694 -0.7343  0.1770
17178TIP3    H272950   1.491  -0.012  15.635 -1.7815  2.2469 -0.9982
17179TIP3   OH272951   6.699   5.365   4.671 -0.3209  0.3822  0.2816
17179TIP3    H172952   6.775   5.387   4.618 -0.1756  2.8259  1.4343
17179TIP3    H272953   6.631   5.427   4.643 -1.8856 -1.7407 -0.7104
17180TIP3   OH272954   1.537   3.576  12.614 -0.2756 -0.3156  0.0680
17180TIP3    H172955   1.508   3.591  12.704 -0.5395 -1.6956  0.2272
17180TIP3    H272956   1.543   3.663  12.576 -0.4459  0.2647  1.3355
17181TIP3   OH272957   2.726   6.740   1.044  0.0612  0.6573  0.4139
17181TIP3    H172958   2.681   6.815   1.082 -0.9644  0.7298 -0.9328
17181TIP3    H272959   2.815   6.745   1.080  0.1049  2.6944  0.0962
17182TIP3   OH272960   1.195   3.696   1.205  0.2481 -0.0015 -0.4831
17182TIP3    H172961   1.281   3.662   1.230 -0.5253 -0.3995  1.8184
17182TIP3    H272962   1.210   3.789   1.189  0.5121  0.7590  3.5909
17183TIP3   OH272963   1.086   6.449   3.427  0.4877  0.2237  0.4839
17183TIP3    H172964   1.006   6.403   3.449  0.5054 -0.1271 -0.1701
17183TIP3    H272965   1.057   6.525   3.376  0.5599  0.1611  0.3475
17184TIP3   OH272966   0.263   4.103   1.925 -0.5583 -0.7622  0.2251
17184TIP3    H172967   0.279   4.193   1.895  0.8513 -1.3466 -0.8392
17184TIP3    H272968   0.184   4.109   1.978 -1.1743  0.8979 -0.8454
17185TIP3   OH272969   2.648   3.068   0.942  0.4810 -0.1616 -0.5984
17185TIP3    H172970   2.599   3.143   0.909  1.9787  1.1556  0.1372
17185TIP3    H272971   2.610   2.993   0.896 -3.2816  0.6065  1.0591
17186TIP3   OH272972   3.661   1.480  12.467  0.4077  0.8937 -0.2512
17186TIP3    H172973   3.652   1.575  12.475  1.2596  0.7986  1.9929
17186TIP3    H272974   3.741   1.459  12.514  0.3755 -0.9234 -0.9677
17187TIP3   OH272975   5.464   5.218  15.168 -0.1755 -0.1242  0.7309
17187TIP3    H172976   5.471   5.222  15.264 -0.7015 -3.9858  1.0119
17187TIP3    H272977   5.412   5.139  15.151  0.1469  0.3369 -2.7698
17188TIP3   OH272978   5.180   0.503  11.098  0.0330  0.5265  0.5978
17188TIP3    H172979   5.257   0.457  11.134  0.5555  0.9495  0.0357
17188TIP3    H272980   5.105   0.453  11.130  0.5948 -0.7567 -0.0373
17189TIP3   OH272981   3.829   5.041   4.681 -0.1104 -0.1877 -0.2234
17189TIP3    H172982   3.921   5.065   4.677 -0.6161  1.6309 -1.7168
17189TIP3    H272983   3.783   5.123   4.700 -1.5075 -0.8728 -0.5445
17190TIP3   OH272984   3.683   5.562  13.585  0.1375 -0.4215  0.0391
17190TIP3    H172985   3.623   5.528  13.520  0.1303 -0.8981  0.2953
17190TIP3    H272986   3.770   5.543  13.550  0.1332 -1.5588  0.6259
17191TIP3   OH272987   1.932   6.758  16.289  0.1328  0.2224  0.3979
17191TIP3    H172988   1.981   6.790  16.365  0.5858  1.6205 -0.4641
17191TIP3    H272989   1.898   6.673  16.316  0.2929  0.7099  2.1649
17192TIP3   OH272990   3.303   1.619   4.208 -0.0999 -1.0146  0.2099
17192TIP3    H172991   3.338   1.631   4.296  0.2269 -0.6539  0.0374
17192TIP3    H272992   3.316   1.526   4.189 -0.2374 -1.1068  0.5702
17193TIP3   OH272993   5.172   2.941   6.082  0.0413 -0.6942 -0.3348
17193TIP3    H172994   5.113   2.895   6.142  0.4281 -0.3269  0.3314
17193TIP3    H272995   5.118   3.009   6.042 -1.0096 -2.7815 -2.6387
17194TIP3   OH272996   2.109   0.430   4.797 -0.4236 -0.2168  0.1024
17194TIP3    H172997   2.140   0.485   4.869  0.8009 -1.4234  0.5162
17194TIP3    H272998   2.041   0.482   4.755 -1.1425  0.5195  2.1168
17195TIP3   OH272999   3.247   0.558   2.952  0.3611 -0.3364 -0.1708
17195TIP3    H173000   3.318   0.523   2.899  1.1843 -0.6613  1.1307
17195TIP3    H273001   3.290   0.599   3.027 -0.8670 -1.5293  1.2145
17196TIP3   OH273002   0.233   5.110   1.609  0.8067  0.3550  0.5566
17196TIP3    H173003   0.268   5.113   1.699 -0.7380  0.9611  1.1590
17196TIP3    H273004   0.139   5.102   1.621  0.6340 -0.0314 -1.0353
17197TIP3   OH273005   0.615   1.054   3.297 -0.1491 -0.0870 -0.4690
17197TIP3    H173006   0.551   1.118   3.268  0.3948 -0.1493 -1.8210
17197TIP3    H273007   0.698   1.102   3.302 -0.3467  0.0896  1.6435
17198TIP3   OH273008   2.763   1.368  12.191 -0.5411 -0.2174  0.1600
17198TIP3    H173009   2.713   1.447  12.172 -0.0144 -0.1875 -1.1255
17198TIP3    H273010   2.700   1.311  12.236 -1.4059  0.2758 -0.3982
17199TIP3   OH273011   2.212   2.178  14.608  0.3141  0.6671  0.3991
17199TIP3    H173012   2.263   2.200  14.686 -0.6124  1.7360  0.7019
17199TIP3    H273013   2.148   2.248  14.600 -0.8150 -0.4203 -0.2500
17200TIP3   OH273014   3.520   5.019  14.553  0.5898 -0.2374 -0.3477
17200TIP3    H173015   3.488   4.958  14.620 -0.2863  1.1895  0.5437
17200TIP3    H273016   3.555   5.093  14.602  1.8118 -0.0800 -1.4207
17201TIP3   OH273017   0.278   0.126  12.619 -0.7967 -0.1899 -0.1143
17201TIP3    H173018   0.266   0.081  12.702  0.7754 -1.6114 -0.6301
17201TIP3    H273019   0.263   0.059  12.552 -0.5106  0.5551 -0.9404
17202TIP3   OH273020   2.080   5.542  16.673 -0.0036  0.1479 -0.3154
17202TIP3    H173021   2.117   5.590  16.748 -0.5231 -0.6310  0.4543
17202TIP3    H273022   2.137   5.466  16.664  1.9323  1.7879 -2.6945
17203TIP3   OH273023   5.104   3.682   4.786 -0.0062 -0.1063 -0.0194
17203TIP3    H173024   5.031   3.641   4.739 -0.3632  0.9893 -0.4496
17203TIP3    H273025   5.068   3.765   4.816  0.7863  0.0059  0.6083
17204TIP3   OH273026   0.136   4.582   2.704 -0.4798 -0.1034 -0.0682
17204TIP3    H173027   0.136   4.597   2.799  1.9490  1.0592 -0.1932
17204TIP3    H273028   0.162   4.491   2.695 -0.1829 -0.0731  0.4056
17205TIP3   OH273029   3.458   3.695   5.337  0.8124 -0.4342 -0.1830
17205TIP3    H173030   3.412   3.632   5.393  0.6532 -0.0016  0.1829
17205TIP3    H273031   3.469   3.772   5.393 -1.5381  0.9244 -1.4997
17206TIP3   OH273032   0.677   3.503   2.729  0.2287  0.5773 -0.5666
17206TIP3    H173033   0.660   3.524   2.637  2.0548  0.2393 -1.0148
17206TIP3    H273034   0.592   3.479   2.764 -0.4493  0.3842 -2.2652
17207TIP3   OH273035   5.634   3.810  11.825  0.1342 -0.4828 -0.0554
17207TIP3    H173036   5.539   3.808  11.809 -0.1502 -1.0776  1.6559
17207TIP3    H273037   5.648   3.892  11.872  0.8234  0.7593 -2.3765
17208TIP3   OH273038   5.851   1.038  13.317  0.0769  0.3236 -0.4087
17208TIP3    H173039   5.835   0.944  13.324  0.0747  0.3777  0.3467
17208TIP3    H273040   5.924   1.055  13.376  0.9832  0.5734 -1.5719
17209TIP3   OH273041   1.225   6.278  12.757  0.0512 -0.1110 -0.3109
17209TIP3    H173042   1.210   6.291  12.851  1.2564 -0.8732 -0.0061
17209TIP3    H273043   1.320   6.280  12.747 -0.0500 -0.4424 -1.4575
17210TIP3   OH273044   3.197   5.905  11.783  0.4482  0.7697  0.0692
17210TIP3    H173045   3.187   5.999  11.774  0.8895  0.7045 -1.2061
17210TIP3    H273046   3.271   5.883  11.726  1.1481 -0.1668  1.3236
17211TIP3   OH273047   0.570   1.063  11.933  0.4273  0.3914  0.4421
17211TIP3    H173048   0.480   1.095  11.940  0.4866  0.3173  1.6436
17211TIP3    H273049   0.585   1.053  11.839 -0.8446  0.3332  0.2416
17212TIP3   OH273050   1.366   3.997  16.310  0.3014 -0.1973 -0.0775
17212TIP3    H173051   1.460   3.991  16.328  0.0306 -3.5620  0.6072
17212TIP3    H273052   1.325   3.947  16.380 -1.7985 -1.1062 -1.8962
17213TIP3   OH273053   1.003   5.673   4.748 -0.0396 -0.0628  0.1425
17213TIP3    H173054   1.066   5.722   4.801  1.7059  0.2762 -2.1559
17213TIP3    H273055   0.940   5.638   4.811  1.8256  0.5276  2.3884
17214TIP3   OH273056   0.624   4.227  12.632 -0.1721 -0.2290  0.1418
17214TIP3    H173057   0.684   4.299  12.652 -0.6345  0.0652  0.4583
17214TIP3    H273058   0.648   4.159  12.695  0.6798 -0.5885 -0.5591
17215TIP3   OH273059   2.827   2.276   1.309 -0.3464 -0.3384 -0.1049
17215TIP3    H173060   2.865   2.287   1.396 -0.4600 -3.4997  0.4045
17215TIP3    H273061   2.741   2.317   1.315 -0.6714 -1.2343  1.5406
17216TIP3   OH273062   5.040   0.376   1.637  0.4960 -0.1749 -0.6504
17216TIP3    H173063   5.135   0.382   1.647  0.4508  1.4065 -1.0585
17216TIP3    H273064   5.007   0.384   1.726  0.7043  0.0468 -0.5925
17217TIP3   OH273065   4.233   2.152  14.121  0.1207  0.2247  0.2268
17217TIP3    H173066   4.223   2.057  14.123 -0.7933  0.2857 -0.8486
17217TIP3    H273067   4.176   2.183  14.191 -0.1543  0.0161  0.0995
17218TIP3   OH273068   3.993   5.877  15.047 -0.3961 -0.1854 -0.5328
17218TIP3    H173069   3.950   5.816  14.987 -0.0505 -0.3957 -0.5735
17218TIP3    H273070   3.978   5.963  15.009 -1.5213 -0.1761 -0.0826
17219TIP3   OH273071   1.215   1.388  12.531 -0.5056 -0.1352  0.0685
17219TIP3    H173072   1.178   1.472  12.504  1.3307  0.7919  0.3440
17219TIP3    H273073   1.181   1.375  12.620 -1.1003  0.1068 -0.1165
17220TIP3   OH273074   4.426   4.206  14.147 -0.5807  0.3623 -0.9663
17220TIP3    H173075   4.494   4.167  14.202  0.5554  0.4501 -2.3058
17220TIP3    H273076   4.346   4.200  14.200 -0.0085 -1.8857 -0.3196
17221TIP3   OH273077   5.002   0.612   5.226 -0.2763 -0.2169  0.1725
17221TIP3    H173078   5.029   0.603   5.317 -0.5431 -1.1804  0.1627
17221TIP3    H273079   4.921   0.662   5.229 -1.0455 -1.4651  0.5822
17222TIP3   OH273080   5.631   4.276  11.646 -0.2699 -0.0850 -0.7766
17222TIP3    H173081   5.660   4.209  11.584  1.6928 -1.1632  1.2290
17222TIP3    H273082   5.711   4.324  11.667 -0.4953 -0.9843  2.3465
17223TIP3   OH273083   5.238   4.591  13.450  0.5473 -0.2860 -0.4589
17223TIP3    H173084   5.277   4.552  13.371  0.5519 -1.4329  0.0931
17223TIP3    H273085   5.163   4.535  13.470  2.4437 -2.0145  2.2110
17224TIP3   OH273086   4.851   0.254  16.878 -0.4371  0.6242 -0.1989
17224TIP3    H173087   4.916   0.202  16.831 -0.2373  0.2919  0.4374
17224TIP3    H273088   4.822   0.319  16.814 -0.5419 -0.1389 -0.9321
17225TIP3   OH273089   3.825   0.358   2.059  0.2395 -0.2129  0.0272
17225TIP3    H173090   3.892   0.363   1.990 -0.7284  0.7474 -0.8690
17225TIP3    H273091   3.774   0.280   2.038 -1.0909  0.9951 -1.3323
17226TIP3   OH273092   1.703   6.090  12.899 -0.5778 -0.3289  0.7696
17226TIP3    H173093   1.640   6.123  12.963  0.9032  2.4133  0.9076
17226TIP3    H273094   1.650   6.052  12.829 -2.3186  0.7166  1.5086
17227TIP3   OH273095   1.724   5.191  10.993  0.6252  0.3162 -0.3513
17227TIP3    H173096   1.669   5.180  10.915 -0.7934  1.2411  0.4957
17227TIP3    H273097   1.810   5.156  10.967  0.0346  0.1496 -2.1542
17228TIP3   OH273098   1.879   5.756   4.113  0.0493  0.3905  0.9419
17228TIP3    H173099   1.829   5.764   4.194  0.7537  1.1821  1.3117
17228TIP3    H273100   1.920   5.842   4.102  1.2403 -0.2086  0.5984
17229TIP3   OH273101   2.843   3.012   2.625 -0.1377 -0.0402 -0.6190
17229TIP3    H173102   2.883   3.057   2.550 -0.5418  1.4242  0.0329
17229TIP3    H273103   2.903   3.030   2.697 -0.2329 -0.6795 -0.3818
17230TIP3   OH273104   2.269   4.359   4.064 -0.5330  0.2812 -0.4401
17230TIP3    H173105   2.323   4.435   4.088  0.5757 -0.0698 -1.7660
17230TIP3    H273106   2.189   4.396   4.027  0.9489  0.8225 -3.1558
17231TIP3   OH273107   0.950   5.080  15.547 -0.0706  0.6919 -0.3659
17231TIP3    H173108   1.003   5.141  15.600 -1.8839  0.9651  1.1932
17231TIP3    H273109   0.956   4.997  15.594 -0.3604  0.5216 -0.6358
17232TIP3   OH273110   3.604   3.010   3.736 -0.1613 -0.0706 -0.1194
17232TIP3    H173111   3.646   2.968   3.661  0.8791  0.4314  0.1814
17232TIP3    H273112   3.529   3.057   3.698 -1.1960 -1.9759 -0.4909
17233TIP3   OH273113   1.652   5.343  13.814  0.5287 -0.0963  0.0047
17233TIP3    H173114   1.574   5.347  13.870  1.3825 -0.6992  1.2481
17233TIP3    H273115   1.619   5.310  13.731 -0.8645  1.3744 -0.0608
17234TIP3   OH273116   1.392   0.596  16.675 -0.5304 -0.7416  0.1989
17234TIP3    H173117   1.376   0.681  16.633 -1.1405 -1.1320 -0.3574
17234TIP3    H273118   1.425   0.619  16.762  2.4982  0.1208 -1.0787
17235TIP3   OH273119   5.501   3.297   4.201  0.4300 -0.2548 -0.1081
17235TIP3    H173120   5.519   3.390   4.195  1.2338 -0.4691 -1.1908
17235TIP3    H273121   5.439   3.289   4.274  1.4432  0.9604  0.9047
17236TIP3   OH273122   2.337   5.640   2.633  0.2283  0.1177 -0.9576
17236TIP3    H173123   2.245   5.614   2.643  0.5085 -0.3343  0.4727
17236TIP3    H273124   2.386   5.561   2.652  0.9495  0.5969 -0.8194
17237TIP3   OH273125   3.069   6.773   3.550  0.2296  0.0183 -0.2243
17237TIP3    H173126   3.125   6.796   3.475 -2.1452 -0.0875 -2.0946
17237TIP3    H273127   3.020   6.854   3.568  1.1037  0.1752  1.5349
17238TIP3   OH273128   6.533   0.870   6.041 -0.5387 -0.1929  0.6659
17238TIP3    H173129   6.601   0.831   6.095 -0.1311  0.0387  0.3262
17238TIP3    H273130   6.562   0.854   5.951 -0.3529  0.9002  0.5211
17239TIP3   OH273131   4.662   0.521  15.975 -0.4632  0.4738  0.3817
17239TIP3    H173132   4.749   0.487  15.994 -1.0982 -1.3739  0.0569
17239TIP3    H273133   4.643   0.491  15.886 -0.3596  3.1473 -0.6051
17240TIP3   OH273134   5.969   0.442   1.512 -0.1881 -0.1379  0.0861
17240TIP3    H173135   6.006   0.499   1.579 -0.7364  0.4175 -0.0878
17240TIP3    H273136   5.875   0.443   1.528 -0.1395 -1.6314  0.5881
17241TIP3   OH273137   2.548   5.347   1.433  0.1156  0.5767 -0.2935
17241TIP3    H173138   2.591   5.271   1.473  1.0698  0.9636 -0.5702
17241TIP3    H273139   2.492   5.310   1.365 -1.9869 -0.1447  1.7678
17242TIP3   OH273140   1.747   3.139  13.511 -0.7921 -0.0286  0.0759
17242TIP3    H173141   1.812   3.127  13.443  0.0223 -0.3164  0.8988
17242TIP3    H273142   1.789   3.196  13.576 -0.4593 -2.1431  1.7772
17243TIP3   OH273143   6.561   3.081  12.953 -0.1953  0.0582 -0.5791
17243TIP3    H173144   6.588   3.165  12.916  0.4066 -0.5109 -1.4290
17243TIP3    H273145   6.467   3.092  12.971  0.4500  1.8963  1.9977
17244TIP3   OH273146   6.188   2.293   2.154 -0.2508 -0.6591  0.2160
17244TIP3    H173147   6.197   2.302   2.059 -0.8123 -0.2295  0.2031
17244TIP3    H273148   6.248   2.359   2.189  0.1715 -1.0110  0.1679
17245TIP3   OH273149   1.902   6.646  17.155 -0.4526  0.0746  0.0134
17245TIP3    H173150   1.871   6.736  17.145  0.8470  0.4322 -0.8772
17245TIP3    H273151   1.995   6.650  17.133 -0.7711 -1.8243 -1.7832
17246TIP3   OH273152   5.167   3.524  16.663 -0.1142 -0.3742 -0.3674
17246TIP3    H173153   5.240   3.467  16.688  1.4992  1.7522 -0.0632
17246TIP3    H273154   5.098   3.504  16.726  0.5976 -1.6381  0.0356
17247TIP3   OH273155   6.550   6.587   4.172 -0.0227  0.5188  0.0354
17247TIP3    H173156   6.522   6.678   4.183  0.8801  0.7573  0.3723
17247TIP3    H273157   6.597   6.567   4.253  1.3363  0.3294 -0.7848
17248TIP3   OH273158   5.985   2.207   2.292 -0.1864 -0.3367  0.1137
17248TIP3    H173159   6.037   2.162   2.358  0.7303  0.6950  0.1147
17248TIP3    H273160   6.048   2.228   2.223 -0.7004  0.5136 -0.0992
17249TIP3   OH273161   5.199   5.788   6.421 -0.5368 -0.2192 -0.0380
17249TIP3    H173162   5.250   5.841   6.482  0.0234 -0.0905 -0.6075
17249TIP3    H273163   5.224   5.698   6.441  0.4342 -0.1197 -0.7610
17250TIP3   OH273164   4.572   5.235  11.533  0.2994 -0.7507 -0.3842
17250TIP3    H173165   4.568   5.141  11.517  2.1265 -1.0023  0.5380
17250TIP3    H273166   4.659   5.261  11.502  1.9685 -0.3448  4.2662
17251TIP3   OH273167   5.081   2.749   3.372 -0.5371  0.3872  0.5643
17251TIP3    H173168   5.051   2.688   3.439  0.4359 -0.2668  0.4256
17251TIP3    H273169   5.161   2.786   3.408 -0.2453  0.3582 -0.0427
17252TIP3   OH273170   1.030   4.833   4.249  0.1613 -0.4925  0.3223
17252TIP3    H173171   1.083   4.912   4.245 -0.2618 -0.1951  0.4703
17252TIP3    H273172   0.942   4.865   4.270 -0.2047 -0.9284 -0.5621
17253TIP3   OH273173   2.963   4.155  14.080  0.2790  0.0690  0.0950
17253TIP3    H173174   2.876   4.150  14.120  0.3228 -1.8599  0.0159
17253TIP3    H273175   3.015   4.091  14.129  1.8385  1.6801  0.5709
17254TIP3   OH273176   2.533   6.746   5.254  0.6431 -0.4661  0.0122
17254TIP3    H173177   2.560   6.798   5.179 -0.1660  0.7337  0.5330
17254TIP3    H273178   2.579   6.785   5.329 -0.4822 -0.0584  0.5045
17255TIP3   OH273179   5.943   6.354   0.357  0.6132  0.1705  0.1817
17255TIP3    H173180   6.017   6.298   0.337  0.5200  0.4955 -1.0812
17255TIP3    H273181   5.869   6.293   0.369  1.0155 -0.1319  1.1966
17256TIP3   OH273182   2.711   0.490   0.458  0.3556 -0.3686  0.0523
17256TIP3    H173183   2.733   0.489   0.552 -0.8744 -1.0705  0.3382
17256TIP3    H273184   2.616   0.501   0.456  0.0958 -2.6726 -1.0780
17257TIP3   OH273185   5.154   0.624   3.259  0.4318 -0.5398 -0.1269
17257TIP3    H173186   5.154   0.611   3.164 -0.7570  0.2468 -0.2380
17257TIP3    H273187   5.246   0.616   3.284  0.6592 -1.5061 -1.2364
17258TIP3   OH273188   4.799   3.029  16.676 -0.0730 -0.0855  0.1774
17258TIP3    H173189   4.708   3.015  16.647 -0.6749  0.4500  1.7417
17258TIP3    H273190   4.823   2.947  16.720 -0.2384  0.2311  0.8606
17259TIP3   OH273191   6.196   1.149   1.858  0.9485 -0.3163 -0.2394
17259TIP3    H173192   6.281   1.170   1.821  2.1590 -0.7731  2.1524
17259TIP3    H273193   6.189   1.206   1.935 -0.8044 -0.4361 -0.2911
17260TIP3   OH273194   5.007   2.646  12.804  0.1220 -0.2470 -0.6733
17260TIP3    H173195   5.092   2.690  12.794  0.1461 -0.5300 -1.7046
17260TIP3    H273196   4.947   2.717  12.828  0.9779 -0.3105  1.8322
17261TIP3   OH273197   4.910   3.492  12.775 -0.0447 -0.1560 -0.2464
17261TIP3    H173198   4.977   3.555  12.801  1.7319 -1.9065 -0.4099
17261TIP3    H273199   4.931   3.471  12.684 -0.5288 -1.0468 -0.1615
17262TIP3   OH273200   4.987   3.532   3.313  0.3537 -0.4757 -0.1541
17262TIP3    H173201   4.923   3.588   3.270  0.7514  1.3184  1.5733
17262TIP3    H273202   4.943   3.447   3.321 -1.3707  0.4157 -0.0308
17263TIP3   OH273203   0.298   2.474  13.928 -0.2147 -0.2093  0.7740
17263TIP3    H173204   0.371   2.467  13.866 -2.2426  1.1216 -1.8583
17263TIP3    H273205   0.282   2.384  13.955  1.2892 -0.7206  0.0632
17264TIP3   OH273206   3.094   3.942  11.587 -0.3714  0.4922 -0.2200
17264TIP3    H173207   3.147   3.965  11.511 -2.8786 -0.5192 -2.3398
17264TIP3    H273208   3.063   4.025  11.621  0.2046  0.9051 -0.6998
17265TIP3   OH273209   1.313   5.083  11.908  0.4931  0.3595  0.2120
17265TIP3    H173210   1.346   5.139  11.838  1.2907  1.1502  1.2022
17265TIP3    H273211   1.330   5.133  11.988 -1.1149 -0.1841  0.9084
17266TIP3   OH273212   2.804   1.583   0.187 -0.2357 -0.3041  0.4749
17266TIP3    H173213   2.728   1.605   0.134 -0.2332  0.9229  0.9639
17266TIP3    H273214   2.768   1.541   0.265 -0.3669 -0.2650  0.4344
17267TIP3   OH273215   2.904   5.667  12.212 -0.3356  0.4956 -0.3444
17267TIP3    H173216   2.817   5.638  12.241  0.4850 -1.9536 -0.1846
17267TIP3    H273217   2.962   5.647  12.286  0.6324  0.4887 -1.0934
17268TIP3   OH273218   4.807   3.206   3.814  0.2561  0.2435  0.7460
17268TIP3    H173219   4.815   3.212   3.718  0.7006 -0.4065  0.7404
17268TIP3    H273220   4.766   3.289   3.839 -2.5791 -0.7841 -0.3115
17269TIP3   OH273221   0.949   5.496   5.341  0.3592  0.2013  0.1486
17269TIP3    H173222   0.900   5.497   5.423 -0.9446 -1.3931 -0.5759
17269TIP3    H273223   0.905   5.561   5.285  1.1039  1.1191  0.6229
17270TIP3   OH273224   4.487   0.652  11.705 -0.2042 -0.1504  0.5508
17270TIP3    H173225   4.475   0.629  11.613  2.4492  1.4545 -0.2515
17270TIP3    H273226   4.574   0.692  11.709 -0.6012  0.5568  3.6125
17271TIP3   OH273227   0.046   4.791  15.258 -0.2495  0.0635  0.1943
17271TIP3    H173228  -0.035   4.799  15.207 -1.2736  1.4769  1.9809
17271TIP3    H273229   0.033   4.850  15.332  1.8387 -0.8105  1.2824
17272TIP3   OH273230   3.850   6.058  15.280  0.0172  0.0559  0.1435
17272TIP3    H173231   3.938   6.025  15.265 -0.3453 -1.1375  0.5375
17272TIP3    H273232   3.847   6.142  15.235  0.5168 -1.1028 -2.1112
17273TIP3   OH273233   5.643   4.615   5.942  0.2403  0.4598  0.1282
17273TIP3    H173234   5.648   4.528   5.982  0.9663  1.0500  1.3668
17273TIP3    H273235   5.733   4.647   5.944  0.1610  0.7904 -1.3668
17274TIP3   OH273236   3.314   3.868   4.428 -0.2309 -0.2810 -0.1386
17274TIP3    H173237   3.254   3.816   4.375 -1.6244  1.0115  0.1083
17274TIP3    H273238   3.322   3.951   4.381 -1.0706  0.6790  1.3663
17275TIP3   OH273239   3.696   2.534  12.662 -0.3341  0.2923  0.5418
17275TIP3    H173240   3.676   2.513  12.571 -0.5541  0.9977  0.4249
17275TIP3    H273241   3.711   2.628  12.662 -1.9340  0.5640  1.5274
17276TIP3   OH273242   2.146   5.306   5.827 -0.0253  0.3933 -0.1083
17276TIP3    H173243   2.210   5.350   5.882 -1.8942  1.3013  1.4112
17276TIP3    H273244   2.198   5.258   5.762  2.2324 -0.4999  2.2691
17277TIP3   OH273245   3.275   6.598  12.853 -0.1185 -0.1354  0.0610
17277TIP3    H173246   3.205   6.580  12.916 -1.1765  2.5892 -0.2604
17277TIP3    H273247   3.345   6.638  12.904  0.8929 -2.0360  0.2254
17278TIP3   OH273248   6.190   1.683   3.644  0.4033 -0.2791  0.2585
17278TIP3    H173249   6.267   1.739   3.654  0.1856  0.0804 -0.0414
17278TIP3    H273250   6.190   1.658   3.551 -1.4866  2.1629 -0.4705
17279TIP3   OH273251   3.995   3.865   3.416  0.4084 -0.2634  0.1175
17279TIP3    H173252   4.087   3.875   3.441  0.2972 -0.0231  0.4452
17279TIP3    H273253   3.990   3.899   3.326  0.6763 -0.4543  0.0324
17280TIP3   OH273254   0.399   2.289  11.203  0.0063 -0.3663  0.1963
17280TIP3    H173255   0.420   2.310  11.112 -0.0925 -2.6690 -0.3770
17280TIP3    H273256   0.450   2.351  11.254 -0.1186  1.1110 -1.4222
17281TIP3   OH273257   6.531   1.412  15.347 -0.2003  0.2741  0.0867
17281TIP3    H173258   6.615   1.368  15.363  0.5312  1.7289  0.2623
17281TIP3    H273259   6.515   1.400  15.254  0.5169  0.5368 -0.0744
17282TIP3   OH273260   3.502   2.014   5.787 -0.5658 -0.0468  0.2485
17282TIP3    H173261   3.454   2.074   5.730  0.5843  0.6534  0.0194
17282TIP3    H273262   3.576   2.065   5.819  0.4890 -1.3754 -0.0426
17283TIP3   OH273263   2.414   4.418  16.852  0.0194  0.0276 -0.6631
17283TIP3    H173264   2.446   4.415  16.761  0.4857 -0.9700 -0.4675
17283TIP3    H273265   2.324   4.450  16.844 -0.3277 -1.1308 -1.5903
17284TIP3   OH273266   3.040   6.018  15.702 -0.0077  0.0638  0.4516
17284TIP3    H173267   2.963   6.047  15.654 -0.5128 -0.0366  1.1812
17284TIP3    H273268   3.010   6.011  15.793  0.6240 -0.8363  0.6003
17285TIP3   OH273269   0.318   4.451   1.082  0.0739 -0.1323  0.0171
17285TIP3    H173270   0.408   4.425   1.104  0.9064 -0.1321 -3.0535
17285TIP3    H273271   0.265   4.375   1.105  1.5757 -2.0690 -2.5229
17286TIP3   OH273272   0.405   0.663  14.894  0.1909  0.1593 -0.3896
17286TIP3    H173273   0.416   0.581  14.942 -2.1972  0.0587  0.0517
17286TIP3    H273274   0.327   0.650  14.840  0.3566  1.7942 -1.0768
17287TIP3   OH273275   4.292   0.741  14.096 -0.0235 -0.7029  0.3710
17287TIP3    H173276   4.265   0.830  14.073 -2.1056 -0.7399  2.5262
17287TIP3    H273277   4.226   0.685  14.054  0.6735 -1.1748 -0.0960
17288TIP3   OH273278   0.915   4.342   3.726 -0.1902  0.8570 -0.3614
17288TIP3    H173279   0.960   4.419   3.760 -0.0801  0.8974 -0.5986
17288TIP3    H273280   0.929   4.275   3.793  1.6380  0.3853 -1.1923
17289TIP3   OH273281   6.652   1.728   4.820 -0.2793  0.2862  0.1940
17289TIP3    H173282   6.737   1.683   4.810 -0.3552  0.2367 -0.2207
17289TIP3    H273283   6.621   1.741   4.731 -1.6078 -1.3859  0.3821
17290TIP3   OH273284   5.290   4.368  15.959  0.5249  0.1609 -0.2214
17290TIP3    H173285   5.360   4.306  15.978  0.8531  0.2286 -1.1985
17290TIP3    H273286   5.213   4.333  16.004  0.6970 -0.9691 -0.8051
17291TIP3   OH273287   0.802   4.000  11.965 -0.6152  0.0618  0.1712
17291TIP3    H173288   0.820   3.906  11.961  2.0027  0.5831 -0.8836
17291TIP3    H273289   0.854   4.032  12.039 -1.1513  0.7678  0.2549
17292TIP3   OH273290   5.120   3.919  14.025  0.0151 -0.1344 -0.7475
17292TIP3    H173291   5.163   3.864  13.959 -2.0980 -0.3329 -2.0070
17292TIP3    H273292   5.165   4.003  14.020  2.4219 -1.2971  0.2939
17293TIP3   OH273293   1.715   3.718   3.177  0.0406  0.4666  0.1471
17293TIP3    H173294   1.695   3.810   3.162 -0.4300  0.4334  0.5651
17293TIP3    H273295   1.717   3.679   3.089 -0.8490  0.6570  0.0337
17294TIP3   OH273296   4.196   4.811  15.100  0.2745  0.0166 -0.2395
17294TIP3    H173297   4.229   4.787  15.014 -1.1293  1.9516 -1.3572
17294TIP3    H273298   4.216   4.904  15.109  1.4506 -0.4068  2.0308
17295TIP3   OH273299   6.627   5.555  14.763 -0.2944 -0.1512  0.2745
17295TIP3    H173300   6.676   5.545  14.844  0.0421  0.5886  0.1712
17295TIP3    H273301   6.537   5.574  14.791 -0.0161  0.8966  0.4917
17296TIP3   OH273302   3.330   3.269   1.290 -0.3835 -0.0103 -0.1674
17296TIP3    H173303   3.396   3.279   1.221 -1.3560  2.5853 -0.7550
17296TIP3    H273304   3.365   3.199   1.346  2.3731  0.6150 -1.0340
17297TIP3   OH273305   2.623   2.229   0.967 -0.2009 -0.4736  0.5191
17297TIP3    H173306   2.674   2.310   0.964  0.2839 -0.7269  1.8266
17297TIP3    H273307   2.683   2.164   1.001 -0.2828 -1.6386 -1.4990
17298TIP3   OH273308   3.617   6.201  11.609 -0.2216 -0.1101 -0.1196
17298TIP3    H173309   3.616   6.116  11.653 -0.7500 -0.6448 -1.1356
17298TIP3    H273310   3.679   6.191  11.536 -1.5347 -0.1706 -1.2531
17299TIP3   OH273311   5.927   1.262  16.767 -0.2670  0.2225  0.1460
17299TIP3    H173312   5.908   1.296  16.855 -1.8839 -1.1778  0.3425
17299TIP3    H273313   5.990   1.192  16.782 -0.2490  0.2397  0.1533
17300TIP3   OH273314   4.000   5.515   2.243 -0.2447  0.2479  0.0305
17300TIP3    H173315   4.048   5.598   2.246 -0.8783  0.6034  0.2940
17300TIP3    H273316   4.069   5.448   2.234  0.0456  1.0272 -4.1362
17301TIP3   OH273317   6.462   0.554  16.025 -0.2282 -0.0401  0.0547
17301TIP3    H173318   6.385   0.601  16.057  1.5900  2.5261  0.8795
17301TIP3    H273319   6.504   0.519  16.104  0.7308  0.6654 -0.1275
17302TIP3   OH273320   5.702   1.587   6.017 -0.3151  0.1319 -0.3951
17302TIP3    H173321   5.771   1.546   5.964  0.1777  1.8880 -1.1578
17302TIP3    H273322   5.688   1.673   5.976  0.4305  1.7613  2.5963
17303TIP3   OH273323   1.818   4.612   2.685  0.3416  0.2464  0.0241
17303TIP3    H173324   1.774   4.695   2.667 -0.7302 -0.6896 -1.9245
17303TIP3    H273325   1.896   4.614   2.628  0.2122 -0.1551 -0.1682
17304TIP3   OH273326   3.792   1.783   1.192  0.4235 -0.2422 -0.5323
17304TIP3    H173327   3.710   1.822   1.220 -1.4275 -3.0944 -1.7491
17304TIP3    H273328   3.846   1.857   1.166 -1.7847  1.6812  0.1929
17305TIP3   OH273329   2.367   0.950   0.245 -0.2028  0.2902  0.1775
17305TIP3    H173330   2.373   1.044   0.226  1.5206  0.0202 -0.7177
17305TIP3    H273331   2.291   0.942   0.303 -0.3599  2.2336  0.2736
17306TIP3   OH273332   0.312   3.479  10.717 -0.3099 -0.3975  0.3007
17306TIP3    H173333   0.242   3.538  10.689  1.0518  2.2786  2.2375
17306TIP3    H273334   0.268   3.412  10.770 -1.4626  1.1191  1.3156
17307TIP3   OH273335   5.577   5.005  13.864  0.0974  0.4672 -0.4131
17307TIP3    H173336   5.500   4.969  13.819 -0.1958  1.7258 -0.9359
17307TIP3    H273337   5.639   4.932  13.866 -1.9640 -1.3164  2.1639
17308TIP3   OH273338   5.313   1.768  12.523  0.1502  0.1267 -0.0154
17308TIP3    H173339   5.344   1.694  12.576 -2.6008 -1.2092 -0.1700
17308TIP3    H273340   5.277   1.727  12.444  3.9880  2.0769 -2.9741
17309TIP3   OH273341   0.222   5.720   6.757  0.1201 -0.0605  0.4040
17309TIP3    H173342   0.173   5.801   6.745 -0.2794 -0.5661 -1.5678
17309TIP3    H273343   0.311   5.741   6.730 -0.6325 -1.0235 -3.0157
17310TIP3   OH273344   4.712   3.963   4.968  0.2047 -0.0192  0.0014
17310TIP3    H173345   4.662   3.882   4.963  1.0228 -0.5578  0.2943
17310TIP3    H273346   4.717   3.983   5.062 -2.2749  1.8489 -0.2033
17311TIP3   OH273347   1.845   2.640  12.325 -0.6015  0.4606  0.0091
17311TIP3    H173348   1.940   2.640  12.325 -0.5763 -0.4695  1.4687
17311TIP3    H273349   1.821   2.702  12.395 -1.0971  1.6962 -1.2267
17312TIP3   OH273350   4.258   0.564   6.071  0.1039  0.0838 -0.1490
17312TIP3    H173351   4.219   0.535   5.989  1.8437  0.4186 -1.1106
17312TIP3    H273352   4.196   0.536   6.139 -1.5154  0.1205 -1.5951
17313TIP3   OH273353   5.013   1.607   6.129  0.2721  0.2994 -0.1202
17313TIP3    H173354   4.933   1.558   6.149 -0.4182  1.0916 -0.8672
17313TIP3    H273355   5.075   1.582   6.198 -0.7604  0.0023  0.7152
17314TIP3   OH273356   4.919   4.127  15.005  0.2037 -0.2652 -0.4614
17314TIP3    H173357   4.960   4.042  15.017  0.3173  0.1720  2.6271
17314TIP3    H273358   4.991   4.190  15.011 -0.2239  0.1975 -0.1180
17315TIP3   OH273359   3.404   6.771   1.335  0.1963  0.0727 -0.2988
17315TIP3    H173360   3.369   6.788   1.423  0.4189 -0.4185 -0.1180
17315TIP3    H273361   3.498   6.759   1.348  0.2219 -0.0497 -0.5992
17316TIP3   OH273362   1.320   5.654   3.268 -0.1185 -0.0203  0.0231
17316TIP3    H173363   1.250   5.675   3.331  1.9761  0.6290  2.2076
17316TIP3    H273364   1.382   5.727   3.276  0.9363 -0.6909 -1.7418
17317TIP3   OH273365   3.170   5.842  14.193  0.1523 -0.1810  0.9087
17317TIP3    H173366   3.125   5.915  14.236 -0.6503 -0.6820  0.9265
17317TIP3    H273367   3.215   5.796  14.264 -0.0073 -0.1777  1.0129
17318TIP3   OH273368   5.334   2.355  15.262  0.0024  0.2196  0.5395
17318TIP3    H173369   5.425   2.330  15.276  0.6886  3.5822  2.5443
17318TIP3    H273370   5.318   2.338  15.169  3.4415  1.8692 -0.4238
17319TIP3   OH273371   0.711   2.372  16.153 -0.0840  0.2787  0.9073
17319TIP3    H173372   0.652   2.300  16.129  0.4063 -0.0572  0.6894
17319TIP3    H273373   0.683   2.399  16.240 -0.6008  0.1628  0.7773
17320TIP3   OH273374   3.389   5.497   1.720  0.0838 -0.1899  0.4881
17320TIP3    H173375   3.325   5.566   1.735  2.4694  2.1535  0.1369
17320TIP3    H273376   3.409   5.464   1.808 -0.0648  0.4699  0.7727
17321TIP3   OH273377   3.141   4.655   0.949  0.0435  0.3028  0.0351
17321TIP3    H173378   3.140   4.561   0.964 -0.4757  0.2263 -0.4745
17321TIP3    H273379   3.185   4.691   1.026 -1.1895 -0.2195  1.0055
17322TIP3   OH273380   4.021   3.591   2.934 -0.0658  0.1303 -0.3514
17322TIP3    H173381   4.009   3.497   2.923 -0.3453  0.0304  0.8049
17322TIP3    H273382   4.096   3.599   2.992  0.2390  0.6365 -0.8099
17323TIP3   OH273383   3.231   2.396  10.918  0.5237 -0.6455 -0.0894
17323TIP3    H173384   3.184   2.479  10.916 -1.0100 -1.4984 -0.3085
17323TIP3    H273385   3.291   2.403  10.992 -1.5715 -0.3951  1.6404
17324TIP3   OH273386   4.812   0.108   5.699  0.1788 -0.2885 -0.0432
17324TIP3    H173387   4.774   0.192   5.726  0.4545 -0.1661 -0.0279
17324TIP3    H273388   4.768   0.043   5.754  0.5552 -0.0670  0.5343
17325TIP3   OH273389   3.700   1.987  12.023 -1.1327  0.2193  0.4063
17325TIP3    H173390   3.747   1.944  12.095  1.9517  1.9218 -0.4808
17325TIP3    H273391   3.696   2.079  12.048 -0.3308  0.7747 -1.4223
17326TIP3   OH273392   3.644   3.825   4.822  0.6733 -0.5033 -0.0864
17326TIP3    H173393   3.572   3.881   4.793 -0.3654 -1.0477  1.3305
17326TIP3    H273394   3.721   3.882   4.822  0.0270  0.3771 -0.6004
17327TIP3   OH273395   1.919   4.106  14.980  0.0393 -0.0099 -0.1563
17327TIP3    H173396   2.002   4.152  14.971  0.4333 -0.6209  0.3435
17327TIP3    H273397   1.935   4.040  15.047 -0.1913 -1.6088 -1.6364
17328TIP3   OH273398   1.243   0.247   5.595  0.2247  0.3182 -0.1210
17328TIP3    H173399   1.271   0.165   5.637  2.9202 -0.0546 -2.4848
17328TIP3    H273400   1.292   0.315   5.642 -1.4585  0.5351  1.3592
17329TIP3   OH273401   4.384   2.151  11.228  0.2779 -0.2064 -0.1981
17329TIP3    H173402   4.413   2.210  11.298 -3.2971  1.7545 -0.3028
17329TIP3    H273403   4.420   2.190  11.148  0.5755  0.0758  0.0684
17330TIP3   OH273404   6.707   3.497  14.586 -0.9422  0.4664 -0.1271
17330TIP3    H173405   6.658   3.526  14.508  0.1774 -0.3672 -1.1658
17330TIP3    H273406   6.756   3.421  14.555 -1.3053 -0.5159  1.6901
17331TIP3   OH273407   5.153   5.816   1.476 -0.0723 -0.5265 -0.4168
17331TIP3    H173408   5.239   5.799   1.438  0.5662 -2.1240  1.7146
17331TIP3    H273409   5.166   5.892   1.532 -0.5997  0.6564 -1.8474
17332TIP3   OH273410   6.454   3.512  12.828 -0.0759 -0.4747 -0.5463
17332TIP3    H173411   6.493   3.578  12.885  0.4645 -1.8352  0.7229
17332TIP3    H273412   6.490   3.529  12.741 -0.8631  1.6033 -0.4760
17333TIP3   OH273413   3.394   2.206  16.490  0.2601  0.4414  0.6600
17333TIP3    H173414   3.456   2.154  16.543 -0.2171 -0.2271  0.5708
17333TIP3    H273415   3.392   2.161  16.406 -1.0601 -0.1152  0.9655
17334TIP3   OH273416   4.861   3.948  16.897 -0.0004  0.0768  0.1441
17334TIP3    H173417   4.779   3.987  16.865 -0.9440 -1.7358  0.2744
17334TIP3    H273418   4.870   3.981  16.986 -0.6867  0.1348  0.1959
17335TIP3   OH273419   4.148   2.965   1.845  0.2374  0.7808  0.0776
17335TIP3    H173420   4.096   3.046   1.846  0.3648  0.8606  0.2086
17335TIP3    H273421   4.173   2.952   1.937 -1.7340 -0.6528  0.4544
17336TIP3   OH273422   0.320   2.187  11.444 -0.4080 -0.5077 -0.7912
17336TIP3    H173423   0.333   2.232  11.360 -2.6707 -1.4506 -1.6667
17336TIP3    H273424   0.315   2.258  11.508 -2.6435  0.4795 -1.9924
17337TIP3   OH273425   0.457   0.634  14.233 -0.0898  0.2039  0.0580
17337TIP3    H173426   0.452   0.682  14.150  1.4559  0.4423  0.0897
17337TIP3    H273427   0.532   0.671  14.278 -0.0430 -0.9255  0.9348
17338TIP3   OH273428   1.096   2.771   3.113  0.1555  0.3310 -0.5046
17338TIP3    H173429   1.078   2.680   3.137  3.4397 -0.6012 -1.2923
17338TIP3    H273430   1.030   2.822   3.159 -3.9605 -2.6879 -2.7387
17339TIP3   OH273431   1.471   2.301   4.689  0.0444 -0.0821 -0.0426
17339TIP3    H173432   1.554   2.255   4.691 -0.2307 -0.6484 -1.1302
17339TIP3    H273433   1.451   2.320   4.781  0.2924 -1.8712  0.3988
17340TIP3   OH273434   4.450   3.793  11.879 -0.0582  0.8650  0.5576
17340TIP3    H173435   4.469   3.855  11.809  2.0959  1.7743  1.9206
17340TIP3    H273436   4.515   3.723  11.867 -0.1782  0.6465  1.1868
17341TIP3   OH273437   4.814   4.373  13.527  0.2672  0.1349 -0.1715
17341TIP3    H173438   4.823   4.465  13.501  0.3157  0.1464 -0.1126
17341TIP3    H273439   4.898   4.351  13.568 -0.5124  0.6904  1.7848
17342TIP3   OH273440   1.476   2.560   5.009 -0.4771 -0.2102 -0.4218
17342TIP3    H173441   1.396   2.611   4.997 -0.8064 -0.0983  2.0800
17342TIP3    H273442   1.547   2.621   4.992 -0.9019  0.3647 -0.1228
17343TIP3   OH273443   3.671   6.046   3.025 -0.6044 -0.1592  0.1433
17343TIP3    H173444   3.625   6.065   2.943 -0.9495  0.1220  0.4019
17343TIP3    H273445   3.601   6.024   3.087 -0.2345 -1.8632 -0.0404
17344TIP3   OH273446   5.653   2.205  11.647 -0.5571 -0.2386 -0.4315
17344TIP3    H173447   5.709   2.269  11.690  0.5395 -1.4319 -0.0383
17344TIP3    H273448   5.618   2.152  11.718  0.4719 -1.5863 -0.8990
17345TIP3   OH273449   0.777   1.825  12.557 -0.0511 -0.3597 -0.0780
17345TIP3    H173450   0.704   1.803  12.616 -0.8151  1.7918 -0.1629
17345TIP3    H273451   0.734   1.862  12.480  1.1098  0.3454 -0.3892
17346TIP3   OH273452   3.863   1.446   4.249 -0.7857 -0.1497  0.2306
17346TIP3    H173453   3.901   1.524   4.290 -1.6536  1.1426 -1.3704
17346TIP3    H273454   3.935   1.408   4.199 -0.5003 -0.0911  0.5929
17347TIP3   OH273455   5.568   2.049   5.784 -0.5236 -0.8974 -0.5144
17347TIP3    H173456   5.626   2.026   5.856 -0.5409  0.7163  0.0311
17347TIP3    H273457   5.626   2.069   5.711 -0.3202  1.2880  0.1958
17348TIP3   OH273458   0.731   4.034  13.688  0.0054  0.0682  0.2053
17348TIP3    H173459   0.687   4.106  13.645  0.3722  0.2655  0.1574
17348TIP3    H273460   0.700   4.037  13.779 -0.5611 -0.1844  0.0180
17349TIP3   OH273461   2.357   4.348  12.114 -0.0647  0.1414 -0.4418
17349TIP3    H173462   2.294   4.385  12.052 -0.1446  0.4697 -0.1640
17349TIP3    H273463   2.302   4.311  12.184 -0.0550 -1.7940 -1.4164
17350TIP3   OH273464   2.466   1.126   5.632 -0.7933 -0.2128  0.2550
17350TIP3    H173465   2.494   1.216   5.648 -1.4145 -0.2142  1.3886
17350TIP3    H273466   2.503   1.104   5.546 -0.9918  1.2697 -0.2289
17351TIP3   OH273467   5.125   6.296  15.935 -0.0318 -0.4733 -0.0712
17351TIP3    H173468   5.150   6.271  15.846 -0.9205 -0.0822 -0.4384
17351TIP3    H273469   5.107   6.214  15.980  0.8994 -0.6973 -0.1094
17352TIP3   OH273470   3.483   1.357  11.799  0.3444  0.6127  0.0222
17352TIP3    H173471   3.479   1.451  11.785  0.1004  0.6052  0.0383
17352TIP3    H273472   3.443   1.343  11.885 -1.0417  0.3455 -0.6437
17353TIP3   OH273473   6.764   0.213   5.976  0.1297  0.3573 -0.4009
17353TIP3    H173474   6.854   0.243   5.971  0.7359 -1.0956  1.2764
17353TIP3    H273475   6.768   0.118   5.966 -1.3854  0.4095 -1.8475
17354TIP3   OH273476   3.101   6.095   6.134  0.7979 -0.2795  0.6886
17354TIP3    H173477   3.087   6.169   6.074 -0.3397 -2.2801 -1.6253
17354TIP3    H273478   3.126   6.135   6.216 -2.7885  2.8879  0.3888
17355TIP3   OH273479   6.195   1.888  16.375 -0.1141 -0.4949 -0.2683
17355TIP3    H173480   6.102   1.898  16.357  0.0424 -0.0905 -0.8669
17355TIP3    H273481   6.205   1.914  16.466 -0.3472  0.9340 -0.6399
17356TIP3   OH273482   1.412   3.074   3.979 -0.3082 -0.2495  0.4906
17356TIP3    H173483   1.433   3.107   4.066  0.6030 -0.0679  0.2071
17356TIP3    H273484   1.399   2.980   3.992 -0.3111 -0.2006  0.8459
17357TIP3   OH273485   6.145   1.071  15.104 -0.0688  0.7883 -0.0290
17357TIP3    H173486   6.236   1.088  15.080  1.0541 -1.1945  2.5595
17357TIP3    H273487   6.140   0.976  15.114 -2.1447  0.9662  0.9170
17358TIP3   OH273488   4.904   6.075  16.726  0.3886  0.0309  0.1229
17358TIP3    H173489   4.959   6.150  16.748  1.0638 -0.7628  1.1565
17358TIP3    H273490   4.818   6.096  16.763  0.5628  0.3168  0.3646
17359TIP3   OH273491   0.967   2.935  15.267  0.0449 -0.4623 -0.7604
17359TIP3    H173492   1.039   2.884  15.229 -0.0197 -0.8845 -0.3216
17359TIP3    H273493   0.900   2.935  15.200  0.2535 -0.5096 -0.9694
17360TIP3   OH273494   4.235   0.441  12.996 -0.3524  0.0211 -0.5673
17360TIP3    H173495   4.262   0.380  13.065  0.3365  1.6745  0.6464
17360TIP3    H273496   4.141   0.451  13.008 -0.5217 -1.0152 -0.9540
17361TIP3   OH273497   2.729   2.357  10.817 -0.8016  0.4657 -0.5989
17361TIP3    H173498   2.635   2.359  10.802 -1.2436 -1.0845  1.6805
17361TIP3    H273499   2.746   2.270  10.854  1.6935  0.3182 -2.0088
17362TIP3   OH273500   1.043   0.496  13.953  0.9124 -0.4035 -0.0033
17362TIP3    H173501   0.999   0.411  13.958  0.0270  0.0759  0.4869
17362TIP3    H273502   1.135   0.475  13.936  0.5809 -1.4366 -0.5380
17363TIP3   OH273503   5.526   6.568  13.167 -0.2833  0.2085  0.3097
17363TIP3    H173504   5.561   6.527  13.246 -0.2137 -1.2056 -0.4500
17363TIP3    H273505   5.483   6.497  13.119 -0.3869  1.0626 -0.8973
17364TIP3   OH273506   1.264   2.491   0.467 -0.1797 -0.1092  0.4967
17364TIP3    H173507   1.202   2.560   0.448  0.9239  0.5122 -0.9564
17364TIP3    H273508   1.282   2.450   0.382  0.2116 -1.2894  1.1321
17365TIP3   OH273509   5.781   2.912   6.011  0.4974 -0.1364  0.0171
17365TIP3    H173510   5.838   2.951   6.077 -0.1026  1.5358 -0.4026
17365TIP3    H273511   5.821   2.828   5.990  2.2256  0.5536  0.4861
17366TIP3   OH273512   0.477   3.295   2.560  0.0005  0.5517  0.6390
17366TIP3    H173513   0.388   3.261   2.568  0.4014 -0.6260  0.1557
17366TIP3    H273514   0.474   3.353   2.484 -0.1196 -0.2806  0.0020
17367TIP3   OH273515   2.207   1.660  12.730 -0.3287 -0.1606 -0.6210
17367TIP3    H173516   2.160   1.641  12.811  3.1959 -3.5668  0.7909
17367TIP3    H273517   2.231   1.752  12.737 -0.6477 -0.2361  1.8909
17368TIP3   OH273518   5.942   5.696  12.452  1.0624  0.0158  0.5710
17368TIP3    H173519   5.972   5.717  12.540  0.7943  2.5982  0.0724
17368TIP3    H273520   5.957   5.602  12.443  3.5345  0.2111  2.4107
17369TIP3   OH273521   0.457   1.715  17.149 -0.0306  0.8787 -0.7606
17369TIP3    H173522   0.500   1.718  17.063 -1.1519  1.4654 -1.3155
17369TIP3    H273523   0.372   1.675  17.132  0.1759 -0.0099  0.2786
17370TIP3   OH273524   0.260   5.764   3.738  0.0390  0.2517  0.4193
17370TIP3    H173525   0.224   5.842   3.697  0.4315  1.0998  1.6630
17370TIP3    H273526   0.183   5.711   3.760 -0.2680  0.6096  0.2083
17371TIP3   OH273527   2.198   2.403   0.105 -0.9748  0.6992  0.1497
17371TIP3    H173528   2.190   2.494   0.076 -2.1890  0.5260 -0.0781
17371TIP3    H273529   2.255   2.362   0.040 -0.1264  1.3841  0.4596
17372TIP3   OH273530   0.789   2.544  16.581  0.3218 -0.7319  0.7754
17372TIP3    H173531   0.812   2.591  16.661 -0.3964 -0.5123  0.8588
17372TIP3    H273532   0.808   2.453  16.601  0.8192 -0.5938  0.9492
17373TIP3   OH273533   2.577   1.762  15.530 -0.0978 -0.2248 -0.6392
17373TIP3    H173534   2.652   1.744  15.473 -0.8995  1.8213 -2.4155
17373TIP3    H273535   2.594   1.850  15.565 -1.2100 -0.1392 -0.3105
17374TIP3   OH273536   5.628   2.289  17.008  0.1974 -0.3560 -0.2959
17374TIP3    H173537   5.540   2.292  16.971 -0.1948 -0.2690  0.6239
17374TIP3    H273538   5.683   2.329  16.941 -0.6836  0.9497 -0.2790
17375TIP3   OH273539   2.734   4.540  16.827  0.5125  0.5434  0.5913
17375TIP3    H173540   2.680   4.541  16.906  1.2553 -0.9057  1.1389
17375TIP3    H273541   2.800   4.607  16.842  0.1740  0.8172  0.8633
17376TIP3   OH273542   4.784   0.056   3.786 -0.4140 -0.0946  0.0308
17376TIP3    H173543   4.872   0.093   3.788  0.3074 -1.7368 -0.0198
17376TIP3    H273544   4.772   0.027   3.696 -0.9899  0.0964  0.0465
17377TIP3   OH273545   2.714   5.562  14.708 -0.0074  0.0911  0.9522
17377TIP3    H173546   2.662   5.604  14.776 -0.7510  0.2489  0.2912
17377TIP3    H273547   2.782   5.515  14.756 -0.2762  0.5342  1.7832
17378TIP3   OH273548   4.448   5.388   1.873  0.0084 -0.4484  0.7043
17378TIP3    H173549   4.528   5.398   1.925  0.7729 -2.0017 -0.1391
17378TIP3    H273550   4.469   5.320   1.810 -1.9863 -0.8754  0.4674
17379TIP3   OH273551   5.676   5.718  13.789 -0.3342  0.5958 -0.2782
17379TIP3    H173552   5.624   5.784  13.743  2.5875  2.5339 -0.9502
17379TIP3    H273553   5.733   5.769  13.846 -1.8243 -1.6593  3.3616
17380TIP3   OH273554   5.163   2.607   1.861 -0.5874 -0.3946 -0.5164
17380TIP3    H173555   5.246   2.578   1.899  0.1966 -1.4580 -2.9197
17380TIP3    H273556   5.102   2.536   1.882 -0.9763  0.4879  1.4419
17381TIP3   OH273557   3.397   5.796  12.059  0.1743  0.4942  0.3374
17381TIP3    H173558   3.340   5.722  12.080 -2.1866  1.7613 -1.4181
17381TIP3    H273559   3.342   5.873  12.072  2.0507  1.8669  0.3574
17382TIP3   OH273560   0.543   1.298   3.157  0.0313  0.9260 -0.0560
17382TIP3    H173561   0.513   1.265   3.072 -1.3444 -2.0865  1.4922
17382TIP3    H273562   0.628   1.337   3.139 -1.2030  2.3030 -3.1756
17383TIP3   OH273563   0.462   4.965   3.900 -0.1789  0.3243  0.3923
17383TIP3    H173564   0.539   4.947   3.953  0.1751  1.6601  0.3523
17383TIP3    H273565   0.404   5.015   3.958 -1.0925 -0.8032  0.4780
17384TIP3   OH273566   6.069   4.211   3.363  0.4117 -0.2834  0.2323
17384TIP3    H173567   6.113   4.272   3.422  1.4617 -0.0093 -0.8080
17384TIP3    H273568   5.977   4.216   3.386  0.6542  0.7823  0.9757
17385TIP3   OH273569   0.698   5.785  14.152 -0.3859 -0.2820 -0.6383
17385TIP3    H173570   0.628   5.768  14.215 -1.4508  0.2959 -1.6423
17385TIP3    H273571   0.711   5.879  14.155  0.7550 -0.4423 -0.0609
17386TIP3   OH273572   0.320   1.035  13.731  0.2988 -0.1557  0.0002
17386TIP3    H173573   0.390   1.079  13.779 -2.4769  3.7208  0.7263
17386TIP3    H273574   0.267   0.994  13.799  1.0042 -1.8320 -0.4427
17387TIP3   OH273575   2.778   3.239  11.677 -0.2224  0.0574 -0.4002
17387TIP3    H173576   2.812   3.295  11.607 -1.9122  1.5277 -0.0772
17387TIP3    H273577   2.683   3.250  11.673 -0.2706  2.3083  3.8230
17388TIP3   OH273578   4.081   0.194   3.379 -0.0363  0.1628 -0.1775
17388TIP3    H173579   4.086   0.099   3.381 -2.1339  0.0457  2.2330
17388TIP3    H273580   4.162   0.224   3.419 -0.8881 -0.7029  2.2275
17389TIP3   OH273581   2.541   0.024  15.101  0.0408 -0.1747 -0.1944
17389TIP3    H173582   2.530  -0.005  15.010  0.0460  0.3788 -0.3703
17389TIP3    H273583   2.508   0.114  15.102 -1.6353 -0.7717  0.7491
17390TIP3   OH273584   4.384   4.903  16.612 -0.0942  0.0119  0.2729
17390TIP3    H173585   4.452   4.911  16.679 -0.5978  2.5493  0.5110
17390TIP3    H273586   4.311   4.955  16.645 -1.4824 -1.1726 -0.8623
17391TIP3   OH273587   1.442   4.594   1.787 -0.0348 -0.2862  0.0033
17391TIP3    H173588   1.498   4.600   1.710  0.5458 -1.3405  0.3331
17391TIP3    H273589   1.370   4.537   1.760 -0.4292  0.2647 -0.1116
17392TIP3   OH273590   2.540   2.987  15.747 -0.9587  0.6302  0.1209
17392TIP3    H173591   2.612   3.044  15.720  0.7356 -1.1273  0.7927
17392TIP3    H273592   2.516   2.940  15.668  0.5402 -0.7843  0.4683
17393TIP3   OH273593   5.373   4.972  15.054  0.3079  0.3720 -0.4138
17393TIP3    H173594   5.294   4.964  15.001 -0.5969 -0.0063  0.9428
17393TIP3    H273595   5.371   4.896  15.112  0.7924  1.2421  0.7716
17394TIP3   OH273596   1.867   5.970   2.702  0.1469 -0.3809 -0.4840
17394TIP3    H173597   1.877   5.990   2.795 -2.4580 -2.0756  0.2312
17394TIP3    H273598   1.933   5.903   2.684  0.6912 -0.0090  0.1137
17395TIP3   OH273599   4.836   4.495   5.641 -0.3441  0.7274 -0.0474
17395TIP3    H173600   4.893   4.572   5.642  1.4956 -0.6176  1.0423
17395TIP3    H273601   4.830   4.471   5.549  1.8372  0.1985 -0.0784
17396TIP3   OH273602   5.085   5.965  15.104 -0.2541  0.3860 -0.8215
17396TIP3    H173603   5.171   5.946  15.141 -0.8129 -0.4595  0.0820
17396TIP3    H273604   5.102   5.985  15.012  0.8666 -0.0980 -0.7289
17397TIP3   OH273605   3.430   0.300   0.580  0.2049  0.1572 -0.2200
17397TIP3    H173606   3.486   0.319   0.504 -0.5897 -0.0642 -0.8737
17397TIP3    H273607   3.411   0.207   0.572  0.9048 -0.0701  0.7958
17398TIP3   OH273608   4.037   3.446   0.786 -0.2805 -0.2865  0.4872
17398TIP3    H173609   4.010   3.485   0.703 -0.6653 -1.8835 -0.1600
17398TIP3    H273610   4.109   3.387   0.763  1.5957  1.4808  1.7338
17399TIP3   OH273611   4.694   2.240  15.735  0.2073  0.3166  0.4795
17399TIP3    H173612   4.747   2.257  15.658  0.4936 -1.5798  0.2572
17399TIP3    H273613   4.608   2.215  15.700  0.3317 -0.5267  0.7725
17400TIP3   OH273614   4.003   1.723   5.185 -0.1564 -0.2468  0.2885
17400TIP3    H173615   4.042   1.778   5.117 -2.4934 -1.6064 -2.2163
17400TIP3    H273616   4.002   1.779   5.263  1.6941  1.6628 -0.9956
17401TIP3   OH273617   2.239   3.738  15.256 -0.4857 -0.1539  0.1210
17401TIP3    H173618   2.146   3.742  15.278 -0.6197 -0.5481 -0.3730
17401TIP3    H273619   2.275   3.672  15.315 -0.8979 -1.4087 -1.0149
17402TIP3   OH273620   1.399   5.531  14.183 -0.3345 -0.0983 -0.1221
17402TIP3    H173621   1.377   5.572  14.267  0.5535  1.8131 -0.8099
17402TIP3    H273622   1.430   5.443  14.207  2.7597  1.4371  1.8105
17403TIP3   OH273623   5.517   6.290  11.134  0.3276  0.3024 -0.2282
17403TIP3    H173624   5.479   6.362  11.184 -1.5534 -0.4805 -0.4727
17403TIP3    H273625   5.582   6.331  11.078  0.1489  1.6306  0.5131
17404TIP3   OH273626   5.722   0.538  17.122 -0.2466  1.1354  0.2152
17404TIP3    H173627   5.681   0.576  17.200 -0.6676  1.5683 -0.2140
17404TIP3    H273628   5.716   0.607  17.056 -0.0505  0.7050 -0.2543
17405TIP3   OH273629   3.660   0.791  15.450  0.5318  0.1213 -0.7896
17405TIP3    H173630   3.633   0.720  15.391 -0.7505 -0.7039  0.7566
17405TIP3    H273631   3.753   0.775  15.466  0.4312 -0.7722 -1.0465
17406TIP3   OH273632   5.358   3.344  14.352  0.4145 -0.4792  0.1289
17406TIP3    H173633   5.414   3.330  14.276  2.2942  2.4541  0.8749
17406TIP3    H273634   5.282   3.392  14.318  1.0439  0.4458  0.0200
17407TIP3   OH273635   2.539   2.207  16.379  0.0049  0.2750  0.0971
17407TIP3    H173636   2.556   2.298  16.405 -1.1050 -0.0363  1.9522
17407TIP3    H273637   2.516   2.162  16.460  0.0806 -1.5718 -0.8780
17408TIP3   OH273638   4.979   2.094   4.435 -0.3875 -0.2195  0.0500
17408TIP3    H173639   5.057   2.044   4.411  0.0463  0.4944 -0.0406
17408TIP3    H273640   4.943   2.124   4.351 -0.6193 -0.3442  0.1053
17409TIP3   OH273641   1.700   2.990   1.970  0.0559 -0.1803  0.1529
17409TIP3    H173642   1.636   3.008   2.040 -0.9522  2.1827 -1.3088
17409TIP3    H273643   1.785   3.001   2.012 -0.5066 -1.5033  1.6760
17410TIP3   OH273644   4.538   6.430  15.366 -0.3013  0.0138  0.3362
17410TIP3    H173645   4.617   6.483  15.358 -1.7075  2.0521 -0.4260
17410TIP3    H273646   4.569   6.340  15.362  2.1171  0.7533  1.4570
17411TIP3   OH273647   6.508   4.547   4.421  0.0216 -0.0985  0.0354
17411TIP3    H173648   6.599   4.569   4.442 -0.4141  1.7190  0.0691
17411TIP3    H273649   6.470   4.629   4.389 -1.4427 -0.9898 -0.5634
17412TIP3   OH273650   3.193   1.430   4.959 -0.1389  0.2387  0.2552
17412TIP3    H173651   3.167   1.390   4.876 -0.4655  0.0216  0.4601
17412TIP3    H273652   3.273   1.479   4.938  0.4523 -0.8005  0.0778
17413TIP3   OH273653   5.753   4.260   4.672 -0.3600  0.0293 -0.4218
17413TIP3    H173654   5.706   4.178   4.660  1.9345 -1.3593 -0.1789
17413TIP3    H273655   5.832   4.251   4.620  0.9775  1.2015  1.3280
17414TIP3   OH273656   6.704   0.285  13.276  0.2180 -0.1197 -0.6776
17414TIP3    H173657   6.672   0.194  13.280  1.1213 -0.4190 -0.1960
17414TIP3    H273658   6.722   0.308  13.367  2.1260 -0.2205 -1.0162
17415TIP3   OH273659   6.401   5.447   5.117  0.4939  0.4070  0.0378
17415TIP3    H173660   6.323   5.443   5.062 -0.0040 -1.6331  0.8526
17415TIP3    H273661   6.474   5.436   5.055 -0.0757 -2.2735 -0.2269
17416TIP3   OH273662   2.533   1.416   5.298  0.9505  0.0721  0.1470
17416TIP3    H173663   2.439   1.425   5.313  0.7360  0.3306 -1.3062
17416TIP3    H273664   2.560   1.500   5.262  1.5940 -0.2896 -0.2233
17417TIP3   OH273665   1.589   0.395   4.096  0.1321 -0.0512  0.0545
17417TIP3    H173666   1.628   0.449   4.165 -1.3393  3.7182 -1.9365
17417TIP3    H273667   1.660   0.383   4.033  0.2701  0.1403  0.1711
17418TIP3   OH273668   2.407   3.058   0.440 -0.4513  0.0249  0.1366
17418TIP3    H173669   2.364   3.119   0.499  0.7123  0.5364  0.4812
17418TIP3    H273670   2.345   3.045   0.368  0.9241  5.0851 -2.2503
17419TIP3   OH273671   4.808   2.175   3.242 -0.0304 -0.2444  1.0894
17419TIP3    H173672   4.715   2.155   3.227  0.2030  0.5849 -1.6837
17419TIP3    H273673   4.807   2.249   3.303 -1.1237 -1.5821  2.7341
17420TIP3   OH273674   2.589   3.168   5.839  0.1640  0.4409  0.1635
17420TIP3    H173675   2.654   3.110   5.799 -0.9336 -1.7052  1.4277
17420TIP3    H273676   2.510   3.116   5.843 -1.0996  2.3466  0.5665
17421TIP3   OH273677   3.640   6.459  13.700  0.4843  0.4877  0.0833
17421TIP3    H173678   3.736   6.463  13.708  0.3859 -1.2923  3.2818
17421TIP3    H273679   3.624   6.382  13.646  0.8569  0.7173 -0.3590
17422TIP3   OH273680   6.470   4.233  16.050 -0.6848 -0.1783  0.1686
17422TIP3    H173681   6.448   4.139  16.052  0.4862 -0.4535  3.5789
17422TIP3    H273682   6.566   4.235  16.044 -0.7148  0.8197 -0.0269
17423TIP3   OH273683   4.200   5.068  16.705  0.3483 -0.1146  0.0242
17423TIP3    H173684   4.164   5.008  16.770 -1.2689  0.3290 -0.4457
17423TIP3    H273685   4.131   5.133  16.691  1.2697  0.6667 -1.0141
17424TIP3   OH273686   1.047   3.236  16.746  0.3910 -0.3513 -0.5677
17424TIP3    H173687   1.131   3.270  16.717  0.5775 -0.6402 -0.3602
17424TIP3    H273688   1.020   3.176  16.677  1.4520 -2.0555  0.4583
17425TIP3   OH273689   4.974   1.418  16.624 -0.5477  0.0927  0.2809
17425TIP3    H173690   5.027   1.364  16.684 -0.5348 -1.3195 -0.9639
17425TIP3    H273691   4.884   1.389  16.640 -0.8072  1.4876  1.3880
17426TIP3   OH273692   4.111   2.228   1.321  0.0649  0.2027  0.3085
17426TIP3    H173693   4.189   2.228   1.266 -0.2704 -2.0920 -0.1997
17426TIP3    H273694   4.083   2.320   1.322  2.4313  0.9713  0.0713
17427TIP3   OH273695   2.709   6.352  15.826 -0.1573 -0.5202  0.6563
17427TIP3    H173696   2.690   6.379  15.916  0.0450  0.3603  0.4417
17427TIP3    H273697   2.799   6.318  15.830 -0.3469 -1.0078  0.8916
17428TIP3   OH273698   6.702   1.638  10.955 -0.3909 -0.5594  0.1320
17428TIP3    H173699   6.658   1.699  10.896  0.2853 -0.3258 -0.1305
17428TIP3    H273700   6.792   1.668  10.958 -0.1031 -1.4096  0.1826
17429TIP3   OH273701   2.563   6.566   5.770 -0.0069 -0.8558 -0.5612
17429TIP3    H173702   2.529   6.637   5.824  2.1147 -0.5490  0.4416
17429TIP3    H273703   2.547   6.593   5.680 -0.2284  0.3609 -0.1570
17430TIP3   OH273704   6.626   6.174   2.661  0.0294  0.0225  0.0284
17430TIP3    H173705   6.531   6.178   2.648  0.0623  1.2506  0.1746
17430TIP3    H273706   6.636   6.130   2.746 -0.3982 -0.2864 -0.0778
17431TIP3   OH273707   1.537   1.043   5.609 -0.2734  0.4811  0.2499
17431TIP3    H173708   1.542   0.949   5.629  0.7607  0.1736 -1.4017
17431TIP3    H273709   1.476   1.078   5.675 -1.5852 -1.5430  0.1531
17432TIP3   OH273710   4.910   0.395   1.879 -0.3918  0.2046 -0.1748
17432TIP3    H173711   4.843   0.333   1.906 -0.9748  1.0415  0.2927
17432TIP3    H273712   4.918   0.456   1.953  0.7725  0.1987 -0.2813
17433TIP3   OH273713   5.093   5.161  11.940  0.1078  0.3135 -0.4841
17433TIP3    H173714   5.154   5.160  11.867  0.9665 -0.4568  0.2394
17433TIP3    H273715   5.107   5.246  11.982  1.1362 -0.1273  0.0645
17434TIP3   OH273716   6.680   0.597  12.274 -0.3926  0.3064  0.1657
17434TIP3    H173717   6.717   0.568  12.357 -1.9846  0.1095  0.8165
17434TIP3    H273718   6.677   0.518  12.220 -1.4484 -0.0091  0.6992
17435TIP3   OH273719   1.524   6.294   5.384 -0.2525  0.7494 -0.2645
17435TIP3    H173720   1.593   6.244   5.342 -0.1085  0.4171  0.3670
17435TIP3    H273721   1.515   6.373   5.330 -0.8611 -0.1978 -1.5728
17436TIP3   OH273722   5.463   5.397   5.417  0.2967 -0.4308  0.2009
17436TIP3    H173723   5.515   5.465   5.461 -0.0582 -0.2583  0.3590
17436TIP3    H273724   5.528   5.337   5.381  0.5626 -1.6460  2.6286
17437TIP3   OH273725   4.305   3.007  16.867  0.0766 -0.7929 -1.0222
17437TIP3    H173726   4.345   2.921  16.878 -0.1243 -0.8206 -0.4971
17437TIP3    H273727   4.371   3.068  16.900 -0.4937 -0.8698  0.3051
17438TIP3   OH273728   3.053   4.038  13.173  0.3879  0.1752 -0.1887
17438TIP3    H173729   3.091   4.058  13.258  0.2965 -0.6141  0.0398
17438TIP3    H273730   3.120   4.064  13.109  1.3850 -1.4037  0.2166
17439TIP3   OH273731   1.580   0.147   0.423  1.0402 -0.7681  0.0371
17439TIP3    H173732   1.597   0.241   0.432 -0.0013 -0.6551  0.8049
17439TIP3    H273733   1.579   0.113   0.512 -0.9882 -1.0816 -0.0837
17440TIP3   OH273734   5.823   4.906  12.570  0.0004  0.2249 -0.2551
17440TIP3    H173735   5.909   4.922  12.608 -0.2123 -0.7894  0.6871
17440TIP3    H273736   5.779   4.991  12.573  1.3966  1.0230 -1.8933
17441TIP3   OH273737   2.321   0.555   1.783 -0.5174  0.3063  0.0278
17441TIP3    H173738   2.281   0.475   1.818  1.2541  0.4497  2.5094
17441TIP3    H273739   2.255   0.623   1.795 -1.9424 -0.6979 -1.8643
17442TIP3   OH273740   3.432   3.200  15.855 -0.1019 -0.0361  0.6752
17442TIP3    H173741   3.438   3.130  15.920 -3.0375 -0.9405  0.0230
17442TIP3    H273742   3.430   3.281  15.907 -1.5079 -0.7019  1.6832
17443TIP3   OH273743   0.213   6.016   0.339 -0.0254  0.0438  0.6650
17443TIP3    H173744   0.142   6.009   0.275  0.3140 -0.5919  0.3453
17443TIP3    H273745   0.293   6.020   0.286  0.3786 -2.0179  1.0492
17444TIP3   OH273746   4.660   0.833  10.799 -0.1347 -0.0004 -0.6711
17444TIP3    H173747   4.634   0.750  10.838 -1.3452 -0.5076 -2.4561
17444TIP3    H273748   4.637   0.824  10.706  3.2454  0.8777 -1.6856
17445TIP3   OH273749   6.455   3.519  16.174  0.2390 -0.5946  0.4875
17445TIP3    H173750   6.484   3.428  16.162  0.6548 -0.5065  0.8332
17445TIP3    H273751   6.474   3.539  16.265 -0.3884 -0.3439  0.5658
17446TIP3   OH273752   0.749   5.036   2.262  0.1046  0.5338  0.0890
17446TIP3    H173753   0.672   5.092   2.259  1.4616  2.4681  0.2711
17446TIP3    H273754   0.715   4.948   2.276 -2.0026  1.5057  1.2514
17447TIP3   OH273755   2.332   5.397   1.670  0.0816 -0.1190  0.5179
17447TIP3    H173756   2.318   5.307   1.639  3.3687 -0.7455  0.7056
17447TIP3    H273757   2.244   5.435   1.674 -1.2321 -2.8918 -0.8709
17448TIP3   OH273758   3.195   6.483  14.073 -0.0125  0.2601 -0.6912
17448TIP3    H173759   3.200   6.565  14.024 -0.2843  1.4058  1.1411
17448TIP3    H273760   3.235   6.504  14.158 -0.7084 -1.3184  0.0338
17449TIP3   OH273761   1.790   1.044  13.456 -0.5119 -0.4439  0.0331
17449TIP3    H173762   1.827   1.059  13.369  0.6760 -1.6965  0.3003
17449TIP3    H273763   1.704   1.086  13.453  0.5663  1.7525 -0.8830
17450TIP3   OH273764   1.471   3.694   3.313  1.0247 -0.6319  0.5834
17450TIP3    H173765   1.429   3.614   3.283  0.5392  0.5934 -2.1247
17450TIP3    H273766   1.560   3.688   3.279  1.0556 -0.1465  0.5799
17451TIP3   OH273767   4.739   1.884   0.315  0.0771 -0.1694  0.1425
17451TIP3    H173768   4.792   1.825   0.368 -0.1600  1.1577  1.8898
17451TIP3    H273769   4.802   1.941   0.271  0.1900  0.5812  1.2383
17452TIP3   OH273770   6.255   3.018   4.795  0.4098  0.5967  0.7321
17452TIP3    H173771   6.322   3.074   4.756 -0.5464  1.0347 -0.2916
17452TIP3    H273772   6.295   2.986   4.876  2.0493  0.4729 -0.0946
17453TIP3   OH273773   3.424   5.618  14.091 -0.1163  0.8407 -0.2926
17453TIP3    H173774   3.474   5.651  14.016  0.1737 -0.3053 -0.6156
17453TIP3    H273775   3.339   5.662  14.084  0.4423  1.9068 -0.4101
17454TIP3   OH273776   0.083   5.836   0.055  0.1533 -0.0935  0.4611
17454TIP3    H173777   0.099   5.749   0.018 -0.4215  0.2125 -0.5296
17454TIP3    H273778   0.117   5.896  -0.012 -0.7069  0.4655  0.5214
17455TIP3   OH273779   2.027   3.353   1.274  0.2586  0.3895 -0.6912
17455TIP3    H173780   2.049   3.441   1.304  0.7194 -0.5465  1.9023
17455TIP3    H273781   1.931   3.351   1.273  0.2557  1.4349 -2.3944
17456TIP3   OH273782   6.459   1.155   4.664 -0.4040  0.0665 -0.4938
17456TIP3    H173783   6.462   1.187   4.574 -1.1322 -1.5214 -1.1013
17456TIP3    H273784   6.366   1.160   4.688 -0.1583  0.9115  0.3426
17457TIP3   OH273785   1.457   2.812  14.878 -0.5999  0.2737 -0.1281
17457TIP3    H173786   1.433   2.757  14.952  0.3073 -0.2041 -0.1834
17457TIP3    H273787   1.385   2.874  14.870  1.2287  3.1876  3.8983
17458TIP3   OH273788   0.802   3.240   4.951 -0.0665  0.6445  0.0077
17458TIP3    H173789   0.714   3.204   4.965  1.3344 -3.3425 -0.6219
17458TIP3    H273790   0.848   3.222   5.033  1.5359 -1.9353 -1.3668
17459TIP3   OH273791   2.217   5.340   0.885 -0.4153 -0.1789 -0.0033
17459TIP3    H173792   2.300   5.324   0.839 -0.1896 -0.9440  0.6505
17459TIP3    H273793   2.189   5.253   0.913 -0.5631  0.2739  1.2662
17460TIP3   OH273794   1.159   4.034  13.868  0.2541  0.6221  0.4259
17460TIP3    H173795   1.143   3.958  13.811  1.4694 -0.0391  0.9644
17460TIP3    H273796   1.201   4.098  13.810  1.7130 -0.1407  0.6073
17461TIP3   OH273797   3.454   4.743  12.282  0.2052 -0.4331 -0.1033
17461TIP3    H173798   3.472   4.816  12.341 -1.2911 -0.4958  0.4365
17461TIP3    H273799   3.399   4.684  12.332 -0.2994 -0.9476 -1.2405
17462TIP3   OH273800   6.010   3.737  12.347 -1.0265  0.1205  0.2028
17462TIP3    H173801   5.974   3.651  12.327 -0.0442 -0.5160  1.1401
17462TIP3    H273802   5.967   3.796  12.285 -3.0834 -0.7349  0.7761
17463TIP3   OH273803   3.094   1.253  11.846  0.2948 -0.1994 -0.4605
17463TIP3    H173804   3.176   1.206  11.865 -0.2296 -1.2337 -0.7213
17463TIP3    H273805   3.074   1.300  11.926  0.4594 -0.9936  0.0586
17464TIP3   OH273806   4.902   5.699   2.467  0.4675  0.1433 -0.7513
17464TIP3    H173807   4.971   5.693   2.401  1.0313  0.6116 -0.2241
17464TIP3    H273808   4.927   5.635   2.534 -0.6488 -1.0562 -1.4750
17465TIP3   OH273809   1.256   4.635  16.140  0.7594  0.3132 -0.3044
17465TIP3    H173810   1.256   4.540  16.132  1.4092  0.2267  0.5112
17465TIP3    H273811   1.276   4.650  16.233 -0.9557  1.2229 -0.0623
17466TIP3   OH273812   5.020   6.719  14.034  0.2091 -0.0776  0.3033
17466TIP3    H173813   4.927   6.717  14.011 -0.1344 -0.6892  1.6914
17466TIP3    H273814   5.065   6.698  13.952 -0.8265  1.1039 -0.5926
17467TIP3   OH273815   3.942   2.385  13.585 -0.0849  0.0134 -0.8536
17467TIP3    H173816   3.918   2.418  13.672  0.7242  0.5507 -0.8253
17467TIP3    H273817   3.923   2.291  13.589  0.1526 -0.0060 -0.0150
17468TIP3   OH273818   3.188   2.155  12.508  0.0844 -0.0446  0.1429
17468TIP3    H173819   3.197   2.245  12.479  0.0090 -0.4024 -1.0123
17468TIP3    H273820   3.096   2.147  12.534  0.1597  0.2849  0.5134
17469TIP3   OH273821   3.622   5.279  11.404  0.1998  0.1354 -0.3104
17469TIP3    H173822   3.693   5.304  11.463  0.7307 -0.5632 -0.6507
17469TIP3    H273823   3.554   5.344  11.420  0.9977  0.9382 -0.1297
17470TIP3   OH273824   1.975   2.996   4.469  0.4197  0.0443 -0.8324
17470TIP3    H173825   2.063   3.007   4.433  0.1685  2.3208 -0.8543
17470TIP3    H273826   1.978   2.911   4.513  2.2073 -0.5327 -1.9834
17471TIP3   OH273827   2.122   2.005  11.375  0.0314 -0.3102 -0.4573
17471TIP3    H173828   2.049   2.021  11.434  1.7562  1.5991  1.2178
17471TIP3    H273829   2.124   1.910  11.364 -0.2877 -0.7160  2.6357
17472TIP3   OH273830   1.021   0.301  14.632 -0.1836  0.8125 -0.0402
17472TIP3    H173831   1.088   0.348  14.582  1.0891 -0.7832  0.1356
17472TIP3    H273832   1.054   0.212  14.638 -2.2519  0.0476  0.2302
17473TIP3   OH273833   5.437   0.125   4.564 -0.3030 -0.4533  0.6255
17473TIP3    H173834   5.451   0.031   4.563 -2.0109 -0.7354  1.1863
17473TIP3    H273835   5.399   0.144   4.478 -3.3768 -0.8750  1.8254
17474TIP3   OH273836   1.687   0.844  12.008 -0.0605  0.1518 -0.2847
17474TIP3    H173837   1.678   0.897  11.929  0.1182  0.1083 -0.3344
17474TIP3    H273838   1.699   0.755  11.976  1.7721  0.3632 -0.2659
17475TIP3   OH273839   4.562   2.511   4.298  0.1969 -0.3835  0.0832
17475TIP3    H173840   4.598   2.532   4.384  2.4263 -1.2439 -0.6117
17475TIP3    H273841   4.522   2.425   4.309  0.5375 -0.5225  0.2443
17476TIP3   OH273842   2.224   2.649  16.232 -0.4789  0.4342  0.0161
17476TIP3    H173843   2.209   2.740  16.257  1.0015  0.6411  0.2410
17476TIP3    H273844   2.303   2.652  16.178 -2.1736 -0.3307 -2.6053
17477TIP3   OH273845   3.478   5.872   0.511 -0.0470 -0.5623 -0.0614
17477TIP3    H173846   3.563   5.908   0.482 -1.3421  0.5837 -2.6121
17477TIP3    H273847   3.427   5.949   0.535 -0.7336 -1.1780  0.4359
17478TIP3   OH273848   0.352   1.065  11.546  0.0873 -0.1196  0.2288
17478TIP3    H173849   0.309   1.149  11.565  0.8580  1.1590 -3.2459
17478TIP3    H273850   0.292   0.999  11.580 -2.6000  1.7381 -0.7315
17479TIP3   OH273851   2.623   2.466  15.371 -0.4369 -0.0254 -0.6873
17479TIP3    H173852   2.695   2.511  15.327  0.1607 -0.7544 -0.4510
17479TIP3    H273853   2.628   2.497  15.462 -0.1553 -0.3977 -0.5735
17480TIP3   OH273854   3.024   6.610   5.573  0.3815 -0.5146 -0.3175
17480TIP3    H173855   2.948   6.554   5.560  0.0887 -0.1220 -0.3201
17480TIP3    H273856   2.999   6.694   5.534 -0.9252  1.0330  3.6357
17481TIP3   OH273857   5.312   2.519  17.191  0.0834 -0.2791 -0.1701
17481TIP3    H173858   5.359   2.452  17.142 -1.1442 -0.7768 -0.7093
17481TIP3    H273859   5.312   2.596  17.135  0.0619 -0.3447 -0.2599
17482TIP3   OH273860   1.789   3.231   1.668 -0.2278  0.2878 -0.2644
17482TIP3    H173861   1.803   3.320   1.702 -0.5460  0.3694 -0.3394
17482TIP3    H273862   1.876   3.199   1.646 -0.1182  0.6025 -0.2861
17483TIP3   OH273863   3.468   2.422  16.211 -0.3062 -0.5511 -0.3010
17483TIP3    H173864   3.562   2.410  16.226 -0.2756  0.9748  0.9323
17483TIP3    H273865   3.457   2.409  16.117  0.9411 -1.9108 -0.2975
17484TIP3   OH273866   4.699   3.961  11.087 -0.1517  0.2124  0.0964
17484TIP3    H173867   4.769   3.947  11.151 -0.3363  1.0017  0.4785
17484TIP3    H273868   4.680   4.055  11.094  0.3191  0.4503 -1.6201
17485TIP3   OH273869   0.348   2.045  13.677 -0.1289  0.0875  0.5313
17485TIP3    H173870   0.293   2.124  13.684 -0.2309  0.0786 -0.1289
17485TIP3    H273871   0.410   2.053  13.750  1.5914  2.1253 -1.0735
17486TIP3   OH273872   3.547   5.161   1.573  0.4908  0.6071  0.1506
17486TIP3    H173873   3.610   5.233   1.568  0.0790  0.7760 -3.3192
17486TIP3    H273874   3.461   5.204   1.569  0.1426  0.1887  2.3441
17487TIP3   OH273875   6.123   4.140   4.115 -1.2427 -0.4516 -0.1968
17487TIP3    H173876   6.157   4.225   4.087 -2.2367 -0.3743 -1.1798
17487TIP3    H273877   6.202   4.087   4.131 -0.6531  0.0451 -1.4447
17488TIP3   OH273878   5.602   4.912  16.108  0.3398  0.1237 -0.0945
17488TIP3    H173879   5.619   4.821  16.085  0.0854  0.1143 -0.2493
17488TIP3    H273880   5.611   4.914  16.203 -1.8213 -0.5568  0.1732
17489TIP3   OH273881   2.240   1.103  11.286 -0.4524 -0.6587 -0.1084
17489TIP3    H173882   2.331   1.108  11.314  0.0454 -1.6066 -1.5030
17489TIP3    H273883   2.244   1.084  11.193 -2.0657  2.4805 -0.8950
17490TIP3   OH273884   5.112   3.075   0.847 -0.0267 -0.5457  0.3984
17490TIP3    H173885   5.155   3.021   0.780  1.2128  0.2983  0.4931
17490TIP3    H273886   5.122   3.164   0.815 -0.0846 -0.1936  1.3552
17491TIP3   OH273887   1.811   5.083   2.295  0.0883 -0.0500 -0.3912
17491TIP3    H173888   1.742   5.069   2.359 -2.4463 -1.1106 -3.2553
17491TIP3    H273889   1.782   5.159   2.244  2.2991  1.0795 -0.0689
17492TIP3   OH273890   0.807   6.571  12.970 -0.0962 -0.3982  1.0704
17492TIP3    H173891   0.790   6.522  13.050 -0.6447 -0.4624  0.9174
17492TIP3    H273892   0.722   6.574  12.925 -0.7091  2.8576  2.2773
17493TIP3   OH273893   3.841   0.720   2.483 -0.1856 -0.1758 -0.5326
17493TIP3    H173894   3.837   0.788   2.550 -0.3048 -1.0205  0.3161
17493TIP3    H273895   3.753   0.719   2.445 -0.2635 -0.0574 -0.3549
17494TIP3   OH273896   0.603   2.055   6.154  0.8032 -0.3194 -0.4344
17494TIP3    H173897   0.658   1.978   6.170  1.2684  0.3195  1.1610
17494TIP3    H273898   0.659   2.129   6.175  0.3800  0.4859 -2.0312
17495TIP3   OH273899   0.867   1.480   2.824 -1.2831  0.8902  0.1692
17495TIP3    H173900   0.861   1.576   2.823 -0.2711  0.9554 -0.6482
17495TIP3    H273901   0.957   1.462   2.851 -0.5643  0.2208 -2.5501
17496TIP3   OH273902   1.862   5.349   5.870 -0.2166  1.0297  0.4153
17496TIP3    H173903   1.793   5.358   5.804 -1.1454  1.5824  1.4420
17496TIP3    H273904   1.930   5.298   5.827 -1.7655 -0.5212 -0.2472
17497TIP3   OH273905   5.429   2.608  11.080 -0.0431  0.2735  0.6520
17497TIP3    H173906   5.365   2.596  11.009  0.8215  0.3739 -0.1592
17497TIP3    H273907   5.469   2.693  11.061  0.3601  0.1898  1.1306
17498TIP3   OH273908   5.805   5.686   5.842 -0.0050  0.0023  0.7450
17498TIP3    H173909   5.835   5.761   5.790 -0.2942 -0.9427 -0.8295
17498TIP3    H273910   5.879   5.626   5.844 -0.1557 -0.1753  1.0039
17499TIP3   OH273911   3.370   0.735   0.085  0.2865  0.3523  0.0911
17499TIP3    H173912   3.389   0.641   0.083 -0.3991  0.2071  0.4097
17499TIP3    H273913   3.456   0.777   0.086  0.5909 -0.2849  0.5536
17500TIP3   OH273914   2.355   3.527  15.389  0.4951  0.5731  1.0390
17500TIP3    H173915   2.366   3.513  15.484  2.1239  0.7064  0.8824
17500TIP3    H273916   2.354   3.439  15.352  0.2194  0.5332  1.1383
17501TIP3   OH273917   2.667   1.276  15.357  0.0724 -0.4385  0.0273
17501TIP3    H173918   2.702   1.191  15.384  0.6932  0.0229  0.6682
17501TIP3    H273919   2.742   1.325  15.325 -0.1224  0.2255  0.5625
17502TIP3   OH273920   0.686   2.950   4.527 -0.0806  0.4050  0.2743
17502TIP3    H173921   0.781   2.939   4.534  0.0323  1.2940  0.3208
17502TIP3    H273922   0.670   3.035   4.570 -1.0308 -0.2697  1.2700
17503TIP3   OH273923   2.642   0.353   0.092 -0.3085 -0.0802  0.0404
17503TIP3    H173924   2.681   0.421   0.147 -1.8504  0.8529  0.0347
17503TIP3    H273925   2.588   0.301   0.153 -0.6791 -0.0840 -0.2874
17504TIP3   OH273926   0.237   2.070  13.018  0.0763  0.6295 -0.1508
17504TIP3    H173927   0.227   1.982  13.056 -0.7323 -0.2583 -2.3739
17504TIP3    H273928   0.163   2.120  13.053  0.0445  0.1859  0.4231
17505TIP3   OH273929   5.844   1.922   3.143 -0.3646 -0.0193 -0.3368
17505TIP3    H173930   5.776   1.928   3.076 -2.1489 -2.1703  1.2005
17505TIP3    H273931   5.897   1.847   3.116 -0.4630 -0.2542  0.1327
17506TIP3   OH273932   0.326   0.639  12.358  1.1169 -0.4206  0.0850
17506TIP3    H173933   0.327   0.552  12.396 -0.4022 -1.0761 -1.3265
17506TIP3    H273934   0.406   0.643  12.305  0.2489 -1.6588 -1.3525
17507TIP3   OH273935   4.541   2.523   3.333  0.3875  0.4807  0.3165
17507TIP3    H173936   4.472   2.524   3.399  0.6446  0.0648  0.6006
17507TIP3    H273937   4.609   2.580   3.368  0.0052  1.2314 -0.1658
17508TIP3   OH273938   1.894   5.857   1.695  0.3348 -0.4397 -0.4236
17508TIP3    H173939   1.904   5.914   1.619  1.2858 -1.2464 -0.9065
17508TIP3    H273940   1.902   5.916   1.770 -0.5100  0.3421 -0.9436
17509TIP3   OH273941   6.240   6.006   3.385  0.1965  0.1118  0.7229
17509TIP3    H173942   6.174   6.019   3.453 -0.7726  0.3173 -0.2332
17509TIP3    H273943   6.288   6.089   3.382 -0.2214  0.3516  0.6645
17510TIP3   OH273944   3.047   3.257  13.850 -0.6435 -0.3723 -0.0875
17510TIP3    H173945   3.108   3.329  13.866  1.0332 -2.0082  1.1412
17510TIP3    H273946   2.976   3.273  13.912  0.2193 -0.2991  0.9193
17511TIP3   OH273947   5.192   1.497  14.126 -0.4222  0.5644 -0.2504
17511TIP3    H173948   5.244   1.495  14.046  0.1777  3.3647 -0.0038
17511TIP3    H273949   5.256   1.518  14.195 -1.3747  0.9485  0.5255
17512TIP3   OH273950   5.949   0.219   5.303 -0.5607 -0.2585 -0.1498
17512TIP3    H173951   5.857   0.232   5.282 -0.9502 -0.4584  1.4259
17512TIP3    H273952   5.950   0.146   5.364  0.6974 -0.6174 -0.5853
17513TIP3   OH273953   0.843   5.500  11.147  0.7969 -0.2179  0.0263
17513TIP3    H173954   0.755   5.501  11.108 -0.1472  0.4070  2.0962
17513TIP3    H273955   0.894   5.559  11.092  0.3794 -1.8171 -2.1640
17514TIP3   OH273956   0.362   1.264  17.074  0.6146 -0.2596 -0.3780
17514TIP3    H173957   0.365   1.266  16.979  2.7817 -0.8186 -0.3512
17514TIP3    H273958   0.269   1.257  17.095 -0.1092  2.6024 -2.3801
17515TIP3   OH273959   1.777   5.325   3.065 -0.5015 -0.2637 -0.1034
17515TIP3    H173960   1.840   5.274   3.014 -0.5873 -0.2147 -0.2581
17515TIP3    H273961   1.710   5.261   3.090 -0.0641 -0.4494  0.5978
17516TIP3   OH273962   2.039   0.814   3.030 -0.2061  0.2605  0.1881
17516TIP3    H173963   1.953   0.816   2.988 -0.1889 -1.9950 -0.0386
17516TIP3    H273964   2.100   0.844   2.962 -0.6143  0.2465 -0.1835
17517TIP3   OH273965   5.168   0.383   3.770 -0.1753  0.2858 -0.3907
17517TIP3    H173966   5.256   0.357   3.797 -0.7775 -1.0437  0.3281
17517TIP3    H273967   5.178   0.409   3.678  0.9462  0.0672 -0.3401
17518TIP3   OH273968   0.866   1.627  12.207 -0.4618 -0.2701 -0.1112
17518TIP3    H173969   0.813   1.651  12.131 -0.2488  0.9447  0.1097
17518TIP3    H273970   0.823   1.549  12.243 -0.3828 -1.0295 -1.6530
17519TIP3   OH273971   2.938   1.172   3.100  0.1673 -0.3037 -0.0309
17519TIP3    H173972   2.965   1.118   3.025  1.6141  1.0449 -0.5146
17519TIP3    H273973   2.956   1.118   3.177  0.7948 -0.8375 -0.5499
17520TIP3   OH273974   3.818   0.886  13.875 -0.5729  0.2377  0.1585
17520TIP3    H173975   3.824   0.952  13.806  0.0921  0.2150  0.1867
17520TIP3    H273976   3.726   0.861  13.877 -0.5406 -0.0200 -0.9713
17521TIP3   OH273977   1.449   2.851  13.273 -0.0587 -0.7290  0.2245
17521TIP3    H173978   1.376   2.912  13.272 -0.4322 -1.1733 -1.2730
17521TIP3    H273979   1.515   2.892  13.329 -1.4854 -0.3794  1.6855
17522TIP3   OH273980   6.728   0.406   1.316 -0.5576  0.2560 -0.1250
17522TIP3    H173981   6.700   0.451   1.236  0.9275  2.7749  0.7326
17522TIP3    H273982   6.821   0.387   1.301 -0.4739  0.0058  0.6881
17523TIP3   OH273983   2.042   5.257   4.070 -0.1023  0.0409 -0.1830
17523TIP3    H173984   2.002   5.249   4.157 -0.3203  0.4147 -0.2491
17523TIP3    H273985   2.025   5.347   4.044 -2.3024 -0.7525 -1.6908
17524TIP3   OH273986   1.387   5.414  10.816  0.2371 -0.4738 -0.2290
17524TIP3    H173987   1.440   5.418  10.896  2.8043 -0.3737 -1.8806
17524TIP3    H273988   1.359   5.322  10.810  0.6530 -0.6440  0.4072
17525TIP3   OH273989   5.808   3.412  11.569 -0.5835 -0.5316  0.2120
17525TIP3    H173990   5.801   3.371  11.483  0.8558  0.6012 -0.4709
17525TIP3    H273991   5.860   3.491  11.554 -0.6232 -0.1223  2.0580
17526TIP3   OH273992   0.832   2.671  15.061  0.2590 -0.1266 -0.3895
17526TIP3    H173993   0.825   2.596  15.121 -0.6950  0.6824  0.5272
17526TIP3    H273994   0.751   2.719  15.073  1.1871  1.4728 -0.4207
17527TIP3   OH273995   4.600   5.923   1.045  0.7484  0.3145  0.3613
17527TIP3    H173996   4.539   5.880   0.984  1.5669  1.4593 -1.2819
17527TIP3    H273997   4.551   5.929   1.127 -0.7280 -0.3662 -0.4522
17528TIP3   OH273998   5.357   6.553  10.489  0.6165  0.3701 -0.4170
17528TIP3    H173999   5.420   6.491  10.453  1.7147  1.7685 -0.9557
17528TIP3    H274000   5.407   6.635  10.498 -1.2758  1.6761 -1.4520
17529TIP3   OH274001   1.639   1.653   0.885  0.0422  0.2229 -0.5155
17529TIP3    H174002   1.641   1.747   0.903  0.0279  0.5730 -2.2212
17529TIP3    H274003   1.728   1.633   0.855 -0.2576 -0.0707 -1.2280
17530TIP3   OH274004   2.708   3.357   5.409  0.2425  0.2297  0.1971
17530TIP3    H174005   2.672   3.412   5.340 -0.7754 -0.2018  0.3763
17530TIP3    H274006   2.670   3.271   5.394 -1.7978  0.6647  2.6261
17531TIP3   OH274007   5.861   2.138  14.362 -0.5969  0.2843  0.4167
17531TIP3    H174008   5.924   2.107  14.296 -0.9474  0.7060 -0.1146
17531TIP3    H274009   5.781   2.156  14.312 -1.1051 -0.1539  1.0811
17532TIP3   OH274010   4.918   0.252   4.933  0.1451 -0.1663 -0.5958
17532TIP3    H174011   4.988   0.263   4.998  0.4416 -1.1944 -0.7278
17532TIP3    H274012   4.837   0.271   4.981  0.2627 -2.0810  0.4171
17533TIP3   OH274013   0.837   1.466  17.223  0.6855  0.2579 -0.0216
17533TIP3    H174014   0.854   1.505  17.137  1.8214 -0.8956 -0.3238
17533TIP3    H274015   0.756   1.417  17.211  1.5812 -1.0418 -0.8133
17534TIP3   OH274016   5.435   1.635   0.901 -0.1678 -0.2792 -0.1797
17534TIP3    H174017   5.349   1.611   0.867  0.3950 -0.1619 -1.7462
17534TIP3    H274018   5.479   1.552   0.917 -0.3239 -0.3340 -0.0385
17535TIP3   OH274019   5.791   1.290   3.084 -0.3337  0.1177 -0.0672
17535TIP3    H174020   5.764   1.295   3.176 -1.6785  1.2905 -0.5139
17535TIP3    H274021   5.720   1.331   3.035  0.6390  0.0415 -1.5945
17536TIP3   OH274022   6.270   2.868  11.583  0.5184  0.5369 -0.0223
17536TIP3    H174023   6.262   2.963  11.578 -0.7465  0.4011 -0.8428
17536TIP3    H274024   6.187   2.838  11.619  2.1369 -0.0579  3.4468
17537TIP3   OH274025   2.004   4.188   3.561  0.1007 -0.2251 -0.2723
17537TIP3    H174026   2.024   4.274   3.525 -2.0406  0.8250  0.9650
17537TIP3    H274027   2.086   4.160   3.602  0.7820  1.2594 -0.6036
17538TIP3   OH274028   0.113   0.970   6.701  0.3715  0.2756 -0.3536
17538TIP3    H174029   0.025   0.931   6.702  1.5597 -2.5355  2.3970
17538TIP3    H274030   0.101   1.057   6.738 -1.7405  1.1864 -3.0332
17539TIP3   OH274031   6.689   6.670  13.628 -0.3962 -0.0284  0.3236
17539TIP3    H174032   6.714   6.753  13.585  0.1346 -0.1250  0.4495
17539TIP3    H274033   6.641   6.698  13.706  1.2883  0.1807  1.2827
17540TIP3   OH274034   1.531   3.043   2.176  0.1644  0.1825  0.0048
17540TIP3    H174035   1.511   3.132   2.203 -2.7147 -0.4514  0.1289
17540TIP3    H274036   1.458   3.019   2.119  1.4004 -1.7553 -0.7952
17541TIP3   OH274037   0.523   0.524  15.158  0.1003 -0.4444 -0.2766
17541TIP3    H174038   0.609   0.560  15.138  1.3193 -3.2413 -0.2864
17541TIP3    H274039   0.506   0.551  15.248  1.6293 -1.0215  0.2083
17542TIP3   OH274040   6.684   3.888  10.797  0.1580 -0.4933 -0.1853
17542TIP3    H174041   6.618   3.845  10.852 -1.0717  0.8300 -0.5783
17542TIP3    H274042   6.656   3.867  10.707 -0.6739  1.4125 -0.3871
17543TIP3   OH274043   4.071   4.405  10.968 -0.5734  0.3660 -0.0016
17543TIP3    H174044   3.988   4.362  10.989 -0.6138  0.7050  0.5457
17543TIP3    H274045   4.108   4.353  10.897 -0.4805 -0.7185  0.8506
17544TIP3   OH274046   6.211   5.217   5.340  0.0127 -0.6779 -0.0179
17544TIP3    H174047   6.282   5.180   5.287  0.3343  1.9619 -1.5289
17544TIP3    H274048   6.172   5.284   5.284 -0.2325  1.5791  2.7401
17545TIP3   OH274049   5.311   1.344   0.332  0.2835  0.3994  0.0611
17545TIP3    H174050   5.366   1.265   0.330  1.7240  1.3562  1.0818
17545TIP3    H274051   5.364   1.408   0.379 -0.4009  2.3496 -1.7817
17546TIP3   OH274052   5.241   4.964   0.038 -0.6610 -0.1199  0.3645
17546TIP3    H174053   5.305   4.896   0.015 -0.3532  0.2269  0.1970
17546TIP3    H274054   5.287   5.022   0.097 -0.5406  0.6261 -0.4564
17547TIP3   OH274055   0.647   0.705  11.580 -0.2459  0.4091 -0.5422
17547TIP3    H174056   0.687   0.743  11.502 -0.8946  0.3625 -0.9055
17547TIP3    H274057   0.556   0.688  11.555 -0.8403  1.6831  0.6566
17548TIP3   OH274058   3.103   6.764  14.417  0.9032  0.0049 -0.0401
17548TIP3    H174059   3.147   6.798  14.339  1.9936 -0.0457  0.5582
17548TIP3    H274060   3.171   6.719  14.466  0.4341  0.8406  1.4113
17549TIP3   OH274061   0.414   6.048  17.170 -0.4346  0.4589  0.8077
17549TIP3    H174062   0.417   6.089  17.256 -1.7441 -2.5985  2.4122
17549TIP3    H274063   0.325   6.011  17.164  0.3135 -1.1627 -0.9686
17550TIP3   OH274064   4.391   2.809   6.594 -0.2896  0.2897 -0.3295
17550TIP3    H174065   4.330   2.736   6.581 -0.1298  0.4505 -2.1622
17550TIP3    H274066   4.421   2.799   6.684 -3.2798  0.4144  0.7311
17551TIP3   OH274067   1.723   3.789   3.528  0.6906 -0.8031  0.4515
17551TIP3    H174068   1.665   3.823   3.596  0.8382 -1.5361  0.9442
17551TIP3    H274069   1.740   3.865   3.472  1.1457 -0.0168  1.6348
17552TIP3   OH274070   1.058   4.040   0.963  0.1653  0.9086  0.6131
17552TIP3    H174071   1.099   4.125   0.975  1.7617  0.2041  0.2983
17552TIP3    H274072   1.129   3.977   0.978 -1.8258 -0.5143  4.6475
17553TIP3   OH274073   0.404   0.539   2.774  0.5849  0.3373 -0.2680
17553TIP3    H174074   0.472   0.487   2.816  0.2172 -0.1062 -0.2113
17553TIP3    H274075   0.333   0.476   2.756 -0.2229  0.9816  0.5882
17554TIP3   OH274076   1.899   4.934   0.909 -0.1580  0.9066 -0.2128
17554TIP3    H174077   1.895   4.860   0.848  1.6592 -0.2960  1.0982
17554TIP3    H274078   1.808   4.961   0.919 -0.7122 -0.2893 -1.7293
17555TIP3   OH274079   3.726   5.550   0.296  0.4539 -0.1064 -0.1277
17555TIP3    H174080   3.715   5.455   0.295  0.5411 -0.1903  2.6739
17555TIP3    H274081   3.653   5.583   0.243 -1.2079 -1.6360  1.1226
17556TIP3   OH274082   2.271   0.869   1.182  0.2880  0.4773 -0.1217
17556TIP3    H174083   2.356   0.913   1.189  0.3336  0.4330 -0.4030
17556TIP3    H274084   2.288   0.779   1.209  0.7117  0.0062 -1.9098
17557TIP3   OH274085   5.732   4.581  12.996  0.0374  0.0628  0.9836
17557TIP3    H174086   5.818   4.538  13.003 -0.9173 -2.5961 -2.3352
17557TIP3    H274087   5.733   4.624  12.911 -1.3056  1.5206  1.6751
17558TIP3   OH274088   5.867   1.324   2.245 -0.0845  0.2796 -0.1155
17558TIP3    H174089   5.803   1.255   2.262  2.1852 -1.5117  1.5149
17558TIP3    H274090   5.814   1.402   2.225 -2.7211 -1.4105  0.0422
17559TIP3   OH274091   4.744   6.225  12.869  0.0005 -0.1487  0.6199
17559TIP3    H174092   4.707   6.137  12.864 -1.3579  0.2469  2.7921
17559TIP3    H274093   4.790   6.237  12.786 -1.6998 -2.0445 -0.6291
17560TIP3   OH274094   6.485   6.222   1.945 -0.3854  0.3957  0.4793
17560TIP3    H174095   6.529   6.211   2.029  1.5303  2.7131 -0.1672
17560TIP3    H274096   6.399   6.258   1.967 -0.2865  0.0149  1.4975
17561TIP3   OH274097   6.169   4.488   0.500  0.1040 -0.2134 -0.6138
17561TIP3    H174098   6.132   4.576   0.498 -0.4400 -0.4087  0.8223
17561TIP3    H274099   6.094   4.431   0.515  0.6658 -0.8096 -0.0916
17562TIP3   OH274100   4.405   5.051  12.216  0.2888  0.3900 -0.6937
17562TIP3    H174101   4.449   5.022  12.296 -0.9676  0.5862  0.0751
17562TIP3    H274102   4.412   4.977  12.156 -0.0629 -0.3031  0.1186
17563TIP3   OH274103   3.706   6.421  14.806  0.1183 -0.2992  0.5176
17563TIP3    H174104   3.798   6.393  14.810  0.5367  0.4708 -2.3502
17563TIP3    H274105   3.707   6.512  14.833  1.0694  1.2802 -4.3663
17564TIP3   OH274106   6.162   3.853  14.269 -0.2831 -0.1546 -0.0873
17564TIP3    H174107   6.140   3.829  14.359 -1.3127 -0.2952 -0.3682
17564TIP3    H274108   6.234   3.795  14.245  0.3812  0.2791  0.8390
17565TIP3   OH274109   5.864   5.033   3.599 -0.7861  0.3919  0.0042
17565TIP3    H174110   5.777   5.003   3.625  0.2164 -2.1759  0.4898
17565TIP3    H274111   5.874   5.005   3.509  0.7321 -2.1661  0.9124
17566TIP3   OH274112   3.491   4.803  13.418  0.2946 -0.6945  0.6547
17566TIP3    H174113   3.399   4.787  13.398  0.3122  0.4418 -0.3901
17566TIP3    H274114   3.516   4.875  13.360  1.8519 -1.0212  0.9006
17567TIP3   OH274115   5.277   6.603   5.742  1.0377  0.4362 -0.1297
17567TIP3    H174116   5.258   6.693   5.770 -2.0829  0.2142 -1.3648
17567TIP3    H274117   5.288   6.609   5.647 -0.8140 -0.7301 -0.4263
17568TIP3   OH274118   0.318   3.766  13.692 -0.3193  0.3334  0.5387
17568TIP3    H174119   0.308   3.777  13.787 -3.5928  0.9583  0.1748
17568TIP3    H274120   0.271   3.840  13.654 -1.6275 -1.5540 -1.6197
17569TIP3   OH274121   1.954   3.619  13.564  0.2269  0.5682  0.0647
17569TIP3    H174122   1.912   3.553  13.619  3.1734  0.1961  1.9836
17569TIP3    H274123   1.899   3.696  13.571 -3.4050 -1.6383 -2.3649
17570TIP3   OH274124   6.331   2.301  15.972 -0.0649  0.9178  0.2238
17570TIP3    H174125   6.423   2.273  15.970 -0.1500  0.5507  0.9833
17570TIP3    H274126   6.292   2.263  15.894  0.3866  0.9134 -0.0024
17571TIP3   OH274127   2.144   4.935  11.616 -0.1625  0.1631 -0.7582
17571TIP3    H174128   2.071   4.921  11.677  0.1322  0.9676 -0.2097
17571TIP3    H274129   2.105   4.981  11.542 -0.2595  0.3579 -0.5839
17572TIP3   OH274130   2.485   6.250   1.034 -0.0676  0.4069  0.4356
17572TIP3    H174131   2.476   6.155   1.033  1.2908  0.2650  0.2104
17572TIP3    H274132   2.396   6.283   1.038 -0.5262 -0.8947  1.2306
17573TIP3   OH274133   0.878   5.951   1.457 -0.0906  0.6076  0.4296
17573TIP3    H174134   0.887   5.859   1.481  0.7624  0.7425  0.6413
17573TIP3    H274135   0.783   5.967   1.458 -0.3206 -0.6194 -0.9390
17574TIP3   OH274136   1.122   0.542   1.313  0.1016  0.7424 -0.1999
17574TIP3    H174137   1.158   0.542   1.224 -1.0911 -1.6854 -0.7293
17574TIP3    H274138   1.131   0.451   1.342 -2.3300  0.8379  0.9587
17575TIP3   OH274139   5.962   3.182  15.500 -0.1718 -0.0147  0.1175
17575TIP3    H174140   5.962   3.106  15.558  2.7717 -0.4699 -0.4196
17575TIP3    H274141   6.003   3.251  15.552 -1.3552  0.7497  0.0341
17576TIP3   OH274142   1.544   4.046  10.408  0.2984 -0.2956  0.1514
17576TIP3    H174143   1.484   4.092  10.467 -0.9124 -1.6974  0.0344
17576TIP3    H274144   1.489   4.014  10.338  1.9496  2.8408 -2.7651
17577TIP3   OH274145   3.981   3.019   3.002  0.2656 -0.5801 -0.7257
17577TIP3    H174146   3.903   2.994   3.052  1.5840 -3.0910  0.1443
17577TIP3    H274147   3.977   2.965   2.923 -0.4286  1.4935 -2.1681
17578TIP3   OH274148   0.434   1.683   3.433 -0.0106 -0.3796 -0.7154
17578TIP3    H174149   0.436   1.592   3.402 -1.2832 -0.5405 -0.3342
17578TIP3    H274150   0.380   1.729   3.368 -1.7535 -0.4871  0.6316
17579TIP3   OH274151   1.291   3.365  15.415 -0.2233  0.3601 -0.1130
17579TIP3    H174152   1.271   3.399  15.503 -0.6457  2.0148 -0.8287
17579TIP3    H274153   1.348   3.432  15.376  1.1193 -1.0498 -0.5944
17580TIP3   OH274154   0.057   2.449  14.845 -0.5466  0.1329 -0.3036
17580TIP3    H174155   0.109   2.453  14.925  0.3667  1.4364 -0.9572
17580TIP3    H274156   0.103   2.387  14.789 -0.0831  0.7353 -0.5955
17581TIP3   OH274157   5.958   3.658  11.584 -0.0819  0.1617  0.0667
17581TIP3    H174158   6.017   3.685  11.514 -0.5270  1.0100  0.0160
17581TIP3    H274159   5.887   3.722  11.581 -0.4910 -0.2597  0.7873
17582TIP3   OH274160   6.404   3.266   3.854  1.1397  0.4989 -0.1868
17582TIP3    H174161   6.353   3.247   3.934  0.6369  0.0916 -0.5986
17582TIP3    H274162   6.339   3.266   3.784  1.8654 -1.1613 -0.8767
17583TIP3   OH274163   1.032   4.308   2.282  0.2048 -0.0316 -0.6748
17583TIP3    H174164   1.057   4.221   2.313 -1.7382 -0.4359 -0.1566
17583TIP3    H274165   0.969   4.292   2.213 -2.6101  0.9329  1.5581
17584TIP3   OH274166   1.085   6.230   5.697  0.0963  0.4284 -0.0161
17584TIP3    H174167   1.160   6.249   5.642  0.6197  0.2655  0.6262
17584TIP3    H274168   1.122   6.215   5.784 -0.5167 -1.1981 -0.0058
17585TIP3   OH274169   2.919   1.487  14.473 -0.8245  0.1266  0.3775
17585TIP3    H174170   3.002   1.455  14.439 -0.9505  0.3015 -0.0967
17585TIP3    H274171   2.923   1.470  14.567  0.6655  2.1859  0.7128
17586TIP3   OH274172   5.335   3.746   2.435 -0.1706  0.3673  0.2151
17586TIP3    H174173   5.293   3.731   2.520  2.5816  2.0616  1.9912
17586TIP3    H274174   5.424   3.712   2.447  0.3984  1.0975 -1.8299
17587TIP3   OH274175   6.703   2.251   0.571 -0.1742 -0.0462 -0.1482
17587TIP3    H174176   6.791   2.245   0.608  0.0414  0.9204 -0.4883
17587TIP3    H274177   6.663   2.166   0.590  0.3895 -0.0344  1.1126
17588TIP3   OH274178   1.013   4.414  12.215  0.7490 -0.0930 -0.1648
17588TIP3    H174179   0.936   4.392  12.267 -0.7341 -0.6120 -2.4941
17588TIP3    H274180   1.082   4.356  12.249 -0.0361 -0.0820  1.5117
17589TIP3   OH274181   1.501   2.446  15.276  1.1055  0.0254 -0.5881
17589TIP3    H174182   1.470   2.385  15.343  0.5090  1.4748  0.4957
17589TIP3    H274183   1.581   2.407  15.242 -0.2364 -2.2548 -1.2129
17590TIP3   OH274184   0.003   1.252  13.890 -0.3056 -0.2507 -0.0212
17590TIP3    H174185   0.008   1.293  13.976 -3.7271 -0.0703  0.1491
17590TIP3    H274186   0.051   1.311  13.832  0.0572  0.8035  1.3333
17591TIP3   OH274187   4.498   1.270  16.041  0.3401 -0.2825  0.0945
17591TIP3    H174188   4.496   1.190  16.093 -0.3037  0.0182  0.5275
17591TIP3    H274189   4.586   1.271  16.002  0.4252 -1.0813  0.2675
17592TIP3   OH274190   5.326   3.783   0.751 -0.3859  0.1836  0.2726
17592TIP3    H174191   5.327   3.749   0.840 -3.2059  1.8762  1.0174
17592TIP3    H274192   5.251   3.842   0.748  1.0882  2.0860 -2.5177
17593TIP3   OH274193   1.597   4.553   4.302 -0.1033 -0.0907 -0.5507
17593TIP3    H174194   1.652   4.613   4.252  1.0591 -0.5446  0.1323
17593TIP3    H274195   1.660   4.501   4.353 -1.0606 -2.0264 -1.2865
17594TIP3   OH274196   1.334   5.071  13.058  0.0542 -0.1740  0.4077
17594TIP3    H174197   1.316   4.980  13.033 -1.2390  0.5331 -1.4122
17594TIP3    H274198   1.341   5.118  12.974 -0.0393  1.5351  1.3268
17595TIP3   OH274199   0.031   3.624  10.714  0.0171 -0.5937  0.0519
17595TIP3    H174200   0.051   3.638  10.622 -1.4271  2.3012  0.1274
17595TIP3    H274201   0.096   3.676  10.762  0.2991 -1.4881  0.6602
17596TIP3   OH274202   3.017   1.251   5.502  0.3608  0.0895  0.6377
17596TIP3    H174203   3.054   1.316   5.441  1.4966 -0.7332  0.4351
17596TIP3    H274204   2.934   1.290   5.530 -0.3389  0.3525 -1.6621
17597TIP3   OH274205   0.905   4.058   2.107  0.2319  0.1259 -0.6650
17597TIP3    H174206   0.861   4.080   2.025  0.4581  1.4097 -0.4459
17597TIP3    H274207   0.834   4.056   2.172  0.6022  3.5012 -0.0547
17598TIP3   OH274208   1.434   5.623  15.517 -0.2269  0.1475  0.2110
17598TIP3    H174209   1.481   5.706  15.508 -0.4384  0.2959  0.5089
17598TIP3    H274210   1.373   5.637  15.588  0.3243 -0.5382  0.8260
17599TIP3   OH274211   6.648   0.925   2.624 -0.3875  0.0885  0.4178
17599TIP3    H174212   6.651   0.967   2.538  1.6648 -0.2774  0.2920
17599TIP3    H274213   6.608   0.991   2.682  0.8630  1.4234 -0.2166
17600TIP3   OH274214   2.944   1.679   3.014  0.0219 -0.4908  0.2664
17600TIP3    H174215   2.881   1.619   2.976 -0.1013  0.0505 -0.3850
17600TIP3    H274216   3.029   1.639   2.995 -0.0532 -0.3847 -0.2993
17601TIP3   OH274217   3.430   6.624   2.141 -0.1233 -0.5191 -0.4038
17601TIP3    H174218   3.502   6.579   2.098  1.3437  2.0856 -0.7393
17601TIP3    H274219   3.364   6.636   2.072  0.6956  0.3908 -1.0438
17602TIP3   OH274220   3.867   1.440   3.898 -0.1449  0.3457 -0.2420
17602TIP3    H174221   3.913   1.458   3.816  2.5143 -0.7707  0.9615
17602TIP3    H274222   3.936   1.435   3.964 -2.3118  2.0850  2.2605
17603TIP3   OH274223   4.102   2.748  11.324  0.4013  0.1771  0.8495
17603TIP3    H174224   4.173   2.810  11.307  0.5923 -0.4076 -0.5727
17603TIP3    H274225   4.023   2.794  11.296  0.7840 -1.0292 -2.4657
17604TIP3   OH274226   3.721   2.330  13.134 -0.3897  0.0530  0.0459
17604TIP3    H174227   3.781   2.356  13.064 -0.6508 -1.3930 -0.7342
17604TIP3    H274228   3.635   2.362  13.105 -0.3893  0.0251  0.0146
17605TIP3   OH274229   1.229   6.659  15.610 -0.2386  0.6366 -0.3391
17605TIP3    H174230   1.290   6.682  15.680  0.6487 -1.7625 -0.2717
17605TIP3    H274231   1.142   6.668  15.649  0.2482 -0.6307  1.0478
17606TIP3   OH274232   4.050   6.075   2.689  0.6315 -0.0903  0.5124
17606TIP3    H174233   4.026   5.984   2.675 -0.7528  0.5582 -1.6195
17606TIP3    H274234   4.100   6.099   2.611  0.2149  1.2142  0.6310
17607TIP3   OH274235   5.686   4.033   0.148 -0.0243  0.3926 -0.7506
17607TIP3    H174236   5.772   3.992   0.155  0.3610  1.2490 -0.2516
17607TIP3    H274237   5.658   4.015   0.059  0.1934 -0.8139 -0.5859
17608TIP3   OH274238   4.237   0.512  13.668  0.4220 -0.1246 -0.6774
17608TIP3    H174239   4.213   0.529  13.577  1.2182 -0.5204 -0.9668
17608TIP3    H274240   4.329   0.486  13.663  0.1791 -1.1262  0.1403
17609TIP3   OH274241   2.542   6.755  14.817 -0.1315 -0.4109 -0.1704
17609TIP3    H174242   2.597   6.800  14.754  0.3027 -0.6975 -0.0007
17609TIP3    H274243   2.491   6.693  14.765  0.0652 -0.4914 -0.2658
17610TIP3   OH274244   5.990   0.625   6.871 -0.5753  0.0825 -0.0272
17610TIP3    H174245   6.029   0.552   6.920  0.4344  1.1806  0.8299
17610TIP3    H274246   6.057   0.693   6.871 -2.4241  1.9927  1.4161
17611TIP3   OH274247   0.877   4.089   6.162  0.2390  0.5041 -0.0061
17611TIP3    H174248   0.797   4.100   6.111 -0.0767  1.7405  0.7553
17611TIP3    H274249   0.847   4.077   6.252  0.7880 -1.8831 -0.0948
17612TIP3   OH274250   1.691   4.682  13.027  0.1026  0.3589  0.1286
17612TIP3    H174251   1.759   4.647  12.969  0.7214  1.6413  0.0737
17612TIP3    H274252   1.728   4.764  13.060 -0.1937 -0.4019  2.4117
17613TIP3   OH274253   1.121   2.196   5.648  0.4088 -0.0911 -0.0545
17613TIP3    H174254   1.192   2.218   5.589  0.5229  1.9121  0.7869
17613TIP3    H274255   1.042   2.203   5.594  0.7164 -0.6654 -0.5748
17614TIP3   OH274256   4.312   5.498   2.423 -0.2202  0.6463  0.4069
17614TIP3    H174257   4.288   5.504   2.515  0.6894  0.0734  0.6837
17614TIP3    H274258   4.254   5.561   2.379 -1.0496  0.5089  1.2845
17615TIP3   OH274259   1.631   1.948  13.279  0.7179 -0.1059  0.3559
17615TIP3    H174260   1.619   1.967  13.186  0.7616  0.0856  0.3901
17615TIP3    H274261   1.611   2.031  13.323 -0.4421 -0.4975  0.5930
17616TIP3   OH274262   5.223   1.968  11.582  0.4620 -0.6699  0.3478
17616TIP3    H174263   5.182   1.964  11.496 -1.9795  3.0732  1.1759
17616TIP3    H274264   5.295   2.030  11.571  2.5022 -3.0397  0.1719
17617TIP3   OH274265   1.561   4.938   4.280  0.1585  0.2552  0.4035
17617TIP3    H174266   1.546   5.033   4.275  1.7498  0.4907 -0.0277
17617TIP3    H274267   1.480   4.904   4.318 -1.3041  1.5303 -1.4925
17618TIP3   OH274268   0.354   3.143   6.212 -0.0739  0.2391  0.2129
17618TIP3    H174269   0.428   3.125   6.270 -0.5876  1.0492  1.1329
17618TIP3    H274270   0.344   3.238   6.216  0.6002  0.4331 -2.0960
17619TIP3   OH274271   5.632   6.655   2.916 -0.3288 -0.0606  0.2353
17619TIP3    H174272   5.581   6.733   2.893 -0.3798  0.4098  1.9118
17619TIP3    H274273   5.720   6.688   2.933 -0.1364 -0.4948  0.0877
17620TIP3   OH274274   3.312   5.128  12.219  0.2813  0.0235  0.4428
17620TIP3    H174275   3.241   5.096  12.274  0.0904 -1.2676 -0.5448
17620TIP3    H274276   3.391   5.089  12.255  0.4997  1.3443  1.4512
17621TIP3   OH274277   2.909   3.784   2.521  0.0166 -0.1451  0.6950
17621TIP3    H174278   2.896   3.834   2.601 -1.4826 -0.1747  0.4811
17621TIP3    H274279   2.846   3.821   2.459  1.1788 -0.1004 -0.4810
17622TIP3   OH274280   5.896   2.493   2.845  0.0084  0.5274 -0.5745
17622TIP3    H174281   5.828   2.525   2.787 -1.2433 -0.5173  0.2873
17622TIP3    H274282   5.850   2.434   2.906  1.5647  0.2874  0.3962
17623TIP3   OH274283   4.876   0.009  16.242  0.3580 -0.3380  0.1914
17623TIP3    H174284   4.902  -0.082  16.253  1.7873 -0.0526 -0.7204
17623TIP3    H274285   4.890   0.048  16.329  0.1003 -0.8848  0.4848
17624TIP3   OH274286   0.034   0.006  11.371  0.6189  0.3977 -0.7170
17624TIP3    H174287  -0.003   0.094  11.362  3.0854  1.4351 -0.9246
17624TIP3    H274288   0.043  -0.007  11.466 -0.3688  0.0909 -0.6610
17625TIP3   OH274289   1.183   4.366   0.343  0.6610 -0.0783 -0.3781
17625TIP3    H174290   1.240   4.438   0.318  1.0123 -0.3698 -0.4175
17625TIP3    H274291   1.199   4.353   0.436  1.0675 -0.5234 -0.5083
17626TIP3   OH274292   6.126   5.744  16.340  0.1455 -0.4767  0.1103
17626TIP3    H174293   6.078   5.663  16.323 -0.2321 -0.4703  1.1000
17626TIP3    H274294   6.217   5.716  16.351  0.0270 -0.7562  0.3769
17627TIP3   OH274295   0.812   0.930  16.333 -0.5701 -0.2905  0.0104
17627TIP3    H174296   0.742   0.866  16.326 -3.6604  2.5615  2.7484
17627TIP3    H274297   0.794   0.993  16.263 -0.6690  0.3284  0.5783
17628TIP3   OH274298   6.357   2.910  12.546  0.6771  0.0214 -0.6957
17628TIP3    H174299   6.265   2.909  12.573  0.8469 -1.6674 -0.1587
17628TIP3    H274300   6.404   2.943  12.623  0.7408 -1.0737 -0.2640
17629TIP3   OH274301   2.035   4.456   2.134 -0.2807 -0.0183  0.0761
17629TIP3    H174302   2.040   4.480   2.041 -1.8390 -0.6368 -0.1731
17629TIP3    H274303   2.007   4.536   2.178 -0.5528 -0.0022 -0.1234
17630TIP3   OH274304   0.961   4.275  15.982 -0.8599 -0.4697  0.0903
17630TIP3    H174305   0.953   4.320  15.898 -0.5711 -2.2150 -0.8783
17630TIP3    H274306   1.036   4.317  16.024 -0.3956 -0.2590 -0.9315
17631TIP3   OH274307   3.680   1.556   0.264 -0.5113  0.0669  0.0632
17631TIP3    H174308   3.608   1.529   0.207 -0.1490  2.0056 -1.3244
17631TIP3    H274309   3.664   1.649   0.281  2.1083  0.7194 -0.9145
17632TIP3   OH274310   1.593   6.499  11.760  0.3638  0.2579 -0.3640
17632TIP3    H174311   1.539   6.564  11.805 -0.1617 -0.9641  0.8073
17632TIP3    H274312   1.582   6.520  11.667 -0.0478  1.6412 -0.0198
17633TIP3   OH274313   3.690   5.170  15.123  0.3909 -0.7480  0.2335
17633TIP3    H174314   3.784   5.153  15.130  0.3905 -1.6024 -1.6649
17633TIP3    H274315   3.651   5.084  15.106 -0.8009 -0.4672  1.4038
17634TIP3   OH274316   3.490   3.367   1.075  1.0868  0.7924 -0.1700
17634TIP3    H174317   3.438   3.430   1.125  1.5531 -0.5379  2.0530
17634TIP3    H274318   3.580   3.399   1.083  1.2054  0.3837  0.1438
17635TIP3   OH274319   6.438   4.549   1.586 -0.3112 -0.2587 -0.1426
17635TIP3    H174320   6.487   4.618   1.630  0.1438 -0.3901 -0.4414
17635TIP3    H274321   6.379   4.596   1.526 -0.2110 -0.1170 -0.1307
17636TIP3   OH274322   3.093   3.064   2.766  0.4943  0.2624 -0.6485
17636TIP3    H174323   3.150   3.116   2.823  1.1518 -1.1667  0.0263
17636TIP3    H274324   3.145   2.987   2.744 -1.7289 -1.9286  1.3585
17637TIP3   OH274325   1.340   4.461   2.535 -0.7587  0.1676 -0.8713
17637TIP3    H174326   1.382   4.399   2.475  0.7099  1.5155 -1.2813
17637TIP3    H274327   1.352   4.422   2.622  0.1208 -0.1603 -1.1323
17638TIP3   OH274328   5.620   1.316  16.468  0.0041  0.0097 -0.2011
17638TIP3    H174329   5.540   1.267  16.486 -0.6525  0.4217 -1.8380
17638TIP3    H274330   5.612   1.396  16.520  0.2941 -0.8392  1.1685
17639TIP3   OH274331   2.218   0.656   0.924 -0.2850  0.0338 -0.2972
17639TIP3    H174332   2.258   0.686   0.842 -0.7895  1.3036 -0.0857
17639TIP3    H274333   2.290   0.658   0.987 -0.2691  0.5967 -0.3337
17640TIP3   OH274334   2.471   5.747   0.740  0.2540  0.0612  0.9823
17640TIP3    H174335   2.523   5.731   0.818  0.7590 -1.9949  0.2811
17640TIP3    H274336   2.501   5.681   0.677 -1.3470  0.5356 -0.3441
17641TIP3   OH274337   0.655   6.442  10.676 -0.2142 -0.2411  0.1858
17641TIP3    H174338   0.631   6.450  10.584  1.6549  0.5124 -0.2687
17641TIP3    H274339   0.651   6.531  10.710 -1.1379 -0.5475  0.9153
17642TIP3   OH274340   5.153   1.441  15.275  0.0292  0.2439 -0.4722
17642TIP3    H174341   5.136   1.388  15.353 -0.0371  0.8590 -0.0637
17642TIP3    H274342   5.155   1.378  15.203  0.2845 -0.3556  0.0541
17643TIP3   OH274343   0.404   5.417   3.367 -0.0895  0.3212 -0.1702
17643TIP3    H174344   0.346   5.344   3.347  0.0798  0.6202 -1.7707
17643TIP3    H274345   0.376   5.446   3.454  1.0625 -2.8046  1.3104
17644TIP3   OH274346   0.533   0.705   4.214  0.1712  0.2703  0.8335
17644TIP3    H174347   0.520   0.799   4.230 -2.3096  0.1020  0.0493
17644TIP3    H274348   0.445   0.670   4.203  1.1992 -1.6305 -1.9715
17645TIP3   OH274349   1.927   5.174   5.645  0.8031 -0.0844  0.2923
17645TIP3    H174350   1.964   5.086   5.635  1.8399  0.4011 -0.2011
17645TIP3    H274351   1.971   5.227   5.579 -1.2234  0.3887 -0.7472
17646TIP3   OH274352   0.686   6.604   6.591 -0.2850  0.4354  0.7560
17646TIP3    H174353   0.647   6.684   6.627  1.6639  0.6938  2.3335
17646TIP3    H274354   0.780   6.620   6.594  0.1052 -1.7519  0.6332
17647TIP3   OH274355   6.231   1.223   0.264 -0.2179  0.4561  0.0911
17647TIP3    H174356   6.201   1.135   0.285 -0.5740  0.8330  1.1497
17647TIP3    H274357   6.227   1.271   0.347  2.4627  0.7485  0.0944
17648TIP3   OH274358   5.634   5.533  12.777  0.0970 -0.2962 -0.2288
17648TIP3    H174359   5.675   5.596  12.718  2.9262 -2.2077 -0.4173
17648TIP3    H274360   5.602   5.463  12.719 -2.5686  0.6708  0.0179
17649TIP3   OH274361   1.277   5.246   2.081 -0.4085 -0.8255  0.1179
17649TIP3    H174362   1.362   5.203   2.087  0.2593  0.1050 -2.2274
17649TIP3    H274363   1.222   5.182   2.036 -0.7480 -1.1035  0.9136
17650TIP3   OH274364   6.761   6.750   3.770  0.0186 -0.3285 -0.4824
17650TIP3    H174365   6.843   6.796   3.787 -0.2046 -0.4231  0.9140
17650TIP3    H274366   6.769   6.668   3.818 -1.1770 -0.0273  0.2386
17651TIP3   OH274367   1.283   1.190  14.911  0.0267  0.1935  0.6400
17651TIP3    H174368   1.262   1.258  14.848 -1.0708 -0.2678  0.5074
17651TIP3    H274369   1.378   1.176  14.901 -0.4167 -1.1776 -2.2085
17652TIP3   OH274370   2.064   5.818   2.567  0.4661  0.2965 -0.1721
17652TIP3    H174371   2.129   5.882   2.537 -0.2150  1.4469  0.7761
17652TIP3    H274372   2.095   5.735   2.531  0.1728  1.4520 -3.2939
17653TIP3   OH274373   4.106   6.705   5.888  0.6933 -0.0654 -0.3014
17653TIP3    H174374   4.163   6.630   5.907  0.8957 -0.0135 -0.6977
17653TIP3    H274375   4.135   6.773   5.949  1.2563  0.0610 -0.7090
17654TIP3   OH274376   3.550   2.394  11.796  0.7132 -0.3938 -0.7501
17654TIP3    H174377   3.548   2.381  11.891 -0.0488 -2.2067 -0.9966
17654TIP3    H274378   3.466   2.436  11.776  0.3662 -1.0977 -0.7716
17655TIP3   OH274379   3.597   1.304  16.406  0.2578  0.1007  0.6716
17655TIP3    H174380   3.649   1.269  16.478 -0.7968 -0.2193  1.2882
17655TIP3    H274381   3.545   1.374  16.445 -0.7795 -0.4867  0.3785
17656TIP3   OH274382   3.707   5.152   1.219 -0.2135  0.6763 -0.8409
17656TIP3    H174383   3.720   5.118   1.130 -1.2645 -0.2379 -0.6543
17656TIP3    H274384   3.629   5.208   1.212 -0.1037  0.8617 -0.5681
17657TIP3   OH274385   4.592   6.494   4.251  0.0507 -0.0686 -0.1754
17657TIP3    H174386   4.676   6.501   4.206  0.0376  1.6707  0.0320
17657TIP3    H274387   4.533   6.456   4.186  1.0320 -1.4468 -0.2694
17658TIP3   OH274388   3.913   2.304   4.311 -0.3286  0.0941  0.2466
17658TIP3    H174389   3.925   2.347   4.226 -0.8526  0.0073  0.1223
17658TIP3    H274390   3.996   2.317   4.357 -0.0135  0.0740 -0.3108
17659TIP3   OH274391   5.070   2.008  11.053  0.1793  0.5859  0.2880
17659TIP3    H174392   5.150   2.060  11.053  1.3264 -1.1199  0.0963
17659TIP3    H274393   5.010   2.055  10.995  2.1935  0.2093 -2.1641
17660TIP3   OH274394   1.598   4.367   5.900  0.5102 -0.3729 -0.1426
17660TIP3    H174395   1.554   4.449   5.923 -0.2217 -0.2418 -1.9502
17660TIP3    H274396   1.538   4.322   5.841  0.6267 -2.5250  1.2953
17661TIP3   OH274397   1.871   1.008   1.401 -0.2354  0.3484 -0.0426
17661TIP3    H174398   1.927   0.942   1.360  0.0324  1.1852 -1.0604
17661TIP3    H274399   1.784   0.994   1.362 -0.3811  0.0265  0.3999
17662TIP3   OH274400   5.943   0.925   4.896 -0.0171 -0.3581  0.4117
17662TIP3    H174401   5.904   0.887   4.974  0.2620  0.4950  0.9678
17662TIP3    H274402   5.873   0.976   4.856  0.2646  0.4229  0.9133
17663TIP3   OH274403   3.145   0.036  13.557 -1.0547  0.0906 -0.1989
17663TIP3    H174404   3.214   0.046  13.623  0.2029 -1.0902 -1.3213
17663TIP3    H274405   3.066   0.017  13.608 -0.0535 -1.0466  0.9708
17664TIP3   OH274406   3.771   4.945  15.495 -0.2994 -0.2336  0.1787
17664TIP3    H174407   3.757   4.878  15.428  3.0639 -0.4490 -0.3701
17664TIP3    H274408   3.723   5.021  15.463  2.8832  0.3151 -3.5606
17665TIP3   OH274409   6.128   1.419  17.049  0.0641 -0.1372  0.0561
17665TIP3    H174410   6.154   1.510  17.032  0.9383 -0.5341 -0.8092
17665TIP3    H274411   6.177   1.368  16.983 -1.0192 -1.1521  0.0318
17666TIP3   OH274412   6.732   6.215  16.781  0.2196 -0.0669 -0.4825
17666TIP3    H174413   6.779   6.133  16.801 -1.1126 -0.5178  0.8912
17666TIP3    H274414   6.646   6.186  16.752  0.2593  0.8247 -1.5171
17667TIP3   OH274415   3.228   0.361  13.998 -0.0519 -0.0559  0.1917
17667TIP3    H174416   3.304   0.418  14.012 -1.3611  1.6124  0.6627
17667TIP3    H274417   3.161   0.419  13.961 -0.4125 -1.9710 -2.2704
17668TIP3   OH274418   5.459   6.617   3.336  0.9495  0.2086  0.0310
17668TIP3    H174419   5.552   6.619   3.315  1.1943  4.4190  1.0978
17668TIP3    H274420   5.455   6.597   3.430  0.8638  1.0001  0.2039
17669TIP3   OH274421   1.424   5.406  12.036  0.2480 -0.0628 -0.2400
17669TIP3    H174422   1.495   5.343  12.046 -0.5978 -0.9615  0.1784
17669TIP3    H274423   1.456   5.485  12.079  1.0493 -0.4131 -0.1729
17670TIP3   OH274424   1.838   6.087  13.267  0.1041 -0.3268 -0.2025
17670TIP3    H174425   1.904   6.125  13.209 -0.0896  0.0448 -0.1793
17670TIP3    H274426   1.822   6.154  13.333 -1.3251  0.1642 -1.0129
17671TIP3   OH274427   0.048   1.803   5.556 -0.2351 -0.3946 -0.2516
17671TIP3    H174428   0.119   1.789   5.493 -0.5225 -1.0402 -0.4386
17671TIP3    H274429   0.050   1.897   5.573  0.2060 -0.2961 -0.8024
17672TIP3   OH274430   4.172   6.606  16.764  0.3242  0.3914  0.2379
17672TIP3    H174431   4.234   6.671  16.730 -2.3426  1.4792 -2.8694
17672TIP3    H274432   4.186   6.528  16.710  0.3728 -0.0344  0.8652
17673TIP3   OH274433   5.773   4.031   0.421  0.1522  0.0142 -0.1761
17673TIP3    H174434   5.856   4.040   0.468 -0.0769 -1.1929  0.4583
17673TIP3    H274435   5.799   4.001   0.334  0.2961 -1.5711  0.4111
17674TIP3   OH274436   0.946   0.786   2.451  0.1158 -0.0698 -0.7836
17674TIP3    H174437   1.002   0.709   2.439 -0.2269 -0.4455 -0.0521
17674TIP3    H274438   0.863   0.750   2.483  0.3339  0.7003  0.6806
17675TIP3   OH274439   2.480   0.016   3.064  0.0623  0.1534  0.5385
17675TIP3    H174440   2.519  -0.072   3.057  0.7074  0.3273  1.8690
17675TIP3    H274441   2.509   0.048   3.149 -2.0793  0.7372  1.0788
17676TIP3   OH274442   6.242   1.565  13.989 -0.3334 -0.2546  0.1617
17676TIP3    H174443   6.211   1.474  13.993 -0.0830 -0.3557 -0.2510
17676TIP3    H274444   6.299   1.568  13.913  0.5558 -0.0207  0.8358
17677TIP3   OH274445   3.784   1.996   6.461 -0.0473  0.6985 -0.0375
17677TIP3    H174446   3.846   1.943   6.510 -0.1594  0.5160 -0.0939
17677TIP3    H274447   3.701   1.949   6.467 -0.5173  1.6859  1.2604
17678TIP3   OH274448   3.652   4.365   0.265  0.3706  0.7055  0.2424
17678TIP3    H174449   3.740   4.338   0.293  0.5032  0.2015 -0.6339
17678TIP3    H274450   3.667   4.442   0.211  0.3395  0.2313 -0.4506
17679TIP3   OH274451   5.694   0.894  13.086  0.3974  0.2863 -0.3765
17679TIP3    H174452   5.704   0.802  13.109  0.6988  0.9314  2.2007
17679TIP3    H274453   5.777   0.935  13.112  0.0888  1.3786 -1.0633
17680TIP3   OH274454   3.442   2.743   1.880 -0.6824 -0.2084 -0.4761
17680TIP3    H174455   3.423   2.819   1.935 -0.8938 -1.1455  0.7545
17680TIP3    H274456   3.385   2.755   1.803  0.8877  2.0031 -1.3562
17681TIP3   OH274457   3.778   3.973  15.473 -0.0909  0.3083 -0.1630
17681TIP3    H174458   3.863   4.006  15.502  0.1919  1.0848 -1.8039
17681TIP3    H274459   3.767   4.009  15.385 -2.0853  0.1272 -0.0117
17682TIP3   OH274460   2.506   4.956   5.557 -0.0746  0.0483 -0.3857
17682TIP3    H174461   2.463   4.897   5.494  0.9260 -2.6703  1.3966
17682TIP3    H274462   2.502   5.042   5.515 -0.4860 -1.4638 -3.6418
17683TIP3   OH274463   2.705   1.611  16.389  0.1380  0.0137  0.3328
17683TIP3    H174464   2.753   1.692  16.372  1.4650 -0.5747  1.1875
17683TIP3    H274465   2.760   1.543  16.351  0.0097 -0.6815  1.3810
17684TIP3   OH274466   0.365   5.764  11.921 -0.1559 -0.0258  0.4498
17684TIP3    H174467   0.327   5.687  11.962  0.0029 -0.6151 -0.4861
17684TIP3    H274468   0.292   5.826  11.914  0.2308  0.8143  3.2818
17685TIP3   OH274469   1.070   1.170   4.562 -0.6997 -0.2486 -0.1835
17685TIP3    H174470   1.081   1.082   4.598 -1.3033 -1.3559 -2.6043
17685TIP3    H274471   1.103   1.163   4.472 -1.3517  1.8384 -0.5989
17686TIP3   OH274472   0.419   3.636  13.116 -0.4735 -0.1409  0.1670
17686TIP3    H174473   0.409   3.622  13.211 -1.0132  1.8275  0.4119
17686TIP3    H274474   0.477   3.564  13.088 -0.4152 -0.8280  1.9562
17687TIP3   OH274475   4.312   2.416  14.213 -0.2958  0.3910  0.0551
17687TIP3    H174476   4.228   2.384  14.180  1.4879 -2.0718 -2.2818
17687TIP3    H274477   4.347   2.468  14.141  0.4392  0.9579  0.8151
17688TIP3   OH274478   3.008   3.877  14.300  0.5102 -0.6091  0.2872
17688TIP3    H174479   2.912   3.873  14.302  0.4912 -1.3205 -1.3953
17688TIP3    H274480   3.036   3.814  14.366 -0.1648 -0.9673  0.2315
17689TIP3   OH274481   4.006   0.013   4.160 -0.7227 -0.7170 -0.7294
17689TIP3    H174482   3.957   0.085   4.119 -1.2567 -0.8497 -0.3222
17689TIP3    H274483   3.945  -0.060   4.160 -1.1283 -0.3918  1.3474
17690TIP3   OH274484   2.986   0.561  16.214 -0.5055 -0.0681  0.3883
17690TIP3    H174485   3.004   0.653  16.199 -0.5218 -0.3874 -1.7787
17690TIP3    H274486   2.928   0.559  16.290  0.3266  1.6131  1.0917
17691TIP3   OH274487   5.088   5.871   4.722  0.5077 -0.2888  0.3195
17691TIP3    H174488   5.181   5.849   4.714  0.4994  0.6157 -2.6401
17691TIP3    H274489   5.087   5.954   4.770  1.4059  1.0324 -1.8859
17692TIP3   OH274490   1.014   2.852  11.779 -0.8765  0.0672 -0.0923
17692TIP3    H174491   1.046   2.938  11.752 -0.7819 -0.0761 -0.4320
17692TIP3    H274492   1.077   2.790  11.743 -1.7045 -0.2344 -1.0274
17693TIP3   OH274493   4.444   3.015   5.784 -0.2096 -0.4620  0.2250
17693TIP3    H174494   4.438   3.032   5.878 -1.9501  0.6606 -0.0519
17693TIP3    H274495   4.479   3.097   5.748  0.6977 -0.9811 -0.0771
17694TIP3   OH274496   5.885   1.101   3.464  0.1047  0.3125  0.6453
17694TIP3    H174497   5.801   1.108   3.419 -0.7273 -0.2785  2.0994
17694TIP3    H274498   5.925   1.023   3.425  0.3775  1.0744 -0.6556
17695TIP3   OH274499   2.769   6.757   4.304  0.3002 -0.4935  0.0895
17695TIP3    H174500   2.789   6.789   4.216 -1.9900  1.7618  0.3276
17695TIP3    H274501   2.796   6.665   4.303  0.5283 -0.4381 -2.8754
17696TIP3   OH274502   3.959   1.245   4.574 -0.3672 -0.3064  0.1673
17696TIP3    H174503   4.039   1.229   4.523 -1.9169  1.2474 -2.9324
17696TIP3    H274504   3.987   1.302   4.645  1.7323 -1.8357  0.6185
17697TIP3   OH274505   0.988   2.839  12.339  0.4084  0.1797 -0.2751
17697TIP3    H174506   1.020   2.759  12.380 -0.3966 -0.2118 -0.4067
17697TIP3    H274507   1.049   2.855  12.266  1.6300  0.6802  0.8183
17698TIP3   OH274508   6.772   6.321  13.727 -0.1800 -0.4316  0.1897
17698TIP3    H174509   6.818   6.398  13.694 -0.1717  0.3412  1.9809
17698TIP3    H274510   6.747   6.273  13.648  2.9619 -0.4571 -0.8580
17699TIP3   OH274511   5.976   3.455  12.304 -0.0612 -0.0137  0.4858
17699TIP3    H174512   5.947   3.441  12.215  1.5635  0.7198 -0.1873
17699TIP3    H274513   6.022   3.375  12.328 -0.3429 -0.1405  0.6023
17700TIP3   OH274514   3.248   4.623  10.696 -0.7629 -0.1866  0.3415
17700TIP3    H174515   3.210   4.549  10.649 -4.1211  1.7005 -0.1126
17700TIP3    H274516   3.267   4.588  10.783  0.3683 -2.2848 -0.7079
17701TIP3   OH274517   1.002   1.969  12.578 -0.1571 -0.4724 -0.0095
17701TIP3    H174518   0.944   1.903  12.541 -1.5181 -1.3313  3.5201
17701TIP3    H274519   0.992   1.960  12.673  1.5504  3.1155  0.5873
17702TIP3   OH274520   0.328   3.683   0.346  0.5049 -0.3195 -0.5600
17702TIP3    H174521   0.391   3.741   0.388 -0.1269  0.2702 -0.4015
17702TIP3    H274522   0.346   3.692   0.252  0.2462  0.3414 -0.5538
17703TIP3   OH274523   5.494   0.588   2.923  0.2497 -0.2895 -0.4650
17703TIP3    H174524   5.496   0.629   2.836 -0.8095 -1.8633 -1.2533
17703TIP3    H274525   5.505   0.495   2.906 -1.0054 -0.7247  0.9994
17704TIP3   OH274526   4.720   1.962   2.027 -0.6005  0.0584  0.2290
17704TIP3    H174527   4.656   1.955   1.956 -0.3636  0.4580 -0.0302
17704TIP3    H274528   4.691   2.037   2.078 -1.2050 -0.7030  1.0030
17705TIP3   OH274529   4.353   6.104   6.756 -0.2643 -0.2658  1.0276
17705TIP3    H174530   4.264   6.068   6.749 -0.1995 -0.4403  1.0984
17705TIP3    H274531   4.401   6.040   6.809  0.7782 -1.8460 -1.6735
17706TIP3   OH274532   5.074   0.694  12.833 -0.2830 -0.0029 -0.0450
17706TIP3    H174533   5.069   0.626  12.766  3.0383  0.2793 -0.7084
17706TIP3    H274534   5.097   0.773  12.784 -0.6116  0.8153  1.1092
17707TIP3   OH274535   2.545   5.026   0.625  0.3122  0.4820  0.4517
17707TIP3    H174536   2.583   5.010   0.712 -0.8236  0.7511  1.0047
17707TIP3    H274537   2.517   4.940   0.595  0.8729  0.3602  0.2713
17708TIP3   OH274538   6.787   1.032  15.510 -0.4981  0.1592  0.2513
17708TIP3    H174539   6.877   1.016  15.483 -0.0965  0.6576  1.2972
17708TIP3    H274540   6.748   0.945  15.520 -0.7934 -0.0719 -2.3310
17709TIP3   OH274541   0.541   3.087  15.527 -0.0575 -0.6953  0.0167
17709TIP3    H174542   0.563   3.130  15.610 -1.3126  1.3249 -0.6698
17709TIP3    H274543   0.619   3.099  15.472  0.7702 -2.0246  0.8742
17710TIP3   OH274544   1.682   1.648  16.461  0.5757  0.1188  0.3036
17710TIP3    H174545   1.733   1.656  16.380  0.4534  2.4837  0.4042
17710TIP3    H274546   1.602   1.604  16.434  0.6398  0.6696 -0.8400
17711TIP3   OH274547   1.964   6.042   1.510  0.0375  0.2775 -0.2493
17711TIP3    H174548   1.886   6.049   1.454  0.6486 -1.0158 -1.2922
17711TIP3    H274549   2.031   6.093   1.464  0.5231 -0.7315 -0.6746
17712TIP3   OH274550   3.630   3.369  10.440 -0.3133  0.1651 -0.0857
17712TIP3    H174551   3.664   3.349  10.353 -1.5782 -0.9233 -0.3495
17712TIP3    H274552   3.705   3.355  10.498 -0.0515 -1.3319 -0.7522
17713TIP3   OH274553   0.788   2.384   0.560  0.0740 -0.1261  0.4027
17713TIP3    H174554   0.820   2.342   0.480  2.2802 -0.8434  1.6366
17713TIP3    H274555   0.693   2.372   0.556  0.0224  0.9421 -2.7066
17714TIP3   OH274556   2.789   4.333  15.519 -0.1457  0.0822 -0.3052
17714TIP3    H174557   2.878   4.307  15.499  0.2548  0.6007  0.7295
17714TIP3    H274558   2.742   4.251  15.534  0.1591 -0.1898 -0.8585
17715TIP3   OH274559   0.455   0.979   5.935 -0.1184  0.3606 -1.4218
17715TIP3    H174560   0.513   0.907   5.907 -2.6029 -1.7293 -1.3529
17715TIP3    H274561   0.367   0.947   5.917 -1.4024  2.3351  1.1140
17716TIP3   OH274562   3.744   0.403  14.787 -0.4608  0.4704 -0.2610
17716TIP3    H174563   3.709   0.346  14.855 -0.6463  0.4008 -0.4129
17716TIP3    H274564   3.697   0.377  14.708 -1.4421  1.6787 -0.0825
17717TIP3   OH274565   6.631   0.338   2.691 -0.1787 -0.0803  0.4131
17717TIP3    H174566   6.600   0.260   2.736  2.8249 -0.1433  2.5434
17717TIP3    H274567   6.675   0.305   2.613 -0.3820 -0.3735  0.4196
17718TIP3   OH274568   1.473   0.250  15.697  0.8412 -0.1201  0.2811
17718TIP3    H174569   1.401   0.208  15.744 -0.5844  1.0531 -0.7807
17718TIP3    H274570   1.521   0.178  15.657  0.4100 -0.9454  1.2165
17719TIP3   OH274571   3.750   1.112  13.177 -0.3359 -0.6014 -0.1089
17719TIP3    H174572   3.728   1.109  13.084  1.5326  1.8586 -0.6972
17719TIP3    H274573   3.719   1.197  13.206 -0.7906 -1.3065  1.4984
17720TIP3   OH274574   4.568   6.291  17.168  0.3249 -0.0568  0.6599
17720TIP3    H174575   4.509   6.229  17.125 -0.3006  0.8755  0.1532
17720TIP3    H274576   4.648   6.289  17.115  0.4550 -0.7142  0.8753
17721TIP3   OH274577   6.605   4.328   2.397  0.0314 -0.0724  0.5510
17721TIP3    H174578   6.654   4.324   2.479 -1.5934  0.6119  1.5723
17721TIP3    H274579   6.615   4.240   2.359  0.9833 -0.3223  1.3567
17722TIP3   OH274580   3.251   2.556  16.805  0.1795  0.7836  0.1644
17722TIP3    H174581   3.228   2.558  16.713  3.1917 -0.9690 -0.7045
17722TIP3    H274582   3.265   2.648  16.828 -3.0219  1.4466 -0.4272
17723TIP3   OH274583   6.654   5.832   4.216  0.0290 -0.0844 -0.0904
17723TIP3    H174584   6.596   5.836   4.140 -0.5501  1.2134  0.4158
17723TIP3    H274585   6.742   5.837   4.178 -0.2754  1.6199 -0.6254
17724TIP3   OH274586   6.170   2.829  14.963 -0.2728  0.1534 -0.5363
17724TIP3    H174587   6.209   2.776  14.894  0.5541  0.4866 -0.3255
17724TIP3    H274588   6.227   2.906  14.970 -1.4281  1.0622 -0.8111
17725TIP3   OH274589   6.474   2.332  13.420  0.0148 -0.1732  0.0081
17725TIP3    H174590   6.387   2.314  13.384 -0.6308 -0.0245  1.4785
17725TIP3    H274591   6.528   2.258  13.391 -0.6905 -0.4571 -0.5937
17726TIP3   OH274592   6.258   4.781  10.273 -0.2743  0.1937 -0.3882
17726TIP3    H174593   6.234   4.844  10.341  0.8100  1.6903 -1.3603
17726TIP3    H274594   6.346   4.807  10.246 -0.1162 -1.2757 -1.3603
17727TIP3   OH274595   0.334   0.573   0.755 -0.3513 -0.6835 -0.1346
17727TIP3    H174596   0.361   0.496   0.705 -0.5627 -1.5883  1.1076
17727TIP3    H274597   0.395   0.575   0.829  0.7364  1.3468 -1.0670
17728TIP3   OH274598   5.647   5.822  12.603  0.1143 -0.1663  0.2267
17728TIP3    H174599   5.650   5.902  12.550  1.6791 -0.0388  0.4813
17728TIP3    H274600   5.644   5.854  12.694 -1.4663 -0.3968  0.2828
17729TIP3   OH274601   4.954   3.098   1.082  0.3895  0.1122 -0.5578
17729TIP3    H174602   4.983   3.076   0.993  0.4998 -0.3053 -0.4186
17729TIP3    H274603   4.995   3.183   1.100  0.2672  0.2548 -0.9511
17730TIP3   OH274604   3.002   1.096  14.614  0.2880  0.2490 -0.0682
17730TIP3    H174605   2.906   1.093  14.612  0.2789  0.9329 -1.0055
17730TIP3    H274606   3.029   1.018  14.565  0.2021  0.7000 -0.8383
17731TIP3   OH274607   6.284   4.066   5.734 -0.0417 -0.1807 -0.6632
17731TIP3    H174608   6.194   4.082   5.763  0.3446  0.1492  0.3504
17731TIP3    H274609   6.337   4.077   5.812  0.7868 -1.3167 -1.0574
17732TIP3   OH274610   0.821   2.404  15.538  0.0251  0.0004 -0.4071
17732TIP3    H174611   0.776   2.388  15.621  1.3525 -0.2436  0.2730
17732TIP3    H274612   0.813   2.321  15.491  0.8487 -0.4570  0.2373
17733TIP3   OH274613   5.217   3.133  16.659 -0.3666 -0.6205 -0.0862
17733TIP3    H174614   5.258   3.047  16.660  0.4941 -0.2055  0.9044
17733TIP3    H274615   5.160   3.131  16.582  0.1326 -1.8416 -0.4423
17734TIP3   OH274616   1.396   5.509   4.001  0.1556  0.9600 -0.2973
17734TIP3    H174617   1.351   5.436   4.042  1.3273  0.2270 -0.2816
17734TIP3    H274618   1.377   5.585   4.057 -1.2139  0.7080 -0.4227
17735TIP3   OH274619   2.834   0.867  11.735  0.0373 -0.2423  0.2471
17735TIP3    H174620   2.842   0.865  11.640  1.1696 -0.3506  0.3330
17735TIP3    H274621   2.871   0.952  11.760  1.0481 -0.8022  0.6942
17736TIP3   OH274622   1.222   4.611   5.361  0.5432 -0.4013  0.6801
17736TIP3    H174623   1.205   4.560   5.440  0.0295 -1.2199  0.0515
17736TIP3    H274624   1.290   4.561   5.315 -1.0978 -1.3943 -0.7230
17737TIP3   OH274625   3.230   1.314   2.876  0.0988  0.5385 -0.2783
17737TIP3    H174626   3.276   1.236   2.844 -0.4669  0.2569 -0.4160
17737TIP3    H274627   3.144   1.309   2.835 -0.5669  0.2834  1.1410
17738TIP3   OH274628   4.378   5.517  16.104 -0.0993 -1.1197  0.2821
17738TIP3    H174629   4.405   5.582  16.039 -0.1906  1.6229  2.8893
17738TIP3    H274630   4.445   5.521  16.172 -1.2128 -2.2247  1.4721
17739TIP3   OH274631   3.946   2.781   1.560  0.2670 -0.1732  0.0648
17739TIP3    H174632   3.919   2.706   1.613 -1.2743  0.8542  0.7581
17739TIP3    H274633   4.036   2.799   1.587  0.6076 -1.6708 -0.0106
17740TIP3   OH274634   2.372   6.542  14.901  0.1727  0.2596 -0.9538
17740TIP3    H174635   2.336   6.572  14.985  0.2264  2.2378 -1.5994
17740TIP3    H274636   2.455   6.589  14.893  0.4346 -0.3540 -1.8632
17741TIP3   OH274637   6.526   1.621  13.807 -0.3216 -0.4189  0.5066
17741TIP3    H174638   6.569   1.619  13.721 -0.5810  0.4585  0.3515
17741TIP3    H274639   6.489   1.709  13.813 -0.9899 -0.7419  1.1829
17742TIP3   OH274640   5.149   0.112   5.463  0.7591 -0.3002 -0.1908
17742TIP3    H174641   5.133   0.104   5.557  2.0532 -3.4142 -0.1800
17742TIP3    H274642   5.240   0.142   5.457  1.0032 -1.0749 -0.4405
17743TIP3   OH274643   5.909   5.312   0.719 -0.1628  0.4882 -0.2051
17743TIP3    H174644   5.834   5.256   0.739  0.5493  0.0163  1.2140
17743TIP3    H274645   5.983   5.252   0.711  0.6098  1.2005  1.3547
17744TIP3   OH274646   0.998   3.429  10.520  0.6061  0.2582 -0.1920
17744TIP3    H174647   1.013   3.335  10.514  0.0075  0.0643  1.0926
17744TIP3    H274648   1.064   3.468  10.464  1.8620 -0.8618  0.4797
17745TIP3   OH274649   5.334   3.834   1.760 -0.2885 -0.1026 -0.0978
17745TIP3    H174650   5.337   3.739   1.757  0.1861 -0.1485  1.3291
17745TIP3    H274651   5.241   3.855   1.774 -0.3515 -0.3626 -0.1291
17746TIP3   OH274652   0.841   4.310  14.195 -0.2301  0.6643  0.6873
17746TIP3    H174653   0.849   4.217  14.215 -3.0174 -0.1097 -1.5070
17746TIP3    H274654   0.903   4.325  14.124  1.3795  0.8920  2.0961
17747TIP3   OH274655   0.921   4.671  16.003 -0.7285  0.4106 -0.4888
17747TIP3    H174656   0.940   4.674  16.097 -0.2729  0.9858 -0.5972
17747TIP3    H274657   0.854   4.603  15.994 -3.0258  2.4733  0.6217
17748TIP3   OH274658   5.164   0.766  10.985 -0.4820 -0.1397  0.5568
17748TIP3    H174659   5.161   0.671  10.996 -0.8615 -0.3767 -1.4527
17748TIP3    H274660   5.256   0.785  10.965 -0.4531 -0.1132  0.7138
17749TIP3   OH274661   6.155   4.220  16.935 -0.1554 -0.3118  0.5811
17749TIP3    H174662   6.088   4.168  16.890  0.1688 -0.4156  0.2176
17749TIP3    H274663   6.235   4.204  16.886 -0.2030  1.1320 -0.0164
17750TIP3   OH274664   2.114   4.635   1.926 -0.4969 -0.2943 -0.1098
17750TIP3    H174665   2.141   4.724   1.906  1.0330 -0.5548  0.7383
17750TIP3    H274666   2.113   4.591   1.840 -1.1508  0.5035 -0.5120
17751TIP3   OH274667   2.546   1.449  13.699  0.1276  0.0844  0.1776
17751TIP3    H174668   2.641   1.440  13.709 -0.2224 -1.6938  2.2323
17751TIP3    H274669   2.521   1.377  13.641 -0.5228 -2.3466  3.3588
17752TIP3   OH274670   4.395   1.189   5.353  0.1513  0.0915  0.6240
17752TIP3    H174671   4.477   1.145   5.375  1.4192  1.6303 -0.8903
17752TIP3    H274672   4.383   1.172   5.260 -1.2919 -0.1365  0.8342
17753TIP3   OH274673   5.834   3.152   0.462 -0.2018 -0.6991 -0.4609
17753TIP3    H174674   5.829   3.143   0.557  1.0766  0.3472 -0.2804
17753TIP3    H274675   5.751   3.195   0.438  0.1507  0.4954  0.3820
17754TIP3   OH274676   3.498   2.912  11.736  0.2357  0.2623  0.3018
17754TIP3    H174677   3.445   2.930  11.658 -0.8848  1.0564  1.2333
17754TIP3    H274678   3.456   2.962  11.806  1.7174  0.2092  1.2484
17755TIP3   OH274679   2.659   0.909  11.992  0.0723  0.4598 -0.1922
17755TIP3    H174680   2.567   0.932  12.000 -0.2087 -0.9408  0.8366
17755TIP3    H274681   2.707   0.988  12.016 -0.8641  0.5997  1.2557
17756TIP3   OH274682   0.927   6.025  15.361 -0.0265 -0.0748 -0.5950
17756TIP3    H174683   0.975   5.952  15.321 -0.8629  0.0775 -1.9163
17756TIP3    H274684   0.940   6.098  15.300  0.8970  0.9194  0.7774
17757TIP3   OH274685   1.935   1.590  16.791  0.1930 -0.2594  0.7371
17757TIP3    H174686   1.880   1.520  16.756  0.0170  0.5618 -0.6371
17757TIP3    H274687   1.887   1.622  16.867 -1.4256  0.6876 -0.6603
17758TIP3   OH274688   5.128   4.329  10.750  0.3441 -0.7980  0.2461
17758TIP3    H174689   5.120   4.399  10.686 -3.3733 -0.0812  1.4220
17758TIP3    H274690   5.171   4.258  10.702  0.9523  0.9905 -1.9398
17759TIP3   OH274691   2.494   5.882  15.639  0.3079  0.0755  0.3413
17759TIP3    H174692   2.444   5.885  15.558  1.1454 -1.9967 -0.2980
17759TIP3    H274693   2.528   5.793  15.643  0.2752  0.1312  2.9957
17760TIP3   OH274694   5.454   5.069   0.902  0.1559 -0.1758 -0.1813
17760TIP3    H174695   5.501   5.085   0.984 -2.3793  0.5620  1.1711
17760TIP3    H274696   5.413   4.983   0.914  0.7912 -0.6388 -1.2016
17761TIP3   OH274697   0.017   5.070   2.806 -0.6225  0.3543  0.3965
17761TIP3    H174698   0.084   5.116   2.856 -1.8248  1.4402  1.0584
17761TIP3    H274699  -0.065   5.094   2.849 -1.3639 -1.6666  0.1628
17762TIP3   OH274700   3.819   1.680   6.512 -0.1070 -0.1589 -0.2274
17762TIP3    H174701   3.878   1.745   6.548 -1.3453  0.8834 -0.0564
17762TIP3    H274702   3.870   1.599   6.512  1.1298  0.6053  0.4143
17763TIP3   OH274703   1.681   4.411   0.478  0.2429  0.3409 -0.1461
17763TIP3    H174704   1.623   4.354   0.427 -0.1817  0.8618 -0.2501
17763TIP3    H274705   1.726   4.352   0.538 -0.2653 -0.0943 -0.1876
17764TIP3   OH274706   1.184   4.882   1.426  0.4325 -0.0310  0.4780
17764TIP3    H174707   1.259   4.888   1.485  0.6475  1.1233  0.1015
17764TIP3    H274708   1.206   4.810   1.367  1.2867  0.3553  0.3162
17765TIP3   OH274709   0.959   5.227   3.620 -0.2107 -0.3367 -0.6135
17765TIP3    H174710   0.962   5.323   3.628 -0.2518 -0.0443 -3.3714
17765TIP3    H274711   1.050   5.199   3.629 -0.0329  0.0959 -1.0505
17766TIP3   OH274712   0.830   4.560  13.560 -0.3478 -0.4797  0.1626
17766TIP3    H174713   0.805   4.590  13.472  0.7602  0.9641  0.3225
17766TIP3    H274714   0.747   4.555  13.607 -0.7420  0.8804 -0.3359
17767TIP3   OH274715   0.458   4.741  13.803 -0.5065  0.3714 -0.0934
17767TIP3    H174716   0.439   4.834  13.804  2.0811  0.9417  0.7680
17767TIP3    H274717   0.516   4.728  13.878 -0.7250 -1.9135 -0.2852
17768TIP3   OH274718   0.127   4.328   2.770 -0.2485 -0.1678 -0.3079
17768TIP3    H174719   0.065   4.370   2.829  0.0643 -0.9033  0.5597
17768TIP3    H274720   0.184   4.277   2.827  0.7454 -0.0244 -1.1582
17769TIP3   OH274721   0.123   0.315  16.232  0.2998  0.4430  0.3479
17769TIP3    H174722   0.029   0.312  16.216  0.4528  1.0295 -0.7353
17769TIP3    H274723   0.130   0.330  16.326 -0.7123  1.5488  0.2662
17770TIP3   OH274724   4.990   4.735  12.694 -0.0826 -0.0474 -0.6019
17770TIP3    H174725   5.050   4.674  12.651  1.9239  1.1084  0.4930
17770TIP3    H274726   4.983   4.809  12.633 -0.0873 -0.0176 -0.5651
17771TIP3   OH274727   1.231   5.381  17.092  0.7726 -0.2862  0.6234
17771TIP3    H174728   1.275   5.438  17.155  2.4321 -2.1157  1.1628
17771TIP3    H274729   1.244   5.424  17.008  0.7270  0.8927  1.2120
17772TIP3   OH274730   2.923   0.233   3.592 -0.2510  0.1939 -0.9552
17772TIP3    H174731   2.833   0.201   3.595  0.0471 -0.5843  0.2279
17772TIP3    H274732   2.931   0.276   3.507 -1.2396 -1.2226 -1.7899
17773TIP3   OH274733   5.107   5.727  16.233 -0.3388 -0.1942 -0.2577
17773TIP3    H174734   5.157   5.728  16.152  0.3221  1.6758  0.1405
17773TIP3    H274735   5.016   5.716  16.205 -0.2057  1.2165 -1.3235
17774TIP3   OH274736   5.999   2.147  15.738  0.3248  0.2637 -0.1817
17774TIP3    H174737   6.071   2.208  15.719  1.4072 -1.0106 -0.2598
17774TIP3    H274738   6.041   2.075  15.785 -1.2481  0.3772  1.4225
17775TIP3   OH274739   3.691   4.707  11.778 -0.0510 -0.0885 -0.6679
17775TIP3    H174740   3.682   4.795  11.743  2.6466  0.0501 -1.1313
17775TIP3    H274741   3.775   4.708  11.825 -0.7500 -1.9558  0.7006
17776TIP3   OH274742   6.653   4.897   4.401  0.4850 -0.0190 -0.8456
17776TIP3    H174743   6.697   4.859   4.477  2.6210 -1.0508 -2.5541
17776TIP3    H274744   6.592   4.828   4.373 -0.9417  0.6976  0.4106
17777TIP3   OH274745   1.809   3.313  12.611  0.3185 -0.0988 -0.1100
17777TIP3    H174746   1.832   3.390  12.662 -0.0135 -0.6042  0.8279
17777TIP3    H274747   1.724   3.286  12.646 -0.0298 -0.3144 -1.1026
17778TIP3   OH274748   6.061   6.369  11.365 -0.8106 -0.1257 -0.5093
17778TIP3    H174749   6.139   6.313  11.362  0.2060  1.0982  1.6844
17778TIP3    H274750   6.006   6.337  11.294  1.2830 -1.6289 -1.5148
17779TIP3   OH274751   0.696   4.058   3.439  0.9085 -0.2723  0.1838
17779TIP3    H174752   0.646   3.980   3.414  0.0983  0.2190  0.2531
17779TIP3    H274753   0.703   4.052   3.534 -1.7044  1.2343  0.5143
17780TIP3   OH274754   2.834   5.987   0.086 -0.4332  0.5990 -0.3623
17780TIP3    H174755   2.770   6.056   0.072 -0.7773  0.3599  0.0320
17780TIP3    H274756   2.793   5.928   0.149  0.4499  0.8081  0.4158
17781TIP3   OH274757   4.206   1.322   0.881  0.0993 -0.0128 -0.5996
17781TIP3    H174758   4.170   1.313   0.969 -0.3517  1.1429 -0.6601
17781TIP3    H274759   4.137   1.365   0.831  0.8944  0.6192 -1.1655
17782TIP3   OH274760   0.761   1.848  15.271 -0.3031 -0.5194 -0.1061
17782TIP3    H174761   0.830   1.823  15.333  1.3413 -0.7818 -1.9737
17782TIP3    H274762   0.761   1.944  15.272 -0.6860 -0.5268  0.7250
17783TIP3   OH274763   5.603   4.743   1.366 -0.3227 -0.9147  0.1927
17783TIP3    H174764   5.693   4.723   1.391  0.3033 -0.0830 -1.3215
17783TIP3    H274765   5.607   4.752   1.271 -2.3071 -2.3828 -0.0583
17784TIP3   OH274766   3.999   5.330  12.984 -0.4835 -0.1761  0.2685
17784TIP3    H174767   3.938   5.257  12.969 -0.6582  0.2643 -1.2181
17784TIP3    H274768   4.027   5.356  12.897 -1.0227  2.0580  0.7239
17785TIP3   OH274769   6.265   2.669   2.692 -0.5380 -0.2818 -0.3549
17785TIP3    H174770   6.248   2.592   2.746 -1.6828 -0.5398 -1.0857
17785TIP3    H274771   6.189   2.725   2.705 -0.8151 -0.3323 -1.6873
17786TIP3   OH274772   5.988   2.201   1.881 -0.1565  0.7299  0.6781
17786TIP3    H174773   6.032   2.264   1.823  2.3852 -1.1457  0.4937
17786TIP3    H274774   5.940   2.144   1.822  0.5131  0.2768  0.5610
17787TIP3   OH274775   4.101   4.591  16.820  0.3580  0.3262 -0.5264
17787TIP3    H174776   4.094   4.573  16.726 -0.2623 -0.0607 -0.4125
17787TIP3    H274777   4.127   4.507  16.859  0.1497  0.3609 -0.3064
17788TIP3   OH274778   1.770   2.693  11.399 -0.4041 -0.4007 -0.3524
17788TIP3    H174779   1.752   2.752  11.326  0.3568 -0.6839 -0.7756
17788TIP3    H274780   1.731   2.610  11.373  1.6232 -1.0614 -1.3466
17789TIP3   OH274781   5.169   5.633  15.710  0.0959 -0.3853 -0.2261
17789TIP3    H174782   5.089   5.581  15.697 -0.7884  1.3606 -2.1605
17789TIP3    H274783   5.240   5.573  15.689 -0.7663 -1.6169  0.3109
17790TIP3   OH274784   1.779   6.433  11.093 -0.1987  0.4247 -0.2779
17790TIP3    H174785   1.853   6.468  11.043 -0.2094 -0.7647 -1.1425
17790TIP3    H274786   1.710   6.498  11.083  0.3286  0.9574 -0.4771
17791TIP3   OH274787   3.659   2.055   2.816  0.0225  0.0390 -0.0822
17791TIP3    H174788   3.577   2.080   2.859  1.3359 -0.5736  2.8941
17791TIP3    H274789   3.706   2.138   2.803  0.4697  0.0524  1.5232
17792TIP3   OH274790   3.985   0.469  13.106  0.4033  0.2960  0.2741
17792TIP3    H174791   3.953   0.403  13.167  3.0192 -0.1826  1.1596
17792TIP3    H274792   3.948   0.551  13.137  1.0021 -0.0746  1.9862
17793TIP3   OH274793   0.630   3.181  12.983 -0.7922  0.1527  0.1732
17793TIP3    H174794   0.537   3.174  12.961 -0.6717  0.9027 -0.5892
17793TIP3    H274795   0.675   3.141  12.909 -0.5485 -1.5946  1.2354
17794TIP3   OH274796   3.631   6.352   2.836  0.6194 -0.1388 -0.2641
17794TIP3    H174797   3.664   6.435   2.870 -2.5011  0.1980  2.1594
17794TIP3    H274798   3.700   6.289   2.854  0.9780  0.9833  2.4643
17795TIP3   OH274799   4.498   3.618  16.858 -0.1267 -0.6004  0.0936
17795TIP3    H174800   4.579   3.657  16.825  0.1202 -0.2794  1.0803
17795TIP3    H274801   4.435   3.631  16.787  0.3837  0.1629 -0.2241
17796TIP3   OH274802   5.993   2.522   2.460 -0.2353 -0.4826 -0.0624
17796TIP3    H174803   6.009   2.596   2.519  1.5089 -0.7838 -0.1417
17796TIP3    H274804   5.979   2.447   2.519  1.8150 -0.8457 -0.0197
17797TIP3   OH274805   4.031   3.286  13.954 -0.1252  0.3695  0.1735
17797TIP3    H174806   3.944   3.291  13.992 -1.0075  0.7244 -1.7951
17797TIP3    H274807   4.038   3.196  13.921 -0.9016  1.1221 -2.1896
17798TIP3   OH274808   3.897   2.496   5.820 -0.0553 -0.3359 -0.0818
17798TIP3    H174809   3.935   2.543   5.893  0.5159 -0.8821 -0.0295
17798TIP3    H274810   3.815   2.460   5.854 -0.6814  0.9017 -0.2200
17799TIP3   OH274811   0.492   4.190  14.264 -0.1236  0.0314 -0.4403
17799TIP3    H174812   0.569   4.175  14.208 -0.9726  0.6368 -1.7997
17799TIP3    H274813   0.527   4.232  14.342  1.0053 -0.2499 -0.7791
17800TIP3   OH274814   6.398   1.553  16.652  0.9493  0.5316 -0.1994
17800TIP3    H174815   6.379   1.600  16.571 -0.8622  0.1304 -0.0362
17800TIP3    H274816   6.485   1.516  16.639  1.0482  1.2393 -1.5907
17801TIP3   OH274817   4.015   2.972   4.274  0.8400 -0.4251  0.1524
17801TIP3    H174818   4.085   3.036   4.290 -0.1783  0.8618 -0.4675
17801TIP3    H274819   3.935   3.024   4.274 -0.1478 -1.9158  1.0181
17802TIP3   OH274820   5.359   2.115   4.126  0.3429  0.4409 -0.1458
17802TIP3    H174821   5.362   2.131   4.221 -0.9435  0.1382 -0.0572
17802TIP3    H274822   5.416   2.183   4.090 -0.1954  1.3803  0.7440
17803TIP3   OH274823   2.250   2.915   1.609  0.5876  0.3351  0.0881
17803TIP3    H174824   2.337   2.912   1.569  1.3454  1.0816  1.6626
17803TIP3    H274825   2.190   2.901   1.535  1.9926  0.8348 -1.1758
17804TIP3   OH274826   2.836   6.288   4.754 -0.0109 -0.7544 -0.0675
17804TIP3    H174827   2.847   6.325   4.842  2.7844 -0.3310 -0.5800
17804TIP3    H274828   2.855   6.360   4.695  2.7203 -2.2480 -1.0557
17805TIP3   OH274829   3.332   2.013  15.394  0.0105  0.3685 -0.1442
17805TIP3    H174830   3.341   1.956  15.471 -1.2996  1.5041  0.8744
17805TIP3    H274831   3.338   1.953  15.320 -0.4535 -0.9948  0.8869
17806TIP3   OH274832   5.172   1.962   4.274 -0.6610 -0.5371 -0.1974
17806TIP3    H174833   5.232   2.011   4.217 -1.3328 -0.6184 -0.9756
17806TIP3    H274834   5.160   1.878   4.229  0.2604 -1.3301  0.9916
17807TIP3   OH274835   3.327   0.495  15.500 -0.2766 -0.0587  0.4769
17807TIP3    H174836   3.234   0.498  15.523  0.1842  2.5443  2.2295
17807TIP3    H274837   3.328   0.494  15.404 -2.1211 -1.3229  0.4561
17808TIP3   OH274838   0.518   1.791  15.191  0.3184 -0.2765  0.0367
17808TIP3    H174839   0.478   1.874  15.166  0.3790 -0.0903  0.5487
17808TIP3    H274840   0.602   1.816  15.229 -0.0918 -0.4938  1.1077
17809TIP3   OH274841   3.683   5.655  15.546 -0.1495 -0.3713  0.0468
17809TIP3    H174842   3.626   5.732  15.549  0.6560  0.3290 -1.9775
17809TIP3    H274843   3.768   5.686  15.578 -0.4764 -1.0667  1.6600
17810TIP3   OH274844   0.524   2.384   3.246 -0.2581 -0.6844 -0.1280
17810TIP3    H174845   0.453   2.439   3.213 -0.0340 -0.0479  0.4294
17810TIP3    H274846   0.484   2.298   3.256 -0.9345 -0.3585  0.0755
17811TIP3   OH274847   4.227   2.587  12.674  0.0649 -0.4825 -0.2716
17811TIP3    H174848   4.161   2.550  12.616  0.1507 -1.0048 -0.0465
17811TIP3    H274849   4.310   2.570  12.629  0.0063  0.7148 -0.8420
17812TIP3   OH274850   0.828   0.311   1.485  0.0603  0.4491 -0.4360
17812TIP3    H174851   0.823   0.318   1.389  0.6474  1.2989 -0.4161
17812TIP3    H274852   0.772   0.383   1.517  1.8397  1.7441 -0.1653
17813TIP3   OH274853   0.755   1.861   1.848 -0.2501  0.4855 -0.0758
17813TIP3    H174854   0.814   1.932   1.822 -0.4480  0.6019 -0.2078
17813TIP3    H274855   0.668   1.891   1.821 -0.3714  0.3203  0.1304
17814TIP3   OH274856   3.033   2.005   0.569  0.3132  0.2085 -0.4582
17814TIP3    H174857   2.953   2.008   0.518 -0.1500  0.7509  0.2907
17814TIP3    H274858   3.072   1.920   0.549  0.4426  0.6602 -2.1558
17815TIP3   OH274859   1.250   3.875  15.239 -0.2285  0.1329 -0.1201
17815TIP3    H174860   1.223   3.886  15.330 -0.1924  0.9930 -0.2035
17815TIP3    H274861   1.172   3.895  15.188 -0.4810 -1.1779 -0.2626
17816TIP3   OH274862   0.173   0.535   6.795  0.6583  0.2895  0.1824
17816TIP3    H174863   0.098   0.578   6.836 -0.5620  0.2157 -1.8517
17816TIP3    H274864   0.170   0.445   6.827 -0.4088  0.1749 -0.2176
17817TIP3   OH274865   1.628   3.314   4.632  0.8688  0.0684  0.6164
17817TIP3    H174866   1.694   3.350   4.692  2.4876  0.7145 -1.5096
17817TIP3    H274867   1.677   3.287   4.555 -0.8792 -3.0009  0.4946
17818TIP3   OH274868   0.116   1.778   4.200 -0.1683  0.3635  0.1756
17818TIP3    H174869   0.160   1.693   4.200 -0.0396  0.4084  2.7145
17818TIP3    H274870   0.049   1.770   4.132  0.2624 -1.5504 -0.0503
17819TIP3   OH274871   1.504   2.768  13.861  0.0339 -0.1038 -0.3417
17819TIP3    H174872   1.428   2.739  13.810 -0.1079  0.5668 -0.5236
17819TIP3    H274873   1.547   2.832  13.804  0.3493  0.0206  0.0371
17820TIP3   OH274874   3.044   4.411  12.402  0.0568 -0.3862  0.2163
17820TIP3    H174875   3.135   4.383  12.400  0.3309  0.5532 -1.2171
17820TIP3    H274876   3.035   4.457  12.486  0.8399 -0.6740  0.4613
17821TIP3   OH274877   0.510   4.429  12.435 -0.1264 -0.4375 -0.6260
17821TIP3    H174878   0.511   4.356  12.497  1.4242 -0.7914 -1.0582
17821TIP3    H274879   0.461   4.396  12.359  0.2024 -0.8799 -0.6461
17822TIP3   OH274880   2.979   0.711  13.512  0.0357  0.1713  0.3685
17822TIP3    H174881   3.016   0.707  13.423 -1.0034 -0.1527 -0.0510
17822TIP3    H274882   2.994   0.624  13.548  1.1313  0.5274  0.7872
17823TIP3   OH274883   0.484   1.185   4.931 -0.2387  0.0322 -0.2903
17823TIP3    H174884   0.517   1.096   4.939  1.5328  0.7431  0.8839
17823TIP3    H274885   0.396   1.182   4.968  0.3883 -0.9300  1.1757
17824TIP3   OH274886   6.196   5.279   2.493  0.1473 -0.1027  0.1116
17824TIP3    H174887   6.273   5.335   2.500 -0.6971  0.8773  1.8758
17824TIP3    H274888   6.181   5.247   2.581 -2.6463  1.3706  0.2411
17825TIP3   OH274889   0.156   4.839  15.865  0.7525 -0.5904  0.3651
17825TIP3    H174890   0.102   4.770  15.826 -0.8197  1.1971 -0.7101
17825TIP3    H274891   0.223   4.857  15.798  1.9050 -1.8609  1.1413
17826TIP3   OH274892   2.140   2.952  11.270 -0.1153  0.0903 -0.0919
17826TIP3    H174893   2.229   2.918  11.267 -0.8252 -1.9125  0.2958
17826TIP3    H274894   2.090   2.883  11.314 -1.9018  1.0629 -0.5429
17827TIP3   OH274895   4.288   1.202   2.970  0.0688  0.9757  0.2962
17827TIP3    H174896   4.317   1.111   2.973 -0.1384  0.8911 -0.1566
17827TIP3    H274897   4.261   1.222   3.060 -2.5021 -0.2840 -0.1402
17828TIP3   OH274898   0.547   4.606  15.751  0.2531 -0.0168  0.1027
17828TIP3    H174899   0.503   4.654  15.821  0.4338 -0.7080  0.6968
17828TIP3    H274900   0.485   4.538  15.725  0.0973  0.3741 -0.5656
17829TIP3   OH274901   6.428   6.496   2.766 -0.0681 -0.4208  0.2061
17829TIP3    H174902   6.507   6.485   2.818  0.3290 -2.4235 -0.7872
17829TIP3    H274903   6.458   6.528   2.681 -0.4561  0.2384  0.3146
17830TIP3   OH274904   0.346   0.854   0.418  0.5010  0.0454 -0.2771
17830TIP3    H174905   0.306   0.803   0.488  1.2420  0.9993  0.8551
17830TIP3    H274906   0.352   0.793   0.345  0.1387 -1.1011  0.6353
17831TIP3   OH274907   0.893   5.895  12.390 -0.1517  0.0931 -0.5223
17831TIP3    H174908   0.809   5.881  12.433  0.1831  0.2700  0.1895
17831TIP3    H274909   0.957   5.853  12.447  0.2558  0.0402 -1.0130
17832TIP3   OH274910   1.388   3.245  12.109  0.1487  0.0976 -0.4267
17832TIP3    H174911   1.418   3.322  12.060  1.2447 -0.6589 -0.9605
17832TIP3    H274912   1.327   3.201  12.050 -0.0671  0.2635 -0.3291
17833TIP3   OH274913   4.197   4.514  16.227  0.1755 -0.3617 -0.1084
17833TIP3    H174914   4.215   4.598  16.186 -0.5729  0.4091  1.1171
17833TIP3    H274915   4.102   4.515  16.242  0.5768 -0.1377  2.6674
17834TIP3   OH274916   2.641   1.413   3.155 -0.6631 -0.1778  0.3969
17834TIP3    H174917   2.720   1.361   3.168 -0.9340 -0.1460  2.2991
17834TIP3    H274918   2.670   1.488   3.103  0.5994 -0.0407  1.2738
17835TIP3   OH274919   2.184   2.087   6.451 -0.4795 -0.1666 -0.6178
17835TIP3    H174920   2.252   2.127   6.506 -0.0151  0.4374 -1.5865
17835TIP3    H274921   2.211   1.996   6.441 -0.7689 -0.3659  0.4555
17836TIP3   OH274922   6.526   6.020  14.566 -0.0138  0.3218  0.6512
17836TIP3    H174923   6.444   5.976  14.543 -0.6452  0.4257  2.6706
17836TIP3    H274924   6.563   5.967  14.636  1.7294  0.2122 -0.3115
17837TIP3   OH274925   4.736   0.160  15.910  0.0411  0.0048 -0.6933
17837TIP3    H174926   4.705   0.202  15.990  0.2415  1.8225 -1.5365
17837TIP3    H274927   4.665   0.101  15.884  0.7529 -2.0309  1.8164
17838TIP3   OH274928   5.131   4.310   2.943 -0.0247 -0.0914  0.3739
17838TIP3    H174929   5.198   4.243   2.928  0.3972  0.1429  1.1928
17838TIP3    H274930   5.048   4.262   2.939  0.1995 -0.4284 -0.3554
17839TIP3   OH274931   6.462   0.100   0.943 -0.2073 -0.1598  0.5450
17839TIP3    H174932   6.421   0.176   0.902 -2.7608 -1.9313 -0.3692
17839TIP3    H274933   6.422   0.095   1.029 -1.3781 -1.4202 -0.0412
17840TIP3   OH274934   3.283   5.515   2.991  0.6534  0.6903  0.5365
17840TIP3    H174935   3.300   5.609   2.998  0.3966  0.7779  0.0166
17840TIP3    H274936   3.281   5.498   2.897  1.3051  0.0489  0.6369
17841TIP3   OH274937   5.845   4.251   1.802 -0.0200 -0.0278 -0.4482
17841TIP3    H174938   5.782   4.274   1.870  0.6495  0.7836 -0.0999
17841TIP3    H274939   5.917   4.208   1.848  0.3611  0.3770 -0.6554
17842TIP3   OH274940   1.839   1.888  12.561 -0.0923 -0.2072  0.3216
17842TIP3    H174941   1.852   1.951  12.632  0.0570  0.5812 -0.3982
17842TIP3    H274942   1.910   1.825  12.571 -0.6524 -0.6846  1.4793
17843TIP3   OH274943   5.294   2.730  15.854 -0.4382  0.0358 -0.0142
17843TIP3    H174944   5.311   2.825  15.854  1.8950 -0.3239 -2.6140
17843TIP3    H274945   5.220   2.720  15.793 -0.8975  0.2006  0.5091
17844TIP3   OH274946   0.084   2.616   3.528 -0.2540  0.2677  0.0772
17844TIP3    H174947   0.092   2.591   3.619 -0.0738 -1.4267 -0.3953
17844TIP3    H274948   0.170   2.599   3.490 -0.6687 -0.1904 -0.6769
17845TIP3   OH274949   0.354   5.832   4.458  0.2798 -0.1630  0.2889
17845TIP3    H174950   0.428   5.775   4.439 -0.0700 -0.6854  0.4919
17845TIP3    H274951   0.357   5.898   4.390  0.6427 -0.4600  0.0122
17846TIP3   OH274952   0.422   1.403  14.533 -0.3251 -0.4351  0.5166
17846TIP3    H174953   0.377   1.382  14.614  1.3994 -1.1212  1.3220
17846TIP3    H274954   0.447   1.318  14.497 -1.6807 -0.1839 -1.1186
17847TIP3   OH274955   2.399   5.510  12.553 -0.2915 -0.5943 -0.2372
17847TIP3    H174956   2.484   5.467  12.542 -0.3800 -0.9059  0.3013
17847TIP3    H274957   2.399   5.542  12.643  0.6698  2.4968 -1.3021
17848TIP3   OH274958   5.562   4.767  16.621  0.1212 -0.1681 -0.0346
17848TIP3    H174959   5.577   4.705  16.550  2.1422 -1.9407  1.8519
17848TIP3    H274960   5.650   4.787  16.654 -0.7486  0.7949  1.7836
17849TIP3   OH274961   3.673   1.808  14.175 -0.2747  0.0370 -0.2943
17849TIP3    H174962   3.674   1.712  14.177  0.4424 -0.0111 -1.7743
17849TIP3    H274963   3.683   1.830  14.082  0.8127  1.5547  0.1572
17850TIP3   OH274964   6.497   5.505  15.173  0.7318  0.4057  0.2460
17850TIP3    H174965   6.475   5.598  15.183  3.0607  1.0015  0.1189
17850TIP3    H274966   6.588   5.505  15.145  0.4473 -1.9083 -0.7839
17851TIP3   OH274967   2.794   4.195   1.132  0.6712 -0.5583  0.6371
17851TIP3    H174968   2.721   4.155   1.085  0.5751 -1.2870  1.4139
17851TIP3    H274969   2.872   4.153   1.096  0.8180  1.1149 -1.1006
17852TIP3   OH274970   1.555   1.106   3.755 -0.4667  0.7883  0.4040
17852TIP3    H174971   1.566   1.030   3.813 -1.3267  0.9438  0.7768
17852TIP3    H274972   1.601   1.177   3.800  0.8657  0.3528 -0.2403
17853TIP3   OH274973   4.950   5.511  11.214  0.1422 -0.4068 -0.3355
17853TIP3    H174974   4.994   5.460  11.146  1.1526 -0.7670  0.5727
17853TIP3    H274975   5.003   5.591  11.221 -0.3969 -0.0316 -0.4933
17854TIP3   OH274976   0.584   5.372   5.795  0.2300  0.3204 -0.1297
17854TIP3    H174977   0.605   5.410   5.880  0.9617  1.1466 -0.6749
17854TIP3    H274978   0.512   5.425   5.761 -0.2559 -0.1879  0.0900
17855TIP3   OH274979   2.777   2.429   1.848 -0.2952  0.8075 -0.3300
17855TIP3    H174980   2.745   2.445   1.759  0.1439  2.9173 -0.1469
17855TIP3    H274981   2.736   2.347   1.874 -3.3797  2.0015 -1.1527
17856TIP3   OH274982   2.810   5.452  16.060  0.0511  0.1825  0.2271
17856TIP3    H174983   2.764   5.502  15.993  0.3391 -0.4078 -0.4302
17856TIP3    H274984   2.825   5.513  16.131 -0.9589  0.6104  0.0723
17857TIP3   OH274985   2.827   4.037  13.348  0.0425  0.2156 -0.5490
17857TIP3    H174986   2.898   4.020  13.409 -0.9046 -0.0845  0.4961
17857TIP3    H274987   2.870   4.058  13.266  1.3297 -1.5079 -0.3434
17858TIP3   OH274988   1.210   0.431  14.503  0.0722 -0.2368 -0.0359
17858TIP3    H174989   1.276   0.487  14.545 -2.2025  2.1717  0.4416
17858TIP3    H274990   1.221   0.448  14.409  0.3633 -0.1085  0.0210
17859TIP3   OH274991   6.480   5.131  15.374 -0.3400 -0.2541 -0.2447
17859TIP3    H174992   6.398   5.095  15.339 -0.8519 -0.8751  1.5474
17859TIP3    H274993   6.462   5.224  15.387 -0.7179 -0.3722  0.0579
17860TIP3   OH274994   0.580   3.421   1.424  0.0615  0.6273 -0.3309
17860TIP3    H174995   0.577   3.363   1.348 -1.6041  1.4424 -0.9205
17860TIP3    H274996   0.602   3.364   1.498 -1.4076 -0.7460 -0.9287
17861TIP3   OH274997   3.904   5.977   4.580 -0.1542  0.3239 -0.1041
17861TIP3    H174998   3.821   6.021   4.560 -0.1392  0.2663 -0.2892
17861TIP3    H274999   3.936   5.946   4.495  0.6444  1.3706 -0.1994
17862TIP3   OH275000   1.834   0.392   5.850  0.6792  0.1455  0.3089
17862TIP3    H175001   1.868   0.314   5.894  0.3554 -1.2912 -1.8708
17862TIP3    H275002   1.902   0.415   5.787 -0.5724 -0.2840 -1.2277
17863TIP3   OH275003   6.086   4.446   5.322 -0.2114  0.0484 -0.2705
17863TIP3    H175004   6.065   4.526   5.369  0.9745  0.0509  0.2696
17863TIP3    H275005   6.027   4.380   5.358 -1.0753  0.6274 -0.5993
17864TIP3   OH275006   6.493   3.342  15.644  0.5388 -0.2265  0.6117
17864TIP3    H175007   6.446   3.336  15.561  1.3988 -2.9835  0.2776
17864TIP3    H275008   6.433   3.303  15.708 -0.7729  3.2860  1.6492
17865TIP3   OH275009   3.864   6.663   4.625  0.1872 -0.9540  0.8282
17865TIP3    H175010   3.924   6.662   4.550  0.4658  1.3001  0.9758
17865TIP3    H275011   3.802   6.593   4.607  0.4805 -0.6936 -1.3402
17866TIP3   OH275012   0.213   5.283  11.929  0.0489 -0.0300 -0.0155
17866TIP3    H175013   0.307   5.268  11.917 -0.1889 -1.1995 -0.5045
17866TIP3    H275014   0.174   5.257  11.846 -0.3741  4.0604 -1.2369
17867TIP3   OH275015   3.757   3.075  16.324 -0.3592 -0.0658 -0.3274
17867TIP3    H175016   3.840   3.038  16.294 -0.1399  0.4799 -0.4064
17867TIP3    H275017   3.715   3.004  16.372 -0.0901 -0.5148 -0.7545
17868TIP3   OH275018   1.417   0.782   1.767 -0.2212  0.2549 -0.4323
17868TIP3    H175019   1.416   0.868   1.808 -2.7894  0.7271 -1.3874
17868TIP3    H275020   1.348   0.733   1.812 -1.5987  0.0786 -2.6657
17869TIP3   OH275021   4.249   3.919   5.824  0.5558  0.2973 -1.0209
17869TIP3    H175022   4.209   3.907   5.911  0.2147  1.8703 -0.9460
17869TIP3    H275023   4.341   3.895   5.836  1.0190  2.6495  0.3374
17870TIP3   OH275024   3.610   3.985   5.302 -0.4888 -0.0350  0.3527
17870TIP3    H175025   3.648   3.940   5.227 -1.4305 -0.0995 -0.0986
17870TIP3    H275026   3.672   4.054   5.323 -0.9103  0.8984 -1.3955
17871TIP3   OH275027   2.842   5.042  15.940 -0.3809 -0.3948  0.0019
17871TIP3    H175028   2.797   5.062  15.859  0.8783 -0.9161 -0.8398
17871TIP3    H275029   2.799   5.097  16.006 -0.5429  1.0143 -1.2614
17872TIP3   OH275030   5.323   2.397  14.226 -0.3072  0.1427 -0.4461
17872TIP3    H175031   5.247   2.394  14.168 -2.2876 -0.8116  2.1092
17872TIP3    H275032   5.299   2.461  14.294  1.0844 -0.2806  0.4609
17873TIP3   OH275033   2.992   3.866  13.813  0.4286  0.3969  1.1101
17873TIP3    H175034   2.998   3.772  13.795  2.1893  0.4098  1.5165
17873TIP3    H275035   2.915   3.875  13.868 -0.3083 -0.6911  0.2900
17874TIP3   OH275036   2.272   1.571  16.000  0.9515  0.0134  0.1361
17874TIP3    H175037   2.305   1.661  15.999  3.8578 -0.9716  1.9576
17874TIP3    H275038   2.293   1.536  15.914  2.8642  0.0457  0.5808
17875TIP3   OH275039   3.661   4.605  14.961 -0.6530  1.1002  0.2609
17875TIP3    H175040   3.688   4.526  15.008  1.2444  2.1935  1.0633
17875TIP3    H275041   3.640   4.574  14.873  1.2874 -0.1385  0.1883
17876TIP3   OH275042   2.513   1.916  13.857  0.0021 -0.7994 -0.3617
17876TIP3    H175043   2.454   1.991  13.855  0.6878 -0.1833  1.4400
17876TIP3    H275044   2.596   1.949  13.821 -0.5100 -1.4666 -2.2051
17877TIP3   OH275045   6.591   0.424  12.056  0.4555 -0.0507  0.4562
17877TIP3    H175046   6.533   0.348  12.056  0.7805 -0.3018  0.4376
17877TIP3    H275047   6.676   0.389  12.029  0.5133  0.3929  0.0743
17878TIP3   OH275048   3.286   6.306  16.225 -0.1047  0.2344  0.3614
17878TIP3    H175049   3.212   6.287  16.283 -1.7572 -1.0862 -2.0970
17878TIP3    H275050   3.246   6.320  16.139  2.2995  2.0550 -0.5177
17879TIP3   OH275051   6.766   4.269  14.041 -0.0393 -0.0812  0.1506
17879TIP3    H175052   6.679   4.309  14.032  0.0547 -0.3282 -2.2428
17879TIP3    H275053   6.826   4.337  14.011  0.3683 -0.9111 -0.9118
17880TIP3   OH275054   5.389   0.894  12.996  0.2062 -0.0447 -0.2295
17880TIP3    H175055   5.300   0.921  13.019  0.6569  1.4352 -0.1731
17880TIP3    H275056   5.389   0.888  12.900  0.3838  1.1968 -0.3110
17881TIP3   OH275057   3.254   3.837  11.265  0.1873 -0.5905  0.1092
17881TIP3    H175058   3.236   3.796  11.180 -0.2506 -1.4651  0.6187
17881TIP3    H275059   3.192   3.910  11.271 -0.2974 -0.9961  0.0120
17882TIP3   OH275060   2.041   0.874  16.973 -0.1019 -0.4248 -0.1005
17882TIP3    H175061   2.082   0.910  17.051  1.0504 -1.5685 -0.1706
17882TIP3    H275062   2.104   0.887  16.903 -0.8806  0.0505 -0.7257
17883TIP3   OH275063   0.169   4.462  11.516  0.1576 -0.2656 -0.7482
17883TIP3    H175064   0.163   4.367  11.519  0.4677 -0.2514  2.1323
17883TIP3    H275065   0.262   4.481  11.529 -0.0056  0.4191 -0.5442
17884TIP3   OH275066   0.775   1.472  11.625 -0.5254 -0.5305 -0.2576
17884TIP3    H175067   0.712   1.529  11.581 -1.1594 -2.0247 -1.3314
17884TIP3    H275068   0.753   1.480  11.718 -1.1891  0.2845 -0.4785
17885TIP3   OH275069   6.349   6.732  16.290 -0.2513 -0.2954  0.4185
17885TIP3    H175070   6.261   6.771  16.283  0.5017  0.9989 -2.5509
17885TIP3    H275071   6.407   6.807  16.302  0.7055 -0.9113 -0.2725
17886TIP3   OH275072   4.314   5.226  14.112  0.2082 -0.0420  0.6659
17886TIP3    H175073   4.273   5.312  14.102 -1.2207 -0.4164  2.8859
17886TIP3    H275074   4.254   5.166  14.068 -0.1885 -0.2283  1.4501
17887TIP3   OH275075   1.124   0.260  16.342 -0.0970  0.1899  0.2137
17887TIP3    H175076   1.110   0.166  16.326 -0.8992  0.1164  1.2730
17887TIP3    H275077   1.209   0.279  16.302 -1.2860 -0.3135 -2.6779
17888TIP3   OH275078   4.739   5.299   3.578  0.8646  0.3839 -0.0199
17888TIP3    H175079   4.743   5.373   3.639 -2.0211  1.9769 -1.6570
17888TIP3    H275080   4.672   5.241   3.614  0.5445  0.3708 -0.6303
17889TIP3   OH275081   4.771   0.999  13.086 -0.0846 -0.3809  0.1179
17889TIP3    H175082   4.793   0.919  13.038 -0.6526 -0.1592 -0.5158
17889TIP3    H275083   4.762   0.970  13.177  0.7203 -0.8500  0.0608
17890TIP3   OH275084   0.767   1.174  15.409  0.2894 -0.3639  0.0384
17890TIP3    H175085   0.738   1.251  15.360 -0.3721  0.5084  1.7534
17890TIP3    H275086   0.686   1.130  15.435  0.6122 -0.5032  0.8197
17891TIP3   OH275087   6.062   4.222  13.625 -0.4342 -0.4456 -0.0877
17891TIP3    H175088   6.021   4.300  13.587 -0.2855 -0.4289 -0.2166
17891TIP3    H275089   6.004   4.198  13.697  0.7238  1.0917  1.3796
17892TIP3   OH275090   5.279   0.455   0.378 -0.0533 -0.3887  0.5105
17892TIP3    H175091   5.310   0.366   0.392 -0.3223 -0.7422 -0.9968
17892TIP3    H275092   5.192   0.445   0.340  0.5576  0.4530 -1.1971
17893TIP3   OH275093   3.621   1.707  17.110  0.5638 -0.4996  0.0227
17893TIP3    H175094   3.539   1.667  17.139  0.0421  0.8614  0.4541
17893TIP3    H275095   3.620   1.695  17.014 -0.5098  0.1969 -0.0570
17894TIP3   OH275096   0.623   3.283   0.506 -0.1054  0.1760 -0.1870
17894TIP3    H175097   0.681   3.305   0.579 -1.1406  0.4936  0.5572
17894TIP3    H275098   0.625   3.187   0.502  2.2967  0.2359 -1.6982
17895TIP3   OH275099   1.079   6.558  12.901 -0.8802 -0.0772  0.4047
17895TIP3    H175100   0.987   6.543  12.921 -1.3515 -1.0349 -2.3624
17895TIP3    H275101   1.078   6.608  12.820  1.0645 -1.2590 -0.3738
17896TIP3   OH275102   0.937   3.729   2.267  0.1862 -0.4086 -0.0696
17896TIP3    H175103   1.003   3.716   2.335  1.6564 -0.3789 -1.4620
17896TIP3    H275104   0.956   3.661   2.202 -0.5001  0.2578 -0.9825
17897TIP3   OH275105   6.074   5.225  11.464 -0.4548 -0.5368 -0.3055
17897TIP3    H175106   6.160   5.215  11.505 -1.8894 -1.0788  2.7029
17897TIP3    H275107   6.065   5.320  11.452  0.8340 -0.5270 -1.3004
17898TIP3   OH275108   1.519   0.385  15.317  0.1264 -0.2409 -0.0484
17898TIP3    H175109   1.543   0.477  15.321  0.2962 -0.3391  1.3726
17898TIP3    H275110   1.603   0.339  15.309  0.1856 -0.3803  1.2928
17899TIP3   OH275111   3.067   6.327  15.437  0.4255 -0.0811  0.0649
17899TIP3    H175112   3.052   6.355  15.527  1.4869  0.1315  0.1793
17899TIP3    H275113   3.159   6.348  15.420  0.1556  0.1478 -1.1610
17900TIP3   OH275114   3.058   6.385   0.833  0.5111 -0.1135  0.2460
17900TIP3    H175115   2.997   6.421   0.897  0.1173 -1.2599  0.5249
17900TIP3    H275116   3.002   6.351   0.763  0.9630  1.8838 -1.1214
17901TIP3   OH275117   2.076   3.467  14.361 -0.4527 -0.0706 -0.3643
17901TIP3    H175118   1.994   3.439  14.321  1.3472 -2.3899 -2.5632
17901TIP3    H275119   2.057   3.469  14.455 -2.9574 -0.6869 -0.8097
17902TIP3   OH275120   0.220   0.022  12.870 -0.1129 -0.1113 -0.1104
17902TIP3    H175121   0.174   0.045  12.951 -2.2286 -0.5853 -1.1589
17902TIP3    H275122   0.257  -0.065  12.887 -0.7191 -0.2934  0.2604
17903TIP3   OH275123   2.277   0.267   2.493  0.1410  0.6658 -0.2419
17903TIP3    H175124   2.301   0.261   2.401 -0.3000 -1.1439 -0.2563
17903TIP3    H275125   2.327   0.197   2.536 -1.0327  0.3063  0.5720
17904TIP3   OH275126   2.018   1.715   1.047 -1.1278  0.1985 -0.2534
17904TIP3    H175127   2.003   1.766   0.968  0.3478 -0.0563 -0.7137
17904TIP3    H275128   2.008   1.624   1.020 -0.2392  0.0920 -0.2463
17905TIP3   OH275129   1.122   3.319   3.446 -0.5015  0.3894 -0.5803
17905TIP3    H175130   1.128   3.377   3.522  0.6173  0.5639 -0.8056
17905TIP3    H275131   1.162   3.368   3.375 -1.2816  0.1042 -1.2281
17906TIP3   OH275132   1.985   2.919   0.920  0.4730 -0.1160  0.0009
17906TIP3    H175133   1.919   2.982   0.952  0.1799  0.2407 -1.2639
17906TIP3    H275134   1.936   2.862   0.861  1.4912  0.7600 -1.7166
17907TIP3   OH275135   5.312   0.800   4.419 -0.0566  0.3089 -0.0288
17907TIP3    H175136   5.279   0.812   4.508  0.2541 -1.4149  0.3328
17907TIP3    H275137   5.238   0.826   4.363  0.0016  2.1366  0.6864
17908TIP3   OH275138   6.667   4.745   3.964  0.7876 -0.0938 -0.9244
17908TIP3    H175139   6.671   4.649   3.972 -0.9819 -0.2310 -1.4751
17908TIP3    H275140   6.662   4.760   3.869 -2.1885  0.3701 -0.7305
17909TIP3   OH275141   0.149   0.203  15.987  0.0079  0.7031 -0.4517
17909TIP3    H175142   0.088   0.238  16.053 -1.1107 -0.0392 -1.0641
17909TIP3    H275143   0.224   0.174  16.038 -1.4971 -1.3176  0.7124
17910TIP3   OH275144   5.280   5.021  15.617 -0.2062 -0.2510  0.1419
17910TIP3    H175145   5.201   5.023  15.564 -0.4944 -2.2128  0.4460
17910TIP3    H275146   5.290   4.929  15.642  1.8702  0.0569  0.5574
17911TIP3   OH275147   4.868   2.749   3.176  0.4733  0.6184  0.0667
17911TIP3    H175148   4.946   2.739   3.230 -0.7838 -1.7126  1.5328
17911TIP3    H275149   4.840   2.659   3.158  0.6613  1.3123 -4.2436
17912TIP3   OH275150   2.679   5.356  14.549  0.0222 -0.2807  0.4853
17912TIP3    H175151   2.671   5.435  14.604  1.1238 -0.0139  0.2794
17912TIP3    H275152   2.592   5.318  14.549 -0.1686  0.1381  1.8067
17913TIP3   OH275153   4.628   0.875   0.453 -0.0406 -0.2351  0.4524
17913TIP3    H175154   4.575   0.838   0.382  2.6604  1.6216 -2.6836
17913TIP3    H275155   4.616   0.969   0.445  0.9317  0.0235  1.9694
17914TIP3   OH275156   0.540   1.141  13.887 -0.1306  0.2189 -0.1515
17914TIP3    H175157   0.614   1.081  13.886  0.8716  1.4081  0.7107
17914TIP3    H275158   0.504   1.133  13.975 -1.8937 -1.3505 -0.9737
17915TIP3   OH275159   0.227   5.250  11.108 -0.3711  0.0935  0.1202
17915TIP3    H175160   0.160   5.192  11.146 -0.9284  2.5085  3.0094
17915TIP3    H275161   0.310   5.210  11.134 -0.7351 -0.3597  0.6018
17916TIP3   OH275162   6.055   4.267  14.572 -0.3296 -0.0503  0.1248
17916TIP3    H175163   5.997   4.320  14.627  0.3483 -0.9887  1.7619
17916TIP3    H275164   6.134   4.257  14.624  0.4370 -0.7115 -1.1589
17917TIP3   OH275165   2.580   1.082   3.283  0.0255  0.6087 -0.3840
17917TIP3    H175166   2.592   1.015   3.216 -0.4814  0.9526 -0.8336
17917TIP3    H275167   2.638   1.057   3.354 -1.5307 -1.3118  0.2318
17918TIP3   OH275168   1.012   2.365   4.298 -0.1215 -0.5850  0.5168
17918TIP3    H175169   1.073   2.296   4.326  0.8365 -0.4676 -1.2097
17918TIP3    H275170   1.064   2.446   4.302 -1.1183  0.0153  2.1310
17919TIP3   OH275171   1.701   1.412  13.646 -0.0171  0.0816 -0.9926
17919TIP3    H175172   1.790   1.385  13.626  0.2714  0.8017 -0.6862
17919TIP3    H275173   1.700   1.424  13.741 -0.3850  0.2554 -1.0159
17920TIP3   OH275174   6.373   5.600  13.674 -0.2073 -0.4201  0.5747
17920TIP3    H175175   6.346   5.580  13.763  2.3892 -0.9683  1.2772
17920TIP3    H275176   6.458   5.643  13.684  1.4342 -2.9760 -1.7451
17921TIP3   OH275177   2.051   3.948   1.415 -0.3306  0.7166  0.2529
17921TIP3    H175178   2.046   4.028   1.467 -1.7160  1.0262 -0.3341
17921TIP3    H275179   2.145   3.934   1.400  0.0624  0.8468  2.4562
17922TIP3   OH275180   3.186   0.702   0.660  0.0302  0.0098  0.1370
17922TIP3    H175181   3.092   0.684   0.650 -0.0178 -0.7632  1.8037
17922TIP3    H275182   3.207   0.669   0.748  1.7095  0.8158  0.0478
17923TIP3   OH275183   6.156   2.806  12.953 -0.2590 -0.4172 -0.0823
17923TIP3    H175184   6.243   2.810  12.993 -0.7434  0.6839  0.9186
17923TIP3    H275185   6.117   2.726  12.989  0.1000 -0.5598 -0.0054
17924TIP3   OH275186   3.707   6.043   3.541 -0.7626 -0.7781  0.5350
17924TIP3    H175187   3.794   6.020   3.510 -1.3443 -0.2714 -1.5239
17924TIP3    H275188   3.713   6.135   3.566 -0.2839 -1.1991  2.0482
17925TIP3   OH275189   4.540   2.963  16.607  0.2875 -0.5013  0.1582
17925TIP3    H175190   4.477   2.973  16.678 -0.4258 -0.7669 -0.4301
17925TIP3    H275191   4.548   2.869  16.594 -0.5918 -0.4363 -0.9834
17926TIP3   OH275192   4.981   0.613   2.037  0.3680 -0.4422  0.3276
17926TIP3    H175193   4.929   0.595   2.115  1.7283  0.2247  1.4088
17926TIP3    H275194   5.065   0.646   2.070  1.4928 -1.4606 -1.3623
17927TIP3   OH275195   5.820   2.218  15.976  0.0114 -0.2440 -0.0834
17927TIP3    H175196   5.873   2.290  16.010  0.1722 -1.7500  2.9329
17927TIP3    H275197   5.850   2.208  15.885  0.9456  2.5436 -0.1434
17928TIP3   OH275198   5.980   1.805   2.253 -0.1674  0.2348 -0.4733
17928TIP3    H175199   5.984   1.812   2.349 -0.4146 -0.5806 -0.3959
17928TIP3    H275200   6.025   1.883   2.221  1.5186 -0.3904  0.3046
17929TIP3   OH275201   3.962   0.490   1.123  0.7128  0.2945 -0.0168
17929TIP3    H175202   4.014   0.525   1.050  0.6176  0.5550  0.0383
17929TIP3    H275203   3.926   0.568   1.166  1.9920  0.2178  1.2172
17930TIP3   OH275204   4.118   3.182   5.332 -0.2564 -0.4668  0.0955
17930TIP3    H175205   4.085   3.156   5.246  1.1794 -1.0947 -0.2801
17930TIP3    H275206   4.196   3.128   5.345 -0.4318 -0.3380  1.7716
17931TIP3   OH275207   3.282   3.691   0.478 -0.3892 -0.2554 -0.3388
17931TIP3    H175208   3.280   3.632   0.554 -4.0539 -1.0443 -0.9253
17931TIP3    H275209   3.271   3.778   0.516  0.3982 -0.3935  0.2162
17932TIP3   OH275210   3.198   3.907  14.085  0.1715  0.0124 -0.3232
17932TIP3    H175211   3.124   3.904  14.025 -0.8353  0.6622  0.8621
17932TIP3    H275212   3.178   3.841  14.152  0.8448 -0.0776 -0.2055
17933TIP3   OH275213   4.203   3.147  15.554 -0.0497  0.3257  0.5068
17933TIP3    H175214   4.111   3.172  15.544 -0.3563 -0.8230  0.3406
17933TIP3    H275215   4.220   3.087  15.481  0.8246  0.5111  0.5501
17934TIP3   OH275216   4.600   0.290   2.976 -0.0073  0.3227  0.9735
17934TIP3    H175217   4.643   0.311   3.059  1.1794 -1.1298  0.7466
17934TIP3    H275218   4.598   0.195   2.973 -0.7942  0.3639 -0.2916
17935TIP3   OH275219   4.477   0.626  13.493 -0.2263 -0.0738  0.3352
17935TIP3    H175220   4.564   0.664  13.501 -0.3532  0.5557 -1.0778
17935TIP3    H275221   4.491   0.532  13.507  1.0458 -0.2785 -1.9966
17936TIP3   OH275222   6.078   1.314  14.095 -0.0799  0.2712  0.0822
17936TIP3    H175223   6.062   1.265  14.014  0.9787 -0.0786  0.0719
17936TIP3    H275224   5.991   1.330  14.131 -0.5413  0.0592 -0.9053
17937TIP3   OH275225   5.158   1.326   5.614 -0.3495  0.5337  0.6423
17937TIP3    H175226   5.127   1.270   5.686 -1.2669 -0.1271 -0.2473
17937TIP3    H275227   5.226   1.274   5.571  0.2885  0.9811  1.0949
17938TIP3   OH275228   6.560   2.465  16.757  0.3212 -0.7446 -0.2633
17938TIP3    H175229   6.479   2.511  16.779  1.5643  0.3674  2.1705
17938TIP3    H275230   6.630   2.522  16.789  2.0019 -2.8224 -0.0654
17939TIP3   OH275231   5.940   1.778   0.154 -0.5181 -0.1041  0.6063
17939TIP3    H175232   5.947   1.683   0.158  1.1076 -0.0160  0.5342
17939TIP3    H275233   5.976   1.801   0.068  0.5374  0.6658  1.2421
17940TIP3   OH275234   5.930   1.738  12.883  0.0498  0.4163 -0.7501
17940TIP3    H175235   5.943   1.833  12.890 -0.7558  0.5761 -1.2886
17940TIP3    H275236   5.998   1.709  12.822  2.2669  0.1574  1.7522
17941TIP3   OH275237   4.943   6.242  13.550 -0.0865  0.6210  0.6615
17941TIP3    H175238   4.866   6.278  13.594 -0.1937 -0.9845  1.8575
17941TIP3    H275239   5.017   6.288  13.588 -0.3208  0.6445  1.0972
17942TIP3   OH275240   5.149   3.112  13.134 -0.4871  0.0941  0.6545
17942TIP3    H175241   5.150   3.185  13.072  0.4448 -0.4417  0.0143
17942TIP3    H275242   5.188   3.040  13.085 -2.5062 -1.1873  0.8415
17943TIP3   OH275243   5.899   0.062  12.042  0.1747 -0.6710  0.2784
17943TIP3    H175244   5.831   0.105  11.990 -0.1946  0.3376  1.5698
17943TIP3    H275245   5.917  -0.019  11.995 -1.3179 -0.5495 -0.5399
17944TIP3   OH275246   6.151   1.242  10.823 -0.1775 -0.0746  0.2176
17944TIP3    H175247   6.184   1.240  10.913  0.4708  1.4135  0.0164
17944TIP3    H275248   6.225   1.211  10.770 -0.2414 -0.0372  0.1079
17945TIP3   OH275249   0.597   2.486  11.702 -0.3235  0.2175 -0.1120
17945TIP3    H175250   0.619   2.576  11.679  1.8399 -0.9112 -2.7817
17945TIP3    H275251   0.660   2.463  11.771 -1.1982  0.8929  0.9180
17946TIP3   OH275252   5.214   0.266  12.383  0.2166 -0.4720 -0.1005
17946TIP3    H175253   5.274   0.263  12.457  1.1270  0.1464 -0.8017
17946TIP3    H275254   5.231   0.351  12.341 -1.7795  0.1093  0.2144
17947TIP3   OH275255   3.782   3.119   4.194  1.0455 -0.0430  0.3508
17947TIP3    H175256   3.762   3.069   4.115  2.6425 -0.5504  0.2470
17947TIP3    H275257   3.794   3.209   4.163  0.3775  0.0038  0.2145
17948TIP3   OH275258   2.587   3.242  12.573 -0.0146 -0.0188  0.3832
17948TIP3    H175259   2.615   3.324  12.614 -3.9408  0.5005  2.3160
17948TIP3    H275260   2.569   3.266  12.482  0.7749  0.8303  0.4435
17949TIP3   OH275261   2.704   4.873   3.821  0.4592  0.1636  0.3806
17949TIP3    H175262   2.624   4.868   3.768  0.2989  0.5579  0.5828
17949TIP3    H275263   2.739   4.784   3.821  0.0250 -0.0065  0.2828
17950TIP3   OH275264   4.039   4.241  11.814  0.1903  0.0096 -0.5611
17950TIP3    H175265   4.111   4.270  11.760  0.3139  1.6365  0.4416
17950TIP3    H275266   4.071   4.161  11.857  0.9219  0.0332 -1.0662
17951TIP3   OH275267   4.846   2.770  11.273  0.3227  0.8518 -0.1099
17951TIP3    H175268   4.820   2.701  11.334  1.7245  0.8320  0.4762
17951TIP3    H275269   4.941   2.776  11.282  0.3400  2.1005 -0.9742
17952TIP3   OH275270   3.869   2.463   1.563  0.2224 -0.4413 -0.4398
17952TIP3    H175271   3.775   2.450   1.555  0.0395 -0.1583  1.1143
17952TIP3    H275272   3.905   2.375   1.574  0.1028 -0.5044 -0.5495
17953TIP3   OH275273   0.323   3.282   4.677 -0.6922  0.3676 -0.1730
17953TIP3    H175274   0.368   3.254   4.757 -1.0807  0.6611  0.1491
17953TIP3    H275275   0.351   3.372   4.664 -1.2765  0.5872  0.0898
17954TIP3   OH275276   3.804   1.234  16.555 -0.2523 -0.3779 -0.1051
17954TIP3    H175277   3.893   1.238  16.521 -0.6609 -0.8405 -1.2925
17954TIP3    H275278   3.800   1.303  16.621  1.1491 -0.7557  0.3886
17955TIP3   OH275279   6.534   1.561   4.351  0.4846 -0.5714 -0.1678
17955TIP3    H175280   6.556   1.527   4.264  1.1302 -1.8351  0.4662
17955TIP3    H275281   6.618   1.568   4.396  0.1630  0.1387  0.3291
17956TIP3   OH275282   6.169   2.069  16.110 -0.0262 -0.4171  0.1070
17956TIP3    H175283   6.112   2.085  16.186  1.7349  2.0524  0.9936
17956TIP3    H275284   6.223   2.148  16.104  0.5167 -0.9873 -3.1795
17957TIP3   OH275285   3.692   5.660   4.427  0.1795  0.2424  0.1123
17957TIP3    H175286   3.771   5.701   4.460 -0.6587  2.4658 -0.5874
17957TIP3    H275287   3.679   5.697   4.340 -1.4135 -0.3901  0.0534
17958TIP3   OH275288   1.913   0.838   2.157  0.6949 -0.0845 -0.1989
17958TIP3    H175289   1.978   0.845   2.227  1.1911 -1.2788 -0.5200
17958TIP3    H275290   1.848   0.776   2.191  0.6586 -0.2515 -0.5718
17959TIP3   OH275291   1.531   0.590  12.541 -0.5295 -0.6669 -0.2525
17959TIP3    H175292   1.592   0.583  12.468  2.4374 -2.4531  2.2753
17959TIP3    H275293   1.533   0.683  12.565  1.7201 -0.7920  0.1533
17960TIP3   OH275294   2.797   3.139  15.855  0.0103  0.0956  0.1550
17960TIP3    H175295   2.834   3.128  15.768  1.6734  1.3069  0.7055
17960TIP3    H275296   2.799   3.051  15.894  0.5382 -0.1841 -0.5145
17961TIP3   OH275297   4.198   4.088  15.891 -0.5432 -0.5581 -0.1036
17961TIP3    H175298   4.229   4.143  15.963 -0.8133  0.3360 -0.6559
17961TIP3    H275299   4.249   4.117  15.815 -0.4545 -1.3023 -0.3250
17962TIP3   OH275300   0.373   6.003  12.434 -0.1146 -0.8999  0.0752
17962TIP3    H175301   0.361   5.951  12.354 -2.9321 -3.3943  1.9909
17962TIP3    H275302   0.284   6.016  12.468  1.0267 -0.3332  3.0316
17963TIP3   OH275303   0.115   3.046   0.100 -0.0183 -0.0679 -0.7300
17963TIP3    H175304   0.123   3.118   0.163 -0.4626 -0.6332 -0.0147
17963TIP3    H275305   0.080   3.086   0.021  1.7235  0.8770 -1.0310
17964TIP3   OH275306   3.450   1.317   5.496  0.1287  0.2307  0.3269
17964TIP3    H175307   3.412   1.398   5.463 -0.1577  0.5932  1.5278
17964TIP3    H275308   3.516   1.293   5.430 -1.1928  0.3401 -1.0456
17965TIP3   OH275309   6.781   1.031   2.049  0.2774 -0.3625  0.4001
17965TIP3    H175310   6.703   1.051   1.997 -0.6068 -2.5007  0.8347
17965TIP3    H275311   6.846   1.002   1.984 -0.7020 -2.6684  0.3951
17966TIP3   OH275312   5.873   1.767   0.423  0.3310  0.2840 -0.2032
17966TIP3    H175313   5.840   1.680   0.444  1.0502  0.1654  0.4729
17966TIP3    H275314   5.862   1.775   0.328  1.3792 -1.0106 -0.4437
17967TIP3   OH275315   1.064   3.834  14.428  0.3469 -0.6907  0.5905
17967TIP3    H175316   0.969   3.840  14.416  0.3143 -2.0089  0.1884
17967TIP3    H275317   1.075   3.819  14.522  0.1323 -1.1262  0.5478
17968TIP3   OH275318   0.359   2.321  11.700 -0.0388 -0.3113 -0.4388
17968TIP3    H175319   0.415   2.398  11.701 -0.3526 -0.0939  0.0417
17968TIP3    H275320   0.411   2.253  11.743 -0.1429 -0.1089  0.0065
17969TIP3   OH275321   1.976   0.757  12.591 -0.8395 -0.0916 -0.0770
17969TIP3    H175322   2.068   0.731  12.579 -0.8018 -0.7963  1.5254
17969TIP3    H275323   1.942   0.767  12.502  0.6497 -0.3300 -0.6974
17970TIP3   OH275324   4.833   0.782  12.930  0.0723 -0.0693  0.0032
17970TIP3    H175325   4.762   0.725  12.901 -0.1756  0.0804  0.3150
17970TIP3    H275326   4.913   0.737  12.902 -0.0585 -1.2834  1.5324
17971TIP3   OH275327   0.704   1.325   3.529  0.2564 -1.1907  0.2540
17971TIP3    H175328   0.769   1.365   3.585  0.2439  0.2425 -0.7255
17971TIP3    H275329   0.737   1.237   3.511  1.5200 -0.7430  0.3996
17972TIP3   OH275330   3.980   2.098  15.558  0.3502 -0.0637  0.1924
17972TIP3    H175331   3.975   2.130  15.648 -0.3238 -0.3529  0.2592
17972TIP3    H275332   3.898   2.051  15.544 -0.2132  1.2277 -1.0495
17973TIP3   OH275333   4.952   1.522   0.943 -0.4498  0.0039  0.1501
17973TIP3    H175334   4.987   1.481   1.022 -1.1960  0.8797  0.9448
17973TIP3    H275335   4.881   1.463   0.916 -1.0492  0.3818  0.8809
17974TIP3   OH275336   2.478   1.646   2.423 -0.2344 -0.6612  0.2777
17974TIP3    H175337   2.552   1.706   2.410  0.0585 -1.2721 -0.9939
17974TIP3    H275338   2.510   1.584   2.488  0.0077 -0.3224  0.4861
17975TIP3   OH275339   1.950   4.043   5.677 -0.5478 -0.0728 -0.0810
17975TIP3    H175340   1.900   4.000   5.607  0.4964  0.1771 -0.9873
17975TIP3    H275341   1.909   4.129   5.686  0.8175  0.8160 -2.0567
17976TIP3   OH275342   3.256   2.147   4.631 -0.2619  0.0696  0.5385
17976TIP3    H175343   3.341   2.181   4.658 -0.3535  0.2760  0.5648
17976TIP3    H275344   3.267   2.126   4.538 -0.1735  0.0687  0.5483
17977TIP3   OH275345   5.801   5.521   0.556 -0.2438  0.0497 -0.1948
17977TIP3    H175346   5.820   5.453   0.620  1.5963  0.4423 -0.3009
17977TIP3    H275347   5.853   5.497   0.479 -3.4829 -1.1868 -2.0818
17978TIP3   OH275348   4.734   3.663  12.649 -0.4305 -0.6767  0.1928
17978TIP3    H175349   4.778   3.587  12.686  2.1544  1.2156  1.1075
17978TIP3    H275350   4.798   3.701  12.589 -0.8405  2.0354  1.4206
17979TIP3   OH275351   2.984   2.407  16.679 -0.1171 -0.1320 -0.1574
17979TIP3    H175352   2.929   2.341  16.637 -0.7616  0.2127  0.1380
17979TIP3    H275353   3.037   2.443  16.608  0.4064 -1.1195 -0.2833
17980TIP3   OH275354   2.755   0.545  14.345 -0.2079 -0.3315 -0.0054
17980TIP3    H175355   2.772   0.467  14.398 -0.7286 -0.0420  0.5894
17980TIP3    H275356   2.730   0.613  14.408 -3.1709 -0.6247 -0.7595
17981TIP3   OH275357   4.353   4.464  13.528 -0.3527  0.3798  0.2237
17981TIP3    H175358   4.291   4.428  13.591 -2.0461  0.4537 -1.3642
17981TIP3    H275359   4.341   4.411  13.449  2.7810 -0.6622  0.3718
17982TIP3   OH275360   2.790   4.630  12.424 -0.1225  0.0916  0.2323
17982TIP3    H175361   2.740   4.571  12.367 -2.0606  1.3282  0.5771
17982TIP3    H275362   2.766   4.604  12.513  0.5311  0.1284  0.4221
17983TIP3   OH275363   4.934   6.216   5.328  0.9828  0.0152 -0.8620
17983TIP3    H175364   4.992   6.226   5.252 -0.0501  2.8962 -1.3481
17983TIP3    H275365   4.936   6.301   5.370 -0.4146 -0.8283  0.9501
17984TIP3   OH275366   3.483   3.047   0.222  0.0664 -0.2705  0.3254
17984TIP3    H175367   3.569   3.088   0.213 -1.3370  2.8514  0.3999
17984TIP3    H275368   3.463   3.014   0.135  0.2681  1.3320 -0.3607
17985TIP3   OH275369   0.400   1.351   2.089  0.0781  0.0960  0.1905
17985TIP3    H175370   0.322   1.391   2.127 -0.1937  0.0344 -0.2976
17985TIP3    H275371   0.467   1.363   2.156  0.7393  3.7941 -0.9884
17986TIP3   OH275372   5.843   4.426  15.455  0.0929 -0.3622 -0.2372
17986TIP3    H175373   5.916   4.426  15.393  0.0426  0.3663 -0.3083
17986TIP3    H275374   5.806   4.514  15.448  0.1552 -0.2299  0.9074
17987TIP3   OH275375   0.291   1.065   0.223 -0.2677 -0.6338 -0.1212
17987TIP3    H175376   0.211   1.114   0.205 -0.3847 -1.4387 -1.8979
17987TIP3    H275377   0.294   1.057   0.319 -1.1248  1.3395  0.0970
17988TIP3   OH275378   0.790   5.927   4.742 -0.2759  0.0366 -0.1723
17988TIP3    H175379   0.824   5.976   4.816 -1.4068  0.5711 -0.0009
17988TIP3    H275380   0.816   5.836   4.759 -0.1734  0.2221  0.6680
17989TIP3   OH275381   4.071   3.647   5.104  0.6587  0.3398 -0.1201
17989TIP3    H175382   4.131   3.573   5.116 -0.5382 -1.0283 -2.2202
17989TIP3    H275383   4.100   3.686   5.021  0.2588  1.2315  0.1670
17990TIP3   OH275384   1.089   2.608  16.994 -0.1086 -0.0999  0.3489
17990TIP3    H175385   1.013   2.658  16.966 -1.3017 -2.7122 -1.2792
17990TIP3    H275386   1.060   2.560  17.071  0.2116 -0.2737  0.3636
17991TIP3   OH275387   0.749   6.057  16.033  0.1422 -0.2266  0.0753
17991TIP3    H175388   0.674   6.045  15.974  1.1152 -0.7749 -1.0733
17991TIP3    H275389   0.758   5.973  16.078  0.3314 -0.2987 -0.0969
17992TIP3   OH275390   2.921   5.425  14.868  0.7112  0.1910  0.0262
17992TIP3    H175391   2.854   5.397  14.931  0.4883  0.1277 -0.2344
17992TIP3    H275392   2.964   5.344  14.842 -1.5052 -0.2493 -2.5080
17993TIP3   OH275393   3.459   6.488   0.947 -0.8449  0.2379  0.9725
17993TIP3    H175394   3.391   6.525   1.003 -0.1049  1.2595  1.2242
17993TIP3    H275395   3.519   6.561   0.930 -2.1726  0.5142 -2.9592
17994TIP3   OH275396   3.421   5.240  10.785  0.2541  0.3793  0.4294
17994TIP3    H175397   3.394   5.290  10.707 -0.6383  0.2584  0.6499
17994TIP3    H275398   3.510   5.211  10.766  0.3334  1.0270 -0.2148
17995TIP3   OH275399   1.178   3.389  14.596  0.2314 -0.5529  0.2341
17995TIP3    H175400   1.147   3.418  14.510  0.0216 -0.9862  0.1667
17995TIP3    H275401   1.106   3.339  14.633 -0.5990  1.6434  1.6787
17996TIP3   OH275402   2.432   0.854   1.960 -0.2511  0.1613  0.3337
17996TIP3    H175403   2.477   0.852   1.876 -1.1620  0.7822 -0.1737
17996TIP3    H275404   2.372   0.928   1.954 -1.6063 -0.8793  0.8693
17997TIP3   OH275405   5.427   6.144   4.040 -0.0554  0.3080 -0.0484
17997TIP3    H175406   5.501   6.117   4.094 -1.9880 -1.5805  1.7607
17997TIP3    H275407   5.422   6.239   4.052  1.4412  0.3268  0.5840
17998TIP3   OH275408   5.771   6.622  10.432  0.0500 -0.7818  0.2115
17998TIP3    H175409   5.707   6.675  10.479 -0.2743  2.0391 -3.1599
17998TIP3    H275410   5.719   6.556  10.386 -0.2789  0.2291 -0.8987
17999TIP3   OH275411   0.605   4.985   0.575  0.0041  0.4489  0.2483
17999TIP3    H175412   0.550   4.976   0.653  1.6117  0.7468  1.4430
17999TIP3    H275413   0.617   4.895   0.545 -2.3261  0.4785 -0.9109
18000TIP3   OH275414   3.806   4.696   0.718 -0.1585 -0.4661 -0.2215
18000TIP3    H175415   3.881   4.687   0.775  0.4203  0.6576 -0.7858
18000TIP3    H275416   3.749   4.622   0.740 -0.2355  0.2898  2.2227
18001TIP3   OH275417   3.205   2.842   1.414  0.2124  0.1557 -0.2749
18001TIP3    H175418   3.160   2.865   1.333 -1.6979 -0.7532  0.4875
18001TIP3    H275419   3.135   2.809   1.471  1.8528 -1.2356  0.9650
18002TIP3   OH275420   4.039   5.041   5.077  0.1051  0.5459  0.8840
18002TIP3    H175421   4.052   4.964   5.133 -0.2885 -0.6272 -0.5740
18002TIP3    H275422   4.090   5.021   4.998 -0.0507  1.7620  0.4713
18003TIP3   OH275423   6.530   5.846   1.551  0.4696  0.2250  0.4632
18003TIP3    H175424   6.470   5.866   1.623 -0.5294 -1.0350  0.0058
18003TIP3    H275425   6.616   5.875   1.582 -0.0208  0.0644  2.0003
18004TIP3   OH275426   1.658   5.182  14.957  0.2365  0.3904 -0.7054
18004TIP3    H175427   1.746   5.206  14.928  0.2258  1.9963  0.5188
18004TIP3    H275428   1.654   5.087  14.945  2.4442  0.1778  0.0392
18005TIP3   OH275429   4.895   4.012  12.855 -0.6104 -0.0290 -0.0938
18005TIP3    H175430   4.869   4.097  12.821 -0.9663 -0.7632 -1.6770
18005TIP3    H275431   4.991   4.016  12.859 -0.6886  0.8873  1.0364
18006TIP3   OH275432   4.453   3.020  12.050  0.5005 -0.5211  0.1922
18006TIP3    H175433   4.531   3.057  12.009 -0.7860  3.2861  0.9470
18006TIP3    H275434   4.478   3.006  12.141  0.6985 -0.5195  0.1382
18007TIP3   OH275435   0.141   3.351   1.474  0.6476  0.3781  0.2480
18007TIP3    H175436   0.139   3.259   1.500  0.6557 -0.0599 -1.2925
18007TIP3    H275437   0.157   3.350   1.380  0.0625  1.9441  0.1126
18008TIP3   OH275438   4.333   4.734   3.103 -0.1497  0.4051 -0.5271
18008TIP3    H175439   4.379   4.679   3.166 -1.7279  1.1681  1.3517
18008TIP3    H275440   4.328   4.681   3.023  0.2452 -1.3030  0.5589
18009TIP3   OH275441   1.801   0.241   2.031 -0.1020  0.6696  0.0777
18009TIP3    H175442   1.884   0.205   2.062 -0.2266 -1.6773 -2.1215
18009TIP3    H275443   1.734   0.193   2.079 -0.2269 -0.1341 -0.8855
18010TIP3   OH275444   1.250   3.636   4.325 -0.3375 -0.7286  0.0133
18010TIP3    H175445   1.268   3.714   4.272 -0.9240 -0.9294 -0.4822
18010TIP3    H275446   1.336   3.607   4.354 -0.2421  1.2542  1.8432
18011TIP3   OH275447   5.859   6.449   6.281  0.0216  1.0907 -0.2677
18011TIP3    H175448   5.788   6.387   6.263  1.3566 -0.6405  0.2917
18011TIP3    H275449   5.850   6.469   6.375  0.3982  0.7093 -0.1507
18012TIP3   OH275450   4.134   0.295  14.584  0.2265  0.0132  0.6172
18012TIP3    H175451   4.183   0.243  14.521 -0.8098  1.5790 -1.5525
18012TIP3    H275452   4.046   0.258  14.582  0.0393  0.4575  0.6953
18013TIP3   OH275453   2.289   0.251   1.674 -0.2987  0.2528  0.1213
18013TIP3    H175454   2.302   0.345   1.667 -1.4167  0.4637  0.7091
18013TIP3    H275455   2.243   0.227   1.593 -0.2997  0.2663  0.1180
18014TIP3   OH275456   2.989   4.202   2.738  0.2891  0.1145  0.4329
18014TIP3    H175457   2.951   4.289   2.732 -2.1688 -0.9968 -1.1273
18014TIP3    H275458   2.921   4.150   2.782  0.9407 -1.4101 -0.3256
18015TIP3   OH275459   3.460   3.805  15.935  0.0604 -0.1703  0.5893
18015TIP3    H175460   3.463   3.899  15.952 -2.5455  0.6573 -3.0244
18015TIP3    H275461   3.539   3.788  15.883  0.5688 -0.0150  1.2991
18016TIP3   OH275462   1.820   4.382  14.814  0.0790  0.6216 -0.3022
18016TIP3    H175463   1.841   4.301  14.768  2.1976  0.7760  0.3586
18016TIP3    H275464   1.761   4.355  14.885  2.5645 -0.7066  1.3129
18017TIP3   OH275465   0.750   5.430  16.926  0.0367  0.0213  0.4692
18017TIP3    H175466   0.709   5.344  16.916 -1.9003  0.4223  4.1736
18017TIP3    H275467   0.677   5.492  16.920  1.1431  1.2784 -0.1539
18018TIP3   OH275468   5.551   2.346  15.690 -0.5861  0.1850  0.6724
18018TIP3    H175469   5.628   2.303  15.653 -1.0329 -1.9017  2.0864
18018TIP3    H275470   5.486   2.276  15.699 -2.0473  1.5697  1.1150
18019TIP3   OH275471   1.556   3.323   2.235 -0.3572 -0.1563  0.4056
18019TIP3    H175472   1.614   3.398   2.223 -0.0928 -0.5537 -0.8917
18019TIP3    H275473   1.470   3.361   2.251 -0.2279  0.4181 -0.2695
18020TIP3   OH275474   3.776   2.572  13.809  0.3301 -0.5364 -0.1164
18020TIP3    H175475   3.745   2.636  13.745  1.2897  0.9001  0.8158
18020TIP3    H275476   3.867   2.597  13.825  0.1537 -0.9672  1.6616
18021TIP3   OH275477   3.603   6.496   1.945  0.4703 -0.3068  0.6498
18021TIP3    H175478   3.577   6.584   1.916 -0.0875 -0.5619  0.3681
18021TIP3    H275479   3.596   6.442   1.867  0.4183 -0.6869  0.9167
18022TIP3   OH275480   1.172   5.933  15.495  0.0154 -0.1807 -0.1091
18022TIP3    H175481   1.125   5.997  15.441 -1.5939  0.1209  1.6190
18022TIP3    H275482   1.229   5.888  15.433 -2.2786 -0.2968 -2.2227
18023TIP3   OH275483   0.516   5.730   3.197  0.1540 -0.3043 -0.6061
18023TIP3    H175484   0.546   5.735   3.107  0.9572 -0.6101 -0.3633
18023TIP3    H275485   0.456   5.655   3.198 -0.2091 -0.0182 -0.9831
18024TIP3   OH275486   3.832   5.286  11.973 -0.3880 -0.4233  0.1718
18024TIP3    H175487   3.916   5.254  12.006 -0.6233 -0.8932  0.3208
18024TIP3    H275488   3.780   5.207  11.958 -0.0679 -0.2608 -1.9246
18025TIP3   OH275489   3.555   1.336  16.131  0.0040 -0.2548  0.5110
18025TIP3    H175490   3.591   1.319  16.218 -0.9144 -0.5978  0.8242
18025TIP3    H275491   3.613   1.403  16.094  0.8634 -0.6718  1.0789
18026TIP3   OH275492   1.295   5.903  15.246 -0.2585 -0.3954 -0.4321
18026TIP3    H175493   1.335   5.990  15.246 -0.1149 -0.4565 -1.1667
18026TIP3    H275494   1.234   5.905  15.171 -0.6146 -0.7597 -0.1544
18027TIP3   OH275495   1.612   0.814  13.410  0.2822  0.0993  0.1630
18027TIP3    H175496   1.677   0.876  13.441  0.4835 -0.7576  1.5198
18027TIP3    H275497   1.589   0.844  13.322  1.4783  1.2001  0.2188
18028TIP3   OH275498   1.435   4.425   4.705  0.6667  0.0192 -0.6573
18028TIP3    H175499   1.342   4.447   4.712 -0.0660 -2.7593 -1.2025
18028TIP3    H275500   1.438   4.329   4.706  3.8474  0.0012  3.5083
18029TIP3   OH275501   5.780   1.047   2.952 -0.3521 -0.0567 -0.0068
18029TIP3    H175502   5.755   1.114   3.016  1.7570  0.0124  0.7704
18029TIP3    H275503   5.797   0.969   3.004  0.7237 -0.1914 -0.5454
18030TIP3   OH275504   0.593   5.286  12.725  0.3205 -0.3293 -0.0985
18030TIP3    H175505   0.502   5.298  12.698  0.3360 -1.0847 -0.4771
18030TIP3    H275506   0.644   5.313  12.649  0.4093 -0.3293 -0.0383
18031TIP3   OH275507   4.698   5.873  11.614 -0.1245  0.1703  0.0280
18031TIP3    H175508   4.607   5.864  11.587 -0.2447 -0.4865  0.6094
18031TIP3    H275509   4.711   5.802  11.677  0.7876  0.2612 -0.0471
18032TIP3   OH275510   5.378   1.208  15.042 -0.1087  0.0694 -0.4045
18032TIP3    H175511   5.450   1.256  15.083 -1.6550  2.0609  0.0617
18032TIP3    H275512   5.354   1.141  15.106 -0.2716  0.9957  0.5237
18033TIP3   OH275513   0.057   4.437   1.364 -0.1422 -0.1925  0.0068
18033TIP3    H175514  -0.020   4.429   1.419  0.2354 -3.8251  0.0836
18033TIP3    H275515   0.038   4.383   1.288  2.1517 -0.8015 -0.1592
18034TIP3   OH275516   2.236   1.066  15.301  0.0985 -0.0703 -0.5295
18034TIP3    H175517   2.220   1.016  15.220 -0.0103  0.2211 -0.6901
18034TIP3    H275518   2.280   1.146  15.271  0.1879 -0.0301 -0.2846
18035TIP3   OH275519   4.369   4.288  16.828  0.4092 -0.3100  0.5833
18035TIP3    H175520   4.303   4.314  16.892  0.6435  0.6218  0.4557
18035TIP3    H275521   4.339   4.203  16.796 -1.6495  0.8591 -0.7053
18036TIP3   OH275522   5.678   3.814   2.126  0.1431  0.0970 -0.0913
18036TIP3    H175523   5.676   3.847   2.037 -1.0348 -1.7075 -0.7633
18036TIP3    H275524   5.608   3.748   2.129  0.0533  0.2509  2.2034
18037TIP3   OH275525   6.632   1.773  15.365 -0.0497  0.5016  0.2864
18037TIP3    H175526   6.630   1.711  15.438 -0.3016 -1.9939 -1.7636
18037TIP3    H275527   6.562   1.835  15.384  1.0888  1.0018  3.0700
18038TIP3   OH275528   1.187   6.047  12.589  0.2069 -0.1982 -0.3305
18038TIP3    H175529   1.277   6.063  12.562  0.7529 -1.6522  0.5726
18038TIP3    H275530   1.169   6.114  12.656  0.9303 -0.4926  0.1613
18039TIP3   OH275531   1.412   0.292  17.113  0.1232 -0.1494 -0.2228
18039TIP3    H175532   1.469   0.215  17.116  1.0721  0.5451 -0.2230
18039TIP3    H275533   1.395   0.306  17.020 -0.7736 -0.8659 -0.1830
18040TIP3   OH275534   3.085   2.279   3.391 -0.0309 -0.4694 -0.5739
18040TIP3    H175535   3.053   2.198   3.431  2.5425 -0.9494  0.6275
18040TIP3    H275536   3.100   2.256   3.300 -0.1785 -1.1022 -0.4433
18041TIP3   OH275537   0.211   5.522   0.535  0.6016  0.0858 -0.0296
18041TIP3    H175538   0.167   5.489   0.614 -1.1099 -0.2578 -1.1015
18041TIP3    H275539   0.166   5.604   0.515  0.8715  0.0562 -0.7710
18042TIP3   OH275540   3.458   2.436  14.748 -0.8466  0.3284 -0.0494
18042TIP3    H175541   3.400   2.507  14.775 -0.5287  0.2792  0.7669
18042TIP3    H275542   3.480   2.390  14.829  0.8196  0.7122 -0.2467
18043TIP3   OH275543   6.351   4.251  15.305  0.2025  0.0427  0.4585
18043TIP3    H175544   6.440   4.217  15.307  0.5125  0.5397 -2.5344
18043TIP3    H275545   6.344   4.297  15.221 -3.0663 -0.5313  0.3312
18044TIP3   OH275546   2.196   1.949  17.195  0.6580 -0.1738 -0.2776
18044TIP3    H175547   2.114   1.943  17.145  0.4615 -1.0708  0.1545
18044TIP3    H275548   2.174   2.002  17.271 -0.0611 -2.1578  0.9184
18045TIP3   OH275549   4.526   4.922  12.418  0.2100 -0.7442 -0.4315
18045TIP3    H175550   4.589   4.856  12.390 -0.1608 -1.3382  0.1263
18045TIP3    H275551   4.579   4.991  12.458  0.5632 -0.8597 -0.6944
18046TIP3   OH275552   6.130   2.607   4.928  0.3040 -0.4775 -0.1916
18046TIP3    H175553   6.189   2.533   4.915  0.1623 -0.4334 -1.0741
18046TIP3    H275554   6.069   2.602   4.854 -0.0875  0.1539  0.0907
18047TIP3   OH275555   3.046   3.058  14.810  0.0166 -0.4736 -0.7071
18047TIP3    H175556   3.036   2.974  14.855 -0.5781 -0.2317 -0.3876
18047TIP3    H275557   2.965   3.067  14.759 -0.3903  0.4199  0.1032
18048TIP3   OH275558   2.772   6.096   3.892  0.2909  0.6614 -0.9156
18048TIP3    H175559   2.779   6.186   3.922 -0.1320  0.7991 -1.2279
18048TIP3    H275560   2.695   6.095   3.835 -0.7858 -0.2799  0.5033
18049TIP3   OH275561   2.519   5.801  15.996  0.2048  0.2807  0.6005
18049TIP3    H175562   2.435   5.839  15.968  1.1645  2.0178 -0.0517
18049TIP3    H275563   2.506   5.780  16.089 -0.7035  1.3078  0.7260
18050TIP3   OH275564   0.748   4.586   1.693  0.1670  0.6297 -0.0769
18050TIP3    H175565   0.800   4.640   1.633  0.5519 -0.0769 -0.3877
18050TIP3    H275566   0.747   4.500   1.653 -1.4024  0.6696 -0.1562
18051TIP3   OH275567   5.248   0.405   4.726  0.9120 -0.3455 -0.1877
18051TIP3    H175568   5.161   0.444   4.735  0.6009 -1.0433 -0.1780
18051TIP3    H275569   5.240   0.318   4.764  1.9799  0.0986  1.0797
18052TIP3   OH275570   2.559   5.047   3.076  0.6484  0.3919 -0.1644
18052TIP3    H175571   2.591   5.113   3.138 -0.2200  0.6443  0.0231
18052TIP3    H275572   2.464   5.048   3.087  0.6010 -0.6034 -0.4631
18053TIP3   OH275573   0.492   3.771   4.005  0.1073  0.0260  0.2408
18053TIP3    H175574   0.444   3.739   3.929  0.3133  2.0399 -0.7644
18053TIP3    H275575   0.575   3.803   3.969 -0.6693  3.0372  0.9457
18054TIP3   OH275576   6.015   3.001  15.727  0.3104  0.2431  0.0584
18054TIP3    H175577   5.945   2.938  15.744 -1.5353  1.5443 -2.4154
18054TIP3    H275578   6.061   3.008  15.810 -0.5350 -3.0081  0.8788
18055TIP3   OH275579   2.976   0.525  16.966  0.6912 -0.3467 -0.0437
18055TIP3    H175580   3.032   0.575  17.025 -0.6271 -2.0847  2.7512
18055TIP3    H275581   2.889   0.564  16.977  0.8309  0.8379 -2.6512
18056TIP3   OH275582   3.574   0.743   2.372 -0.2172  0.8044  0.1255
18056TIP3    H175583   3.492   0.738   2.322 -0.7255  0.6278  0.9608
18056TIP3    H275584   3.554   0.698   2.454  1.5848 -1.8185 -0.8045
18057TIP3   OH275585   5.202   4.092  14.984 -0.2362 -0.4817  0.2230
18057TIP3    H175586   5.191   3.997  14.975  2.0911 -0.9264  1.4703
18057TIP3    H275587   5.218   4.123  14.895 -2.0653 -1.0936 -0.3296
18058TIP3   OH275588   2.398   5.122  15.319  0.0103  0.4049 -0.5412
18058TIP3    H175589   2.337   5.157  15.383  0.6150  1.0021 -0.2874
18058TIP3    H275590   2.361   5.147  15.234 -0.3598  0.3271 -0.4039
18059TIP3   OH275591   6.613   3.792   5.427  0.3396  0.1401 -0.1304
18059TIP3    H175592   6.572   3.713   5.391  2.8151 -0.5993 -1.4602
18059TIP3    H275593   6.607   3.781   5.522 -0.8617 -0.8338 -0.2998
18060TIP3   OH275594   1.583   2.700  16.621  0.5307  0.7062 -0.1944
18060TIP3    H175595   1.550   2.789  16.637  1.1564  1.1331 -1.1660
18060TIP3    H275596   1.526   2.665  16.553 -2.2364 -1.1658  2.9758
18061TIP3   OH275597   5.486   2.009   0.206 -0.7230 -0.4113 -0.4260
18061TIP3    H175598   5.529   2.092   0.184 -0.9024 -0.7418 -2.0666
18061TIP3    H275599   5.424   2.031   0.275 -0.1863  0.6636 -0.2812
18062TIP3   OH275600   6.689   5.518  12.126 -1.0047  0.2061 -0.3300
18062TIP3    H175601   6.753   5.552  12.065 -0.0257  1.5583  1.4195
18062TIP3    H275602   6.611   5.571  12.111 -1.1077 -0.1389 -1.0763
18063TIP3   OH275603   3.753   1.640   5.449 -0.5499  0.4602  0.6030
18063TIP3    H175604   3.831   1.643   5.504  0.5220 -2.2932 -0.6383
18063TIP3    H275605   3.757   1.721   5.398  1.0803  0.7427  1.1310
18064TIP3   OH275606   0.722   1.032   1.381  0.1949 -0.1950  0.2994
18064TIP3    H175607   0.680   1.090   1.319 -0.2578  0.3029  1.0702
18064TIP3    H275608   0.650   0.982   1.420  0.5598 -1.1357 -0.2161
18065TIP3   OH275609   5.267   5.301  11.065 -0.5669  0.0885 -0.0422
18065TIP3    H175610   5.310   5.325  10.983 -0.0456  0.6160  0.3725
18065TIP3    H275611   5.296   5.212  11.083 -0.4379  0.0829 -0.2781
18066TIP3   OH275612   0.213   2.688  15.125  0.3133 -0.3826  0.3329
18066TIP3    H175613   0.207   2.701  15.220 -0.2412 -1.5276  0.4556
18066TIP3    H275614   0.193   2.595  15.112 -0.1254 -0.1106 -0.9552
18067TIP3   OH275615   2.630   1.829  11.847  0.0322 -0.3799  0.0344
18067TIP3    H175616   2.718   1.868  11.841 -0.0914 -0.3800 -1.8347
18067TIP3    H275617   2.646   1.738  11.873  0.5850 -0.3798 -0.2951
18068TIP3   OH275618   0.814   0.486   0.957  0.2247  0.1866 -0.0712
18068TIP3    H175619   0.787   0.410   0.905 -0.7267 -0.3039  1.1303
18068TIP3    H275620   0.854   0.545   0.893 -2.0718  0.1366 -1.6270
18069TIP3   OH275621   5.280   3.243   3.024 -0.0121 -0.2911 -0.0772
18069TIP3    H175622   5.203   3.196   3.055  0.2529 -0.7647 -0.1240
18069TIP3    H275623   5.285   3.321   3.079  1.7417 -2.2100  2.6937
18070TIP3   OH275624   0.673   5.556   3.711  0.4825  0.6491  0.3121
18070TIP3    H175625   0.731   5.593   3.645 -0.5443  0.9361 -0.4403
18070TIP3    H275626   0.594   5.532   3.663  0.9460 -2.1685  0.8463
18071TIP3   OH275627   1.885   1.433   6.405  0.5602 -0.2053 -0.1831
18071TIP3    H175628   1.893   1.513   6.353 -0.6294 -1.2490 -2.0032
18071TIP3    H275629   1.791   1.423   6.419  0.8354 -0.0688  2.0262
18072TIP3   OH275630   3.356   1.069   2.831  0.2619 -0.1712  0.1667
18072TIP3    H175631   3.384   0.993   2.882  0.1940 -0.9343 -0.9192
18072TIP3    H275632   3.433   1.090   2.777  0.0384  0.0919 -0.0457
18073TIP3   OH275633   6.057   5.423  11.927 -0.0208  0.0471  0.1397
18073TIP3    H175634   5.962   5.436  11.932  0.1417  1.3680 -0.1284
18073TIP3    H275635   6.091   5.462  12.008  0.3688  0.2813 -0.1348
18074TIP3   OH275636   6.090   0.540  13.611  0.3964  0.0757  0.0607
18074TIP3    H175637   6.130   0.500  13.534  0.4549 -0.1364  0.1998
18074TIP3    H275638   5.996   0.532  13.596  0.3870 -1.8351  0.9581
18075TIP3   OH275639   5.830   1.355  14.217 -0.0386  0.3737  0.5829
18075TIP3    H175640   5.794   1.291  14.278 -1.2375  1.5797  1.1619
18075TIP3    H275641   5.771   1.353  14.142  0.4768  0.1026  0.1806
18076TIP3   OH275642   5.891   5.629   3.196 -0.6170 -0.0691  0.5111
18076TIP3    H175643   5.935   5.552   3.231 -1.4935 -0.9075 -0.1926
18076TIP3    H275644   5.890   5.691   3.268  2.9496  0.5330  0.1735
18077TIP3   OH275645   6.518   0.629   1.454 -0.8890 -0.0532  0.1135
18077TIP3    H175646   6.446   0.650   1.394  0.3391 -1.0950 -1.7728
18077TIP3    H275647   6.511   0.535   1.469 -0.3658 -0.0336  0.5181
18078TIP3   OH275648   4.330   3.043  16.399  0.1257 -0.5207 -0.0191
18078TIP3    H175649   4.426   3.039  16.400  0.1614  0.0753 -0.5891
18078TIP3    H275650   4.309   3.088  16.317 -0.5587  1.2630  1.0972
18079TIP3   OH275651   0.047   1.584   0.316 -0.3651  0.5153  0.3173
18079TIP3    H175652  -0.019   1.650   0.294 -0.7004 -0.3019 -1.2073
18079TIP3    H275653   0.093   1.569   0.234 -0.2065 -1.0631  0.6886
18080TIP3   OH275654   5.162   0.455   3.496 -0.8611  0.7800 -0.0164
18080TIP3    H175655   5.154   0.539   3.451  0.6805 -0.3393 -2.4428
18080TIP3    H275656   5.149   0.389   3.428 -1.3870 -0.9725  1.7242
18081TIP3   OH275657   0.390   4.702  11.753 -0.0659 -0.2699  0.5722
18081TIP3    H175658   0.377   4.764  11.681 -0.5214  0.1422  1.0099
18081TIP3    H275659   0.386   4.616  11.711  0.1062 -0.0184  0.0357
18082TIP3   OH275660   0.129   5.951   2.923  0.0652 -0.1464 -0.4278
18082TIP3    H175661   0.188   6.000   2.867  2.9143  0.7217  3.1374
18082TIP3    H275662   0.159   5.860   2.916  1.9250  0.2899  1.3655
18083TIP3   OH275663   4.800   1.521   0.363 -0.0869  0.3052  0.1812
18083TIP3    H175664   4.793   1.532   0.268 -0.5325 -1.3151  0.0080
18083TIP3    H275665   4.893   1.525   0.382  0.0555 -0.1963 -0.4304
18084TIP3   OH275666   4.179   2.078  17.160  0.2769 -0.1064 -0.1902
18084TIP3    H175667   4.182   2.105  17.252 -0.3861  1.1802 -0.5357
18084TIP3    H275668   4.089   2.049  17.146  0.9898 -2.6193  0.1826
18085TIP3   OH275669   1.622   6.366   2.664 -0.2127  0.4410 -0.1341
18085TIP3    H175670   1.715   6.351   2.683 -0.7323 -2.2421  0.5721
18085TIP3    H275671   1.619   6.384   2.570  1.1592  2.0883  0.1041
18086TIP3   OH275672   3.746   0.381  14.481  0.3724 -0.5408 -0.0615
18086TIP3    H175673   3.775   0.293  14.503  2.3545  0.1157  0.0544
18086TIP3    H275674   3.756   0.386  14.386 -0.0079 -0.5446 -0.1001
18087TIP3   OH275675   5.088   4.123  13.759 -0.0340  0.3986  0.3903
18087TIP3    H175676   5.021   4.152  13.821 -0.2193 -1.7671  1.2253
18087TIP3    H275677   5.080   4.028  13.757  1.9644  0.2256 -0.7080
18088TIP3   OH275678   1.060   6.140   0.215 -0.6915 -0.3854 -0.1786
18088TIP3    H175679   1.097   6.121   0.301  1.2188  2.3422 -0.3416
18088TIP3    H275680   0.967   6.155   0.232 -0.5401 -0.8928  1.2201
18089TIP3   OH275681   6.356   0.741   4.704  0.4308  0.2126 -0.4660
18089TIP3    H175682   6.315   0.748   4.618 -2.2058 -0.2639  0.6957
18089TIP3    H275683   6.417   0.668   4.696 -1.7842 -1.6213 -1.2171
18090TIP3   OH275684   3.358   5.775   3.173  0.6128 -0.5113  0.4260
18090TIP3    H175685   3.435   5.718   3.173 -0.0841 -1.4975 -1.5568
18090TIP3    H275686   3.321   5.766   3.086 -1.4934  0.3082  1.1937
18091TIP3   OH275687   4.819   6.226  12.523 -0.2720 -0.5336  0.0817
18091TIP3    H175688   4.789   6.152  12.471  0.6642 -0.5746 -0.4078
18091TIP3    H275689   4.838   6.295  12.459 -1.2458  0.1876  0.5379
18092TIP3   OH275690   0.576   6.542   0.012 -0.4423  0.2570 -0.2736
18092TIP3    H175691   0.587   6.551   0.106 -0.6237  2.3633 -0.4135
18092TIP3    H275692   0.661   6.513  -0.020 -0.6464 -1.3532  0.6326
18093TIP3   OH275693   3.659   5.587  11.776 -0.2793 -0.0204 -0.3007
18093TIP3    H175694   3.689   5.630  11.696 -0.3388  0.4878 -0.0535
18093TIP3    H275695   3.674   5.652  11.845  0.0167 -0.5576  0.1394
18094TIP3   OH275696   1.153   2.308   2.357 -0.5204  0.3166 -0.0058
18094TIP3    H175697   1.248   2.315   2.349 -0.4562  0.2382  0.6598
18094TIP3    H275698   1.122   2.302   2.266  0.0065  1.5482 -0.2704
18095TIP3   OH275699   3.828   4.685   2.156  0.1231  0.0996 -0.0159
18095TIP3    H175700   3.827   4.780   2.170  0.9476  0.0357  0.4594
18095TIP3    H275701   3.799   4.648   2.239 -1.6783 -0.0251 -0.6642
18096TIP3   OH275702   1.945   5.994  12.873  0.7460  0.2432  0.0763
18096TIP3    H175703   1.873   6.054  12.890  0.1116  0.1113 -1.9581
18096TIP3    H275704   1.966   5.956  12.958 -2.4119 -0.6274  0.5357
18097TIP3   OH275705   5.085   1.062   6.209 -0.6022 -0.6042 -0.4478
18097TIP3    H175706   5.109   1.155   6.211  0.2190 -0.8228  0.4986
18097TIP3    H275707   5.165   1.017   6.182 -1.1071 -1.0086 -1.2935
18098TIP3   OH275708   3.097   4.724  13.110 -0.0502 -0.0123  0.2197
18098TIP3    H175709   3.079   4.809  13.071 -1.6088 -0.9841 -1.2416
18098TIP3    H275710   3.132   4.671  13.038 -0.7097 -1.0985  0.6745
18099TIP3   OH275711   6.335   4.522   1.963 -0.2025  0.1428  0.4014
18099TIP3    H175712   6.306   4.573   2.038  0.1976 -0.5815  1.0456
18099TIP3    H275713   6.361   4.438   1.999  0.9869  0.1512 -0.3995
18100TIP3   OH275714   1.285   0.830  15.573  0.1562 -0.0000 -0.1623
18100TIP3    H175715   1.271   0.906  15.517  1.9987  0.6026  0.1696
18100TIP3    H275716   1.348   0.776  15.525 -0.6890 -1.0337 -0.1250
18101TIP3   OH275717   3.769   3.417  13.695  0.0247 -0.2251  0.0450
18101TIP3    H175718   3.755   3.510  13.677  0.4678 -0.2396 -0.4092
18101TIP3    H275719   3.862   3.404  13.676 -0.1169 -0.8327 -0.2240
18102TIP3   OH275720   1.580   5.963   5.994  0.1330  0.0359 -0.1944
18102TIP3    H175721   1.567   6.017   6.072 -1.7459  1.0380 -1.1605
18102TIP3    H275722   1.583   5.873   6.027 -0.3278  0.4697  1.0603
18103TIP3   OH275723   3.243   4.884   6.058 -0.0358 -0.1383 -0.2725
18103TIP3    H175724   3.325   4.841   6.030  0.9077  0.6192  1.2704
18103TIP3    H275725   3.269   4.940   6.131 -1.8915  0.3771  0.0179
18104TIP3   OH275726   0.749   4.737  15.361  0.5245 -0.1957  0.3824
18104TIP3    H175727   0.658   4.713  15.381  0.6811 -0.5649  0.6471
18104TIP3    H275728   0.794   4.731  15.446  1.2987 -2.1848 -0.1689
18105TIP3   OH275729   0.336   5.061  13.523 -0.5083 -0.3820 -0.1204
18105TIP3    H175730   0.243   5.056  13.503 -0.6149  0.8023  0.0478
18105TIP3    H275731   0.378   5.008  13.454 -1.2473 -0.3945 -0.5705
18106TIP3   OH275732   4.864   0.944   4.683 -0.1858 -0.6005 -0.1476
18106TIP3    H175733   4.940   0.992   4.715 -0.6367 -0.0819  0.1745
18106TIP3    H275734   4.794   0.967   4.745 -0.8784 -0.1974 -1.0685
18107TIP3   OH275735   3.478   6.542   2.398 -0.5580 -0.0851  0.5404
18107TIP3    H175736   3.456   6.567   2.308 -0.1310 -2.7368 -0.3496
18107TIP3    H275737   3.393   6.537   2.442 -0.8181  0.6251  0.1450
18108TIP3   OH275738   2.728   5.701  16.832 -0.0885 -0.1784  0.0657
18108TIP3    H175739   2.708   5.617  16.874  0.4554 -0.7780 -0.8563
18108TIP3    H275740   2.759   5.757  16.903 -0.0692 -0.8837  0.6202
18109TIP3   OH275741   4.559   1.842   2.336 -0.3768 -0.0620 -0.5321
18109TIP3    H175742   4.562   1.794   2.253 -1.2363  1.4743 -1.4743
18109TIP3    H275743   4.467   1.841   2.361  0.0337 -1.5625  1.0669
18110TIP3   OH275744   6.676   6.592   4.439  0.2272  0.1458  0.1228
18110TIP3    H175745   6.731   6.543   4.500  0.1844 -0.0663 -0.0102
18110TIP3    H275746   6.587   6.567   4.462  0.2873 -1.6817 -1.5013
18111TIP3   OH275747   2.808   4.413  13.762  0.2083 -0.0809  0.8735
18111TIP3    H175748   2.819   4.420  13.667 -0.1436 -1.3248  0.7356
18111TIP3    H275749   2.896   4.428  13.797  0.1716  1.3151  0.4124
18112TIP3   OH275750   2.509   3.962   6.188 -0.4195 -0.2809 -0.8253
18112TIP3    H175751   2.598   3.982   6.217 -1.4180  1.3211  1.2813
18112TIP3    H275752   2.503   3.866   6.195  2.5979 -0.9683 -5.5335
18113TIP3   OH275753   2.433   3.741   5.589  0.4006 -0.1432  0.3563
18113TIP3    H175754   2.467   3.754   5.677  0.3726  0.4171  0.2879
18113TIP3    H275755   2.341   3.719   5.601  0.4944 -0.4499  0.4878
18114TIP3   OH275756   5.844   4.342  15.708 -0.2864  0.5848 -0.2245
18114TIP3    H175757   5.931   4.335  15.747 -0.5736  0.4392  0.3977
18114TIP3    H275758   5.860   4.351  15.614  0.3198 -2.8847 -0.5223
18115TIP3   OH275759   3.310   1.837   4.835  0.8316 -0.1256 -0.0064
18115TIP3    H175760   3.314   1.828   4.740  1.1980 -1.4768  0.1304
18115TIP3    H275761   3.331   1.750   4.868 -1.0488 -0.1196  1.2730
18116TIP3   OH275762   0.695   4.649   4.129  0.0790  0.1948  0.3093
18116TIP3    H175763   0.671   4.638   4.221 -1.3216 -1.8390 -0.2622
18116TIP3    H275764   0.790   4.637   4.128  0.1384  0.4540  1.5012
18117TIP3   OH275765   3.452   0.728  10.781 -0.4829 -0.2854 -0.3182
18117TIP3    H175766   3.465   0.772  10.865 -0.5468  1.5012 -1.2063
18117TIP3    H275767   3.525   0.758  10.727 -1.2434 -0.2380 -1.3426
18118TIP3   OH275768   6.422   3.234   0.138 -0.3970  0.0451  0.0938
18118TIP3    H175769   6.500   3.265   0.184  0.2935 -1.0141 -0.3295
18118TIP3    H275770   6.350   3.286   0.174  0.5844  1.4065  0.0905
18119TIP3   OH275771   1.149   1.873  12.345 -0.0290 -0.1818 -0.1105
18119TIP3    H175772   1.081   1.913  12.399 -0.0846  0.4933 -0.6687
18119TIP3    H275773   1.198   1.948  12.310  2.5383 -0.6671  2.2287
18120TIP3   OH275774   0.323   0.858  11.804  0.3364  0.4317  0.0639
18120TIP3    H175775   0.298   0.944  11.840  0.6034 -0.0726  1.4958
18120TIP3    H275776   0.244   0.828  11.758  0.5185  1.8204 -1.2114
18121TIP3   OH275777   5.220   1.980  14.925  0.0321  0.4897 -0.0524
18121TIP3    H175778   5.127   1.997  14.913 -0.0793  1.5103  1.9274
18121TIP3    H275779   5.263   2.036  14.860 -0.7501 -0.6799 -1.5956
18122TIP3   OH275780   5.150   5.223   0.579 -0.6450  0.1362  0.4388
18122TIP3    H175781   5.156   5.233   0.674  1.2680  2.8973  0.0792
18122TIP3    H275782   5.217   5.158   0.557 -0.8182 -0.2097  0.9403
18123TIP3   OH275783   5.697   0.873   0.851  0.4779  0.0533  0.4649
18123TIP3    H175784   5.604   0.872   0.875  0.0143 -1.2543 -1.2925
18123TIP3    H275785   5.741   0.838   0.928 -0.6657 -1.0044  0.6661
18124TIP3   OH275786   1.866   3.393  15.377 -0.2705  0.1180 -0.1111
18124TIP3    H175787   1.846   3.364  15.465 -1.2425  0.4732 -0.2103
18124TIP3    H275788   1.919   3.472  15.389  0.2281 -0.2581  0.1529
18125TIP3   OH275789   1.271   0.572  11.836 -0.2925  0.0714  0.1100
18125TIP3    H175790   1.208   0.622  11.888  0.6698 -0.9924  2.3694
18125TIP3    H275791   1.221   0.496  11.805 -0.3217 -0.3959  1.2813
18126TIP3   OH275792   4.348   0.124   6.013 -0.0489 -0.2316  1.1656
18126TIP3    H175793   4.386   0.044   5.977 -0.1432 -0.5784  1.8258
18126TIP3    H275794   4.308   0.096   6.096 -1.8140  0.1025  0.4461
18127TIP3   OH275795   3.519   4.633   1.412 -0.0986 -0.1268  0.4167
18127TIP3    H175796   3.427   4.633   1.385 -0.4583  1.1262  1.5736
18127TIP3    H275797   3.559   4.703   1.362 -0.2503  0.6792  1.4020
18128TIP3   OH275798   0.448   2.542  14.450  0.1324  0.5696 -0.5350
18128TIP3    H175799   0.505   2.466  14.442  1.7653  1.6894  0.1934
18128TIP3    H275800   0.500   2.615  14.417 -1.0579  1.5528 -0.2993
18129TIP3   OH275801   6.385   4.838  15.390 -0.4675 -0.5245  0.1254
18129TIP3    H175802   6.312   4.841  15.452 -1.1491 -0.7724 -0.6611
18129TIP3    H275803   6.366   4.907  15.326  1.7831  1.8525  1.8625
18130TIP3   OH275804   5.611   3.603  14.389  0.0838 -0.0756  0.3878
18130TIP3    H175805   5.566   3.530  14.430  0.0383  0.3630  1.1300
18130TIP3    H275806   5.560   3.680  14.414  0.1761  0.2190 -0.3183
18131TIP3   OH275807   3.511   3.984   0.628 -0.2465  0.1837 -0.0790
18131TIP3    H175808   3.573   3.988   0.555 -0.7391 -0.1768 -0.5226
18131TIP3    H275809   3.462   4.066   0.622 -0.4466  0.0494 -0.2993
18132TIP3   OH275810   5.055   0.941   3.297 -0.1312  0.2705  0.9407
18132TIP3    H175811   4.981   0.997   3.321 -0.0920  0.6098  0.2874
18132TIP3    H275812   5.070   0.886   3.374 -1.3838 -0.1429  0.8962
18133TIP3   OH275813   1.491   6.296   4.816 -0.4415 -0.0404  0.8145
18133TIP3    H175814   1.542   6.355   4.761  0.9183 -2.3363 -0.4810
18133TIP3    H275815   1.511   6.209   4.782 -2.4584 -1.2485  2.6119
18134TIP3   OH275816   1.222   4.718   4.073 -0.7336  0.0431 -0.5472
18134TIP3    H175817   1.188   4.769   4.146 -0.8880 -0.6097 -0.1547
18134TIP3    H275818   1.198   4.769   3.995 -1.1603  0.4089 -0.1806
18135TIP3   OH275819   5.211   5.655   4.460 -0.1125 -0.7421 -0.1141
18135TIP3    H175820   5.146   5.697   4.404 -1.3830 -1.9538  0.4273
18135TIP3    H275821   5.273   5.614   4.399  0.0236  0.2214 -0.6308
18136TIP3   OH275822   2.172   2.022   2.734 -0.5623  0.4869  0.1806
18136TIP3    H175823   2.077   2.023   2.723 -0.4407  1.3892 -0.8586
18136TIP3    H275824   2.207   2.050   2.649  0.6360  0.0956  0.5267
18137TIP3   OH275825   0.666   3.060   3.765  0.3196  0.2284  0.1745
18137TIP3    H175826   0.649   3.122   3.694 -2.2006 -1.3447 -0.6685
18137TIP3    H275827   0.696   2.981   3.722 -1.1638 -0.7120  0.8255
18138TIP3   OH275828   4.406   5.993   5.259 -0.0895  0.3551  0.5778
18138TIP3    H175829   4.355   5.912   5.254 -0.4154  0.5345  0.8885
18138TIP3    H275830   4.442   5.993   5.348  1.2445 -0.2335  0.0454
18139TIP3   OH275831   5.919   4.682  15.981  0.3197 -0.0624 -0.0253
18139TIP3    H175832   5.907   4.706  15.889 -2.3856  0.6871  0.4627
18139TIP3    H275833   5.830   4.686  16.018  0.6385 -4.8575  1.5778
18140TIP3   OH275834   2.105   4.013  11.895  0.4155  0.3442 -0.0966
18140TIP3    H175835   2.129   4.022  11.987  1.1749  2.9481 -0.4950
18140TIP3    H275836   2.038   3.946  11.894  1.5031 -0.8446  2.1594
18141TIP3   OH275837   1.633   5.295   2.289  0.7137 -0.0456  0.5293
18141TIP3    H175838   1.581   5.351   2.346  0.1363 -0.9253  0.8695
18141TIP3    H275839   1.676   5.356   2.228 -0.2135  0.7267  0.6472
18142TIP3   OH275840   1.546   4.814  15.084 -0.1328 -0.0423  0.0446
18142TIP3    H175841   1.504   4.829  15.000 -0.3813  0.5036  0.2605
18142TIP3    H275842   1.515   4.727  15.111 -2.0853  0.8240  0.7451
18143TIP3   OH275843   4.069   1.878   5.401  0.0811 -0.1132  0.2784
18143TIP3    H175844   4.163   1.894   5.410  0.2445 -0.9999  0.2232
18143TIP3    H275845   4.033   1.963   5.377  0.9278  0.1435 -0.1290
18144TIP3   OH275846   5.771   4.506  13.437  0.1718  0.3427  0.3093
18144TIP3    H175847   5.739   4.465  13.517 -1.4686  1.5784  0.3180
18144TIP3    H275848   5.799   4.434  13.382  0.3543 -0.5800  1.5957
18145TIP3   OH275849   4.705   5.634   0.070  0.0688  0.1274  0.3008
18145TIP3    H175850   4.769   5.652   0.140  0.8913  0.0306 -0.4100
18145TIP3    H275851   4.682   5.542   0.082  1.1002 -0.2123 -0.2605
18146TIP3   OH275852   3.052   0.709  13.255  0.6347 -0.0380 -0.3308
18146TIP3    H175853   3.031   0.711  13.162 -0.7614  2.1898  0.0076
18146TIP3    H275854   3.147   0.725  13.258  0.6907 -0.1200 -1.3455
18147TIP3   OH275855   3.388   4.252   2.404  0.0482 -0.3564  0.3316
18147TIP3    H175856   3.321   4.229   2.468 -0.6670 -0.1592 -0.3338
18147TIP3    H275857   3.345   4.240   2.319  1.3915 -1.8928 -0.1642
18148TIP3   OH275858   1.937   3.267  15.945  0.0178 -0.1909  0.0262
18148TIP3    H175859   1.905   3.207  15.878  0.8569 -0.0324 -0.5231
18148TIP3    H275860   2.000   3.215  15.995  0.6412  0.1889 -0.3620
18149TIP3   OH275861   5.060   2.293   1.665  0.1694  0.7696 -0.2109
18149TIP3    H175862   5.017   2.376   1.689  1.1652  1.9870 -2.4758
18149TIP3    H275863   5.013   2.264   1.587  0.3696 -0.3859  0.0960
18150TIP3   OH275864   5.121   2.771  16.108 -0.8010  0.0846 -0.0023
18150TIP3    H175865   5.144   2.818  16.029 -1.3252 -0.6005 -0.5715
18150TIP3    H275866   5.026   2.776  16.112 -0.7941 -0.1216  0.4366
18151TIP3   OH275867   3.637   5.044  11.270  0.3243 -0.1415  1.1436
18151TIP3    H175868   3.639   5.130  11.311  0.2241  0.2028  0.4367
18151TIP3    H275869   3.668   4.984  11.338 -0.8634  0.2778  2.0745
18152TIP3   OH275870   5.537   3.248   4.743 -0.0915 -0.4757 -0.4616
18152TIP3    H175871   5.613   3.254   4.685 -0.8963 -0.3176 -1.5235
18152TIP3    H275872   5.569   3.278   4.828  0.4018  2.0958 -1.5054
18153TIP3   OH275873   2.097   5.584   1.019 -0.4495  0.4617  0.1724
18153TIP3    H175874   2.123   5.501   0.979  1.7341  0.7669  0.8845
18153TIP3    H275875   2.042   5.559   1.093  0.8537 -0.4133  0.8670
18154TIP3   OH275876   0.297   3.924  12.831  0.0117 -0.3014  0.0713
18154TIP3    H175877   0.297   3.846  12.776  0.8243  0.1674 -0.6079
18154TIP3    H275878   0.239   3.985  12.787 -0.6386 -0.5213  0.6130
18155TIP3   OH275879   3.722   4.523   1.872  0.1234  0.0424 -0.2619
18155TIP3    H175880   3.734   4.591   1.937  1.1543  0.7235 -1.1557
18155TIP3    H275881   3.680   4.567   1.798 -0.3465 -0.5599 -0.3601
18156TIP3   OH275882   2.025   5.650   1.475  0.0473 -0.3944 -0.3564
18156TIP3    H175883   2.070   5.631   1.557 -0.4787 -0.0926  0.0074
18156TIP3    H275884   1.978   5.732   1.492 -1.0646 -0.9794 -0.5575
18157TIP3   OH275885   0.555   3.780  15.135  0.4599 -0.0884  0.6865
18157TIP3    H175886   0.649   3.766  15.146  0.5164  0.3109  0.6995
18157TIP3    H275887   0.516   3.695  15.158  0.8679 -0.4859 -0.0600
18158TIP3   OH275888   1.401   1.908   2.856 -0.0040  0.0317  0.2439
18158TIP3    H175889   1.390   1.946   2.943 -1.4714 -1.6043  0.8191
18158TIP3    H275890   1.356   1.968   2.797  1.3762  1.3761  0.5460
18159TIP3   OH275891   0.775   3.198   5.729 -0.1310  0.1850 -0.2632
18159TIP3    H175892   0.776   3.191   5.633 -2.8190 -2.1502 -0.2213
18159TIP3    H275893   0.716   3.272   5.747  2.0400  1.9837 -0.3993
18160TIP3   OH275894   0.430   0.313   5.311  0.4663  0.0552 -0.6027
18160TIP3    H175895   0.384   0.265   5.379 -0.8316 -1.1878 -2.3160
18160TIP3    H275896   0.451   0.398   5.351 -1.0109 -0.3378  1.0411
18161TIP3   OH275897   5.827   0.375   1.050  0.4873 -0.0939  0.0030
18161TIP3    H175898   5.824   0.313   1.123 -0.2024 -0.4431 -0.3121
18161TIP3    H275899   5.784   0.453   1.084 -0.1273 -0.3690 -0.1251
18162TIP3   OH275900   0.681   2.868  15.414  0.2631 -0.2387 -0.9162
18162TIP3    H175901   0.677   2.773  15.428  1.6321 -0.6893 -3.1627
18162TIP3    H275902   0.759   2.896  15.462 -0.7264 -0.0719  0.6018
18163TIP3   OH275903   4.268   6.198  12.115  0.0227 -0.0907  0.2716
18163TIP3    H175904   4.312   6.201  12.200 -0.2971 -1.0405  0.4761
18163TIP3    H275905   4.285   6.110  12.082 -0.0913  0.1795 -0.5279
18164TIP3   OH275906   3.959   6.076   0.936 -0.2576  0.2573  0.9547
18164TIP3    H175907   3.950   6.054   0.843  0.6086  1.3881  0.5847
18164TIP3    H275908   4.036   6.134   0.939  0.9137 -1.3366  2.6354
18165TIP3   OH275909   4.742   1.814  11.091  0.7192  0.0584  0.1237
18165TIP3    H175910   4.749   1.788  10.999  0.0428 -2.2164  0.6843
18165TIP3    H275911   4.649   1.803  11.112  1.0297 -0.2953  1.3260
18166TIP3   OH275912   3.687   6.014  16.569  0.3707  0.3131 -0.1179
18166TIP3    H175913   3.682   6.077  16.641  0.5897 -0.1182  0.2774
18166TIP3    H275914   3.779   6.013  16.543  0.9210 -1.8085  1.6732
18167TIP3   OH275915   3.941   6.568   1.659 -0.6244  0.1763  0.0551
18167TIP3    H175916   3.890   6.648   1.673  0.3697  0.6902  0.7901
18167TIP3    H275917   4.030   6.599   1.643  0.1876 -0.8589  2.3774
18168TIP3   OH275918   6.412   6.193   6.125 -0.2943 -0.1613  0.3599
18168TIP3    H175919   6.411   6.288   6.117  3.5204 -0.2651 -3.7305
18168TIP3    H275920   6.339   6.163   6.071 -0.3489  0.3934  0.1258
18169TIP3   OH275921   2.073   1.439  11.650  0.1305  0.5582 -0.5719
18169TIP3    H175922   2.038   1.516  11.605  0.7565  1.1435 -0.0747
18169TIP3    H275923   2.006   1.371  11.638 -0.9022  1.4808 -0.1345
18170TIP3   OH275924   6.051   6.210   4.205  0.1268  0.0118  0.3301
18170TIP3    H175925   6.141   6.210   4.173 -0.3143  1.0661 -0.9498
18170TIP3    H275926   6.004   6.154   4.142 -0.4311  0.8079  0.0304
18171TIP3   OH275927   6.367   1.201   3.394  0.0508  0.2158 -0.1072
18171TIP3    H175928   6.414   1.173   3.315  0.0507  1.0610 -0.4181
18171TIP3    H275929   6.431   1.254   3.442  0.2914 -0.9109  0.8334
18172TIP3   OH275930   2.239   4.961  12.332 -0.5214 -0.3371  0.4472
18172TIP3    H175931   2.326   4.941  12.297 -0.5148  0.5154 -0.0085
18172TIP3    H275932   2.185   4.979  12.256 -0.8298  0.2299  0.7966
18173TIP3   OH275933   2.180   0.200  13.332  0.3786  0.5427 -0.3767
18173TIP3    H175934   2.264   0.163  13.306  0.0335 -0.8257  0.3865
18173TIP3    H275935   2.199   0.256  13.407  0.6555  0.5491 -0.4532
18174TIP3   OH275936   0.440   1.459  13.613  0.3867 -0.7576  0.0229
18174TIP3    H175937   0.515   1.442  13.670  0.6254  0.3812  0.0459
18174TIP3    H275938   0.476   1.454  13.524  0.5481  0.0683  0.0416
18175TIP3   OH275939   0.099   5.113  15.587 -0.7678  0.0266 -0.0926
18175TIP3    H175940   0.086   5.068  15.671 -0.4429 -0.4150 -0.2709
18175TIP3    H275941   0.191   5.139  15.589 -0.9020  0.5013 -0.0813
18176TIP3   OH275942   5.378   1.306  16.198  0.1551 -0.3631  0.1263
18176TIP3    H175943   5.424   1.380  16.237 -0.1333  0.7264 -1.5340
18176TIP3    H275944   5.285   1.327  16.209  0.0349  0.7561 -2.4527
18177TIP3   OH275945   0.509   5.843   5.514 -0.2505 -0.1049 -0.1178
18177TIP3    H175946   0.512   5.851   5.609 -0.9442  0.6399 -0.1572
18177TIP3    H275947   0.558   5.919   5.482  0.0387 -0.3892 -0.3583
18178TIP3   OH275948   5.319   3.652  15.660  0.0603  0.2766 -0.2805
18178TIP3    H175949   5.364   3.594  15.599  0.4359  0.3425 -0.0647
18178TIP3    H275950   5.352   3.739  15.641  0.4614  0.2508  0.2608
18179TIP3   OH275951   6.176   4.813  14.576 -0.3224 -0.0197  0.7683
18179TIP3    H175952   6.270   4.824  14.588 -0.5445  1.7482  0.9296
18179TIP3    H275953   6.136   4.881  14.631 -1.6290  0.9088 -1.2762
18180TIP3   OH275954   4.565   6.711   1.925  0.0302  0.4148  0.5487
18180TIP3    H175955   4.497   6.778   1.915 -1.5071 -1.0775  0.9589
18180TIP3    H275956   4.543   6.665   2.005 -0.4755 -2.3548 -1.1115
18181TIP3   OH275957   0.917   1.651   5.657  0.4845  0.3446  0.0656
18181TIP3    H175958   0.926   1.739   5.621  2.9531 -0.4681 -1.4280
18181TIP3    H275959   0.869   1.602   5.589 -1.5150  0.6957  1.2006
18182TIP3   OH275960   3.324   1.460  10.448  0.1798  0.2666 -0.1337
18182TIP3    H175961   3.325   1.383  10.504 -1.2488 -3.1106 -4.4976
18182TIP3    H275962   3.416   1.473  10.423  0.3121 -0.6864 -0.1697
18183TIP3   OH275963   5.996   2.889  16.512  0.1651 -0.1349 -0.2458
18183TIP3    H175964   5.909   2.854  16.530  0.3461  0.0191  1.0225
18183TIP3    H275965   6.029   2.915  16.599  0.7549  1.4474 -0.9227
18184TIP3   OH275966   2.520   5.122   1.999 -0.4961 -1.0179  0.0157
18184TIP3    H175967   2.598   5.138   2.052 -1.4430  1.5587  0.7127
18184TIP3    H275968   2.554   5.088   1.916  1.3267 -0.3929  0.4726
18185TIP3   OH275969   0.814   0.454  13.172 -0.4716 -0.3193 -0.1063
18185TIP3    H175970   0.731   0.410  13.189 -1.2104  0.9818 -0.2822
18185TIP3    H275971   0.799   0.505  13.093  0.0479  1.0178  0.6219
18186TIP3   OH275972   6.471   4.293  16.405 -0.3624  0.7103 -0.0214
18186TIP3    H175973   6.478   4.342  16.323  0.1259  0.7549  0.0488
18186TIP3    H275974   6.415   4.348  16.461  0.6751  1.4872  0.2709
18187TIP3   OH275975   3.583   2.145  15.770 -0.7345  0.2403  0.5093
18187TIP3    H175976   3.607   2.052  15.778 -0.9900  0.1083 -0.2126
18187TIP3    H275977   3.666   2.190  15.758 -0.5106  0.2316  1.9705
18188TIP3   OH275978   3.155   4.622  11.281 -0.2456 -0.0560 -0.2955
18188TIP3    H175979   3.136   4.701  11.231 -0.4004 -0.8373 -1.5238
18188TIP3    H275980   3.116   4.551  11.229  2.1293 -1.2267 -0.5834
18189TIP3   OH275981   2.060   5.656  16.357 -0.6635  0.0095 -0.0805
18189TIP3    H175982   1.966   5.634  16.361 -1.1990  2.3028  0.4569
18189TIP3    H275983   2.098   5.610  16.432 -1.7153  0.6891  0.8948
18190TIP3   OH275984   5.057   0.867   1.745  0.5572  0.0801  0.3330
18190TIP3    H175985   5.057   0.904   1.833  2.6426 -2.2719  1.3805
18190TIP3    H275986   5.124   0.916   1.698 -1.5820  2.3569 -0.4704
18191TIP3   OH275987   5.201   3.737   0.306  0.1707  0.5645  0.3753
18191TIP3    H175988   5.255   3.814   0.289  2.0172 -1.0450 -1.2973
18191TIP3    H275989   5.144   3.730   0.229  0.7985 -0.3538 -0.0206
18192TIP3   OH275990   2.078   2.312   1.612  0.9490  0.0891  0.3063
18192TIP3    H175991   2.051   2.279   1.698  0.4403 -0.0483  0.0981
18192TIP3    H275992   2.173   2.318   1.617  0.9818 -0.6435  0.6196
18193TIP3   OH275993   1.735   4.916   5.292 -0.1302 -0.0855  0.4643
18193TIP3    H175994   1.739   4.968   5.212  1.8793  0.4670  0.8886
18193TIP3    H275995   1.647   4.931   5.326 -0.7133  0.3515 -1.1794
18194TIP3   OH275996   0.508   6.322   2.005 -0.8926  0.2277 -0.4951
18194TIP3    H175997   0.540   6.250   1.950 -1.3594 -1.6179  1.5707
18194TIP3    H275998   0.465   6.381   1.944  0.1703 -0.8534 -2.3556
18195TIP3   OH275999   5.070   3.439   4.287 -0.6174 -0.5368  0.0621
18195TIP3    H176000   4.982   3.403   4.272 -0.7718 -0.2161  0.1993
18195TIP3    H276001   5.054   3.530   4.311 -0.1512  0.1323 -2.0125
18196TIP3   OH276002   6.750   5.965   0.256 -0.3572 -0.3287 -0.0801
18196TIP3    H176003   6.703   6.031   0.207  0.2666 -0.1415 -0.4377
18196TIP3    H276004   6.783   5.904   0.190  0.5233 -0.0514  0.0866
18197TIP3   OH276005   0.314   0.120   5.490 -0.0448  0.1375  0.5090
18197TIP3    H176006   0.337   0.089   5.578  1.0349 -1.5374 -0.3467
18197TIP3    H276007   0.241   0.064   5.463  0.6862 -0.4190 -0.3098
18198TIP3   OH276008   2.929   6.494  14.033 -0.3376 -0.4102 -0.1196
18198TIP3    H176009   2.893   6.440  14.103  1.3970 -1.8278 -0.2958
18198TIP3    H276010   3.023   6.498  14.051  0.1178 -0.6682 -2.2825
18199TIP3   OH276011   3.853   5.737  13.178  0.1323 -0.2494 -0.5920
18199TIP3    H176012   3.826   5.794  13.106 -2.0976  0.0391  0.4404
18199TIP3    H276013   3.929   5.781  13.216  1.4146 -0.4678 -2.8244
18200TIP3   OH276014   3.248   6.149  13.498 -0.2983  0.1237  0.5155
18200TIP3    H176015   3.246   6.190  13.585  3.0563 -0.0472  0.7263
18200TIP3    H276016   3.285   6.062  13.514 -0.3908 -0.2037 -0.9874
18201TIP3   OH276017   4.460   1.449   5.363 -0.1658 -0.0029  0.2660
18201TIP3    H176018   4.507   1.367   5.350  2.1530  1.3430 -0.0313
18201TIP3    H276019   4.368   1.426   5.351  0.3893 -2.6780  0.8155
18202TIP3   OH276020   1.393   5.256   3.390 -0.2603 -0.4869  0.2606
18202TIP3    H176021   1.335   5.222   3.458 -0.2879  0.7823  0.8893
18202TIP3    H276022   1.334   5.285   3.320 -0.4342  1.1538  1.0596
18203TIP3   OH276023   5.456   2.278   5.940  0.8477  0.3842 -0.2445
18203TIP3    H176024   5.486   2.354   5.890  2.3529 -0.1737 -0.2241
18203TIP3    H276025   5.510   2.206   5.908  0.2800 -0.4265  0.6092
18204TIP3   OH276026   4.812   6.256  17.066 -0.3997 -0.4970 -0.0162
18204TIP3    H176027   4.826   6.338  17.018  1.9441 -1.0482 -0.3223
18204TIP3    H276028   4.899   6.228  17.092 -1.4034 -1.5772  2.3597
18205TIP3   OH276029   3.081   4.302  11.492  0.2426 -0.0893  0.3654
18205TIP3    H176030   3.038   4.279  11.575 -0.5105 -1.4639 -0.3895
18205TIP3    H276031   3.010   4.321  11.432  0.7550 -0.3241 -0.3174
18206TIP3   OH276032   1.697   0.037  12.048 -0.4049  0.5213  0.5743
18206TIP3    H176033   1.746   0.114  12.077 -0.9344  0.7770  0.8042
18206TIP3    H276034   1.723   0.025  11.957  0.9171 -0.0045  1.0116
18207TIP3   OH276035   5.393   0.026  12.556  0.3460  0.2262 -0.2449
18207TIP3    H176036   5.317  -0.007  12.603  0.5252 -0.3216 -0.3317
18207TIP3    H276037   5.399  -0.030  12.479  1.6031 -0.5955  0.4268
18208TIP3   OH276038   6.739   0.725   6.169 -0.2768 -0.2212 -0.3862
18208TIP3    H176039   6.796   0.799   6.187 -2.6343  1.3874  0.6739
18208TIP3    H276040   6.739   0.674   6.250  0.0629 -0.5189 -0.5701
18209TIP3   OH276041   2.398   1.364   1.542  0.0807 -0.2475 -0.4890
18209TIP3    H176042   2.406   1.284   1.491  0.3036 -0.1753 -0.5677
18209TIP3    H276043   2.488   1.394   1.555  0.2689 -2.1091  2.9039
18210TIP3   OH276044   6.676   3.830  15.239 -0.0761  0.5118  0.3288
18210TIP3    H176045   6.708   3.764  15.300  0.8374 -0.5297 -1.2399
18210TIP3    H276046   6.584   3.843  15.265  0.0731 -0.4678  1.4294
18211TIP3   OH276047   5.881   2.622   5.055 -0.6317  0.2168  0.2505
18211TIP3    H176048   5.870   2.713   5.085 -0.9274  0.8794 -1.7545
18211TIP3    H276049   5.969   2.619   5.020 -1.7679  0.6952 -2.7677
18212TIP3   OH276050   1.892   1.863  12.264  0.0107 -0.0168  0.1110
18212TIP3    H176051   1.931   1.775  12.267 -1.9830 -0.9330 -0.0553
18212TIP3    H276052   1.895   1.894  12.355 -2.6979 -1.8439  0.9039
18213TIP3   OH276053   4.836   0.330  14.396 -0.2115 -0.0726 -0.2124
18213TIP3    H176054   4.893   0.379  14.337 -0.5859 -0.7986 -1.1823
18213TIP3    H276055   4.764   0.391  14.415  0.5025  0.5769  0.4292
18214TIP3   OH276056   3.422   3.597   3.451  0.3072  0.1549  0.4968
18214TIP3    H176057   3.396   3.548   3.529  1.1277 -0.0103  0.6656
18214TIP3    H276058   3.517   3.586   3.446  0.0815 -1.3176 -1.5049
18215TIP3   OH276059   3.033   6.591   3.073 -0.1763  0.6387 -0.1147
18215TIP3    H176060   3.009   6.654   3.141 -0.1454  0.3413  0.1726
18215TIP3    H276061   2.958   6.589   3.014 -1.4556 -1.3181  1.5326
18216TIP3   OH276062   5.494   5.926   1.063 -0.3662 -0.1740 -0.3353
18216TIP3    H176063   5.573   5.922   1.009  0.7237 -0.6549  1.2388
18216TIP3    H276064   5.438   5.991   1.020  0.8414  0.0871 -1.5359
18217TIP3   OH276065   4.934   3.280  13.546 -0.1436  0.2942 -0.3252
18217TIP3    H176066   4.878   3.272  13.469  0.5176 -1.6600 -0.6199
18217TIP3    H276067   4.884   3.337  13.606 -1.9088 -0.4646 -1.0471
18218TIP3   OH276068   4.965   1.490  15.622 -0.4476 -0.3784  0.2143
18218TIP3    H176069   5.048   1.481  15.669 -1.5151  0.4402  2.3126
18218TIP3    H276070   4.968   1.578  15.584  0.7915 -1.3586 -2.0830
18219TIP3   OH276071   4.893   0.164   2.701 -0.0912  0.0014  0.0505
18219TIP3    H176072   4.847   0.247   2.717 -1.7847 -0.5141 -1.9070
18219TIP3    H276073   4.925   0.171   2.611  1.1383 -0.8568  0.4054
18220TIP3   OH276074   0.981   3.578   6.027 -0.1683 -0.0272 -0.0348
18220TIP3    H176075   0.888   3.592   6.010  0.0725  0.5211 -0.9236
18220TIP3    H276076   0.997   3.486   6.005 -0.5320 -0.1665  0.2823
18221TIP3   OH276077   3.524   3.217   3.017 -0.7333 -0.6890  0.4088
18221TIP3    H176078   3.455   3.279   3.040  0.7446  0.6578  1.3641
18221TIP3    H276079   3.599   3.273   2.996  0.0910 -2.1245 -0.5631
18222TIP3   OH276080   1.166   1.891  11.445  0.1109  0.4555 -0.2629
18222TIP3    H176081   1.107   1.816  11.452 -0.9442  1.3206  0.2538
18222TIP3    H276082   1.244   1.865  11.493 -0.5313 -0.0361  0.5209
18223TIP3   OH276083   6.339   5.900   2.077 -0.2369  0.4531  0.3452
18223TIP3    H176084   6.273   5.895   2.008 -2.1414 -0.5651  2.1573
18223TIP3    H276085   6.325   5.986   2.118 -2.5943 -0.9565  2.6973
18224TIP3   OH276086   3.790   5.675   6.087  0.0188 -0.5788  0.2121
18224TIP3    H176087   3.884   5.686   6.100  0.0370 -1.8037  1.1897
18224TIP3    H276088   3.750   5.734   6.152  0.0770  1.1412 -1.2557
18225TIP3   OH276089   0.172   2.620  11.875  0.2506 -0.2004  0.0757
18225TIP3    H176090   0.170   2.575  11.790  0.3366 -2.2435  1.1023
18225TIP3    H276091   0.081   2.641  11.894  0.2313  0.2646 -0.5239
18226TIP3   OH276092   3.382   3.732   3.228 -0.2898  0.2417 -0.1189
18226TIP3    H176093   3.377   3.691   3.315 -0.4759  0.1669 -0.1632
18226TIP3    H276094   3.301   3.783   3.222 -0.5304 -0.1703 -0.4555
18227TIP3   OH276095   1.778   3.227   1.070  0.5745 -0.0409 -0.0952
18227TIP3    H176096   1.777   3.243   0.976  1.4694 -0.6920 -0.2227
18227TIP3    H276097   1.752   3.135   1.079 -0.6913  0.3502  0.3770
18228TIP3   OH276098   5.045   6.326   3.271 -0.3725 -0.3259 -0.1899
18228TIP3    H176099   5.001   6.356   3.350 -0.8644 -0.7553 -0.2972
18228TIP3    H276100   5.118   6.272   3.303  0.7148  1.2210  0.0113
18229TIP3   OH276101   4.252   2.650  14.569 -0.6063  0.1579  0.0861
18229TIP3    H176102   4.204   2.567  14.568 -1.8474  0.8735  0.7813
18229TIP3    H276103   4.316   2.639  14.640 -1.2818  0.0863  0.6915
18230TIP3   OH276104   6.643   6.199   4.698  0.4056 -0.0720 -0.1607
18230TIP3    H176105   6.633   6.178   4.791 -0.1204  1.7348  0.1938
18230TIP3    H276106   6.725   6.156   4.673  1.8217  1.4473  1.7366
18231TIP3   OH276107   2.898   1.591   1.290 -0.2697  0.7554  0.0698
18231TIP3    H176108   2.962   1.635   1.234 -1.8297 -0.7093 -2.9716
18231TIP3    H276109   2.930   1.501   1.296  0.0167  0.9661  1.7630
18232TIP3   OH276110   3.897   1.945  14.574 -0.1448  0.1409 -0.3681
18232TIP3    H176111   3.898   2.023  14.629 -0.6750 -1.0031  1.3420
18232TIP3    H276112   3.950   1.881  14.622  2.4312  0.2374 -2.9918
18233TIP3   OH276113   6.626   1.049  10.587 -0.0123  0.5361 -0.1888
18233TIP3    H176114   6.697   1.111  10.607 -0.9198  1.4627  0.2375
18233TIP3    H276115   6.644   1.020  10.498  0.8230  0.8652 -0.1357
18234TIP3   OH276116   2.047   4.988   3.601 -0.6913 -0.0825 -0.4902
18234TIP3    H176117   2.021   5.051   3.668  2.4391 -0.3559  1.0830
18234TIP3    H276118   2.007   4.905   3.627 -2.1560  0.5161 -0.7911
18235TIP3   OH276119   0.308   3.156  12.977 -0.9716 -0.0173 -0.2232
18235TIP3    H176120   0.323   3.192  13.065 -1.1549 -0.2917 -0.0823
18235TIP3    H276121   0.308   3.061  12.989 -0.2494 -0.0805 -0.6368
18236TIP3   OH276122   2.837   6.250   2.642  0.1406  0.7812  0.0669
18236TIP3    H176123   2.854   6.229   2.550  3.4128 -1.5180  1.1033
18236TIP3    H276124   2.903   6.317   2.664  0.4696  0.1036  1.1679
18237TIP3   OH276125   0.667   5.085   3.396  0.2887  0.2069 -0.3311
18237TIP3    H176126   0.665   5.161   3.339  0.0959  0.9452  0.6486
18237TIP3    H276127   0.688   5.011   3.338  1.3292  1.1278 -1.1425
18238TIP3   OH276128   5.343   0.568  13.861  0.1310 -0.1073 -0.7445
18238TIP3    H176129   5.418   0.619  13.832  0.2986  0.7270  1.0656
18238TIP3    H276130   5.380   0.484  13.888  0.2640 -0.0862 -0.8610
18239TIP3   OH276131   3.201   3.243   3.806 -0.1410  0.1596  0.5029
18239TIP3    H176132   3.237   3.156   3.826 -0.5639  0.0757  0.8992
18239TIP3    H276133   3.112   3.225   3.774 -0.0498  0.4108  0.0984
18240TIP3   OH276134   4.356   4.285  14.469  0.1183 -0.3762 -0.3012
18240TIP3    H176135   4.320   4.206  14.428  0.4237  0.1042 -1.5107
18240TIP3    H276136   4.362   4.349  14.397  1.0014  0.3585  0.4217
18241TIP3   OH276137   3.998   0.267  13.908  0.1327  0.3434  0.0299
18241TIP3    H176138   3.913   0.258  13.952 -1.2977  0.9349 -2.5306
18241TIP3    H276139   4.029   0.354  13.933  0.1214  0.0166  1.1954
18242TIP3   OH276140   0.300   2.548   5.229  0.0395 -0.0219 -0.3460
18242TIP3    H176141   0.234   2.532   5.161 -1.1516  0.0598  0.7669
18242TIP3    H276142   0.318   2.642   5.221  0.8563 -0.2613 -1.3882
18243TIP3   OH276143   2.554   5.904   1.578 -0.1398  0.2533  0.4261
18243TIP3    H176144   2.533   5.935   1.490  1.7897 -0.1829 -0.2159
18243TIP3    H276145   2.493   5.832   1.594 -2.1358  1.8868  0.4404
18244TIP3   OH276146   2.443   4.296   0.949 -0.0689  0.1400  0.3314
18244TIP3    H176147   2.497   4.217   0.948 -1.5618 -0.8869 -1.1107
18244TIP3    H276148   2.458   4.334   1.036  1.0549 -1.4502  0.8499
18245TIP3   OH276149   5.439   5.360   5.779 -0.1846 -0.3745  0.2754
18245TIP3    H176150   5.429   5.280   5.729 -1.0027  0.5147 -1.0100
18245TIP3    H276151   5.527   5.391   5.757 -0.1669 -0.5043  0.1659
18246TIP3   OH276152   1.549   5.073   2.408  0.1160  0.2835  0.4077
18246TIP3    H176153   1.565   5.165   2.387 -1.7666  0.5215 -0.1317
18246TIP3    H276154   1.484   5.077   2.478 -0.9892 -0.6430 -0.5502
18247TIP3   OH276155   2.083   0.484   1.409 -0.0727  0.3220  0.3504
18247TIP3    H176156   2.163   0.514   1.453 -0.5022  1.1416  0.5836
18247TIP3    H276157   2.089   0.389   1.411  2.2230  0.3534 -2.0551
18248TIP3   OH276158   4.539   4.107   5.321  0.1551  0.3619  0.3896
18248TIP3    H176159   4.484   4.175   5.284 -0.4210 -1.4048 -2.1434
18248TIP3    H276160   4.497   4.084   5.404 -1.2764  1.0264 -0.1438
18249TIP3   OH276161   0.964   1.652  15.965 -0.0481  0.1389 -0.2897
18249TIP3    H176162   1.004   1.696  15.890  0.5135  0.9041  0.4552
18249TIP3    H276163   1.020   1.674  16.039 -0.2341 -1.1477  0.2461
18250TIP3   OH276164   0.388   4.676  10.949  0.2716 -0.5158  0.1540
18250TIP3    H176165   0.331   4.679  10.873  1.1348 -0.9619 -0.5176
18250TIP3    H276166   0.436   4.593  10.941  1.0153 -0.1536  0.6973
18251TIP3   OH276167   5.277   6.761  14.264 -0.3728  0.3029  0.3552
18251TIP3    H176168   5.305   6.670  14.270 -1.3999 -0.0897 -0.5253
18251TIP3    H276169   5.276   6.793  14.354  1.4093 -0.1176  0.5244
18252TIP3   OH276170   4.421   0.347   2.346  0.3280 -0.5703  0.3406
18252TIP3    H176171   4.459   0.435   2.348 -0.3784 -0.2357 -0.3067
18252TIP3    H276172   4.381   0.336   2.432 -0.3696  0.1107  0.1115
18253TIP3   OH276173   4.364   2.009  15.766 -0.5266 -0.1157  0.3759
18253TIP3    H176174   4.268   2.002  15.774 -0.4627 -1.0998  0.3684
18253TIP3    H276175   4.382   1.985  15.675 -0.2484 -0.2725  0.4718
18254TIP3   OH276176   5.293   6.761  15.290  0.2358  0.0424  0.3633
18254TIP3    H176177   5.244   6.708  15.228 -0.8230 -0.0386  1.2623
18254TIP3    H276178   5.250   6.847  15.288  0.6978  0.2813  0.3968
18255TIP3   OH276179   6.216   6.710  13.823 -0.5220  0.3056 -0.1649
18255TIP3    H176180   6.165   6.760  13.759  0.8296  0.2422 -1.3211
18255TIP3    H276181   6.249   6.776  13.884 -0.4073  0.5860 -0.5279
18256TIP3   OH276182   4.486   2.414  15.061  0.7400  0.3121  0.2710
18256TIP3    H176183   4.468   2.425  14.968  0.7720 -1.2588  0.0696
18256TIP3    H276184   4.447   2.491  15.102 -0.0765  0.5582 -0.9412
18257TIP3   OH276185   4.425   6.370   4.066  0.0342  0.1088 -0.1563
18257TIP3    H176186   4.357   6.367   3.998 -0.2337  1.6489  0.0278
18257TIP3    H276187   4.387   6.323   4.140  0.8021 -2.6834 -1.4486
18258TIP3   OH276188   3.009   0.042  16.732  0.4294 -0.4532 -0.7943
18258TIP3    H176189   3.038   0.117  16.785 -0.2132  0.8343 -2.2418
18258TIP3    H276190   2.939   0.002  16.784  0.9623 -0.2281  0.1162
18259TIP3   OH276191   0.648   1.428   1.238 -0.1093  0.0733 -0.1285
18259TIP3    H176192   0.558   1.458   1.221  0.0922  1.1208  0.5795
18259TIP3    H276193   0.638   1.345   1.284 -0.7272  0.3356  0.2155
18260TIP3   OH276194   2.817   1.173   4.811  0.1693 -0.0968 -0.5311
18260TIP3    H176195   2.799   1.267   4.814  1.3789  0.1153  0.2880
18260TIP3    H276196   2.825   1.148   4.903  0.0179 -0.9712 -0.7557
18261TIP3   OH276197   6.417   0.575  14.101  0.6088  0.5544 -0.8306
18261TIP3    H176198   6.406   0.487  14.065 -1.0057  0.9326 -1.2728
18261TIP3    H276199   6.363   0.631  14.046 -0.2657  1.4691  0.9117
18262TIP3   OH276200   3.301   4.119  15.783 -0.0044 -0.5485  0.1699
18262TIP3    H176201   3.389   4.118  15.744 -0.0636 -1.2787  0.0547
18262TIP3    H276202   3.286   4.211  15.803  1.0019 -0.4781  0.6607
18263TIP3   OH276203   5.714   5.865   5.545  0.4401  0.1323 -0.0498
18263TIP3    H176204   5.758   5.899   5.623  0.4304  0.0573 -0.0123
18263TIP3    H276205   5.659   5.794   5.577  0.4735  0.0687 -0.1316
18264TIP3   OH276206   4.839   4.551  17.111  0.7549 -0.6326 -0.8204
18264TIP3    H176207   4.866   4.583  17.197  2.4194 -0.6816 -1.3061
18264TIP3    H276208   4.775   4.482  17.129 -0.5364  0.8150  0.3120
18265TIP3   OH276209   4.210   0.724  13.183  0.0076  0.0808  0.3906
18265TIP3    H176210   4.117   0.730  13.164  0.0486  0.7604  0.4109
18265TIP3    H276211   4.249   0.690  13.102 -0.1083  0.8747 -0.0036
18266TIP3   OH276212   5.256   5.905  15.507  0.3779 -0.1090  0.3090
18266TIP3    H176213   5.185   5.856  15.466 -1.0079  2.2029 -0.0866
18266TIP3    H276214   5.246   5.888  15.601 -1.3237  0.9833  0.3474
18267TIP3   OH276215   2.073   2.520   4.973 -0.1295 -0.1887  0.0787
18267TIP3    H176216   2.144   2.551   5.029  1.5368 -1.8609 -1.0112
18267TIP3    H276217   2.002   2.499   5.033  0.3105  1.4645  1.2046
18268TIP3   OH276218   3.883   0.535  13.639 -0.4646  0.1864 -0.3118
18268TIP3    H176219   3.936   0.463  13.605  2.8995  1.3320  2.1691
18268TIP3    H276220   3.852   0.504  13.724 -1.0002  0.7556 -0.2943
18269TIP3   OH276221   2.290   4.093   2.712 -0.1462  0.4748  0.0876
18269TIP3    H176222   2.325   4.103   2.624  0.0057 -3.4973 -0.3858
18269TIP3    H276223   2.227   4.021   2.705  0.4167 -0.4205  3.3834
18270TIP3   OH276224   1.304   5.816   0.224  0.4732  0.4800  0.0035
18270TIP3    H176225   1.365   5.743   0.220 -0.7613 -0.5434 -0.5394
18270TIP3    H276226   1.339   5.880   0.162 -0.1159 -0.9735 -1.8641
18271TIP3   OH276227   4.677   4.317   3.185 -0.2954  0.2930  0.1816
18271TIP3    H176228   4.633   4.235   3.162 -0.3954  0.2073  0.6684
18271TIP3    H276229   4.728   4.340   3.107  1.4955 -1.3983  0.7982
18272TIP3   OH276230   0.292   4.871  15.364 -0.4993 -0.2291  0.0090
18272TIP3    H176231   0.264   4.867  15.456 -1.3722  0.3196 -0.2252
18272TIP3    H276232   0.214   4.848  15.314 -0.6764  1.7158 -0.6707
18273TIP3   OH276233   6.575   3.837   0.662 -0.4364 -0.3052  0.3569
18273TIP3    H176234   6.618   3.890   0.729  0.3437  0.3123 -0.6205
18273TIP3    H276235   6.571   3.749   0.700 -0.1973  0.0814  1.2968
18274TIP3   OH276236   0.615   6.371  15.508  0.0529 -0.0799  0.2272
18274TIP3    H176237   0.540   6.314  15.526 -0.9329  0.2598 -2.6013
18274TIP3    H276238   0.612   6.437  15.577 -2.7323  0.3633 -0.2791
18275TIP3   OH276239   5.258   4.263   0.678 -0.1228 -0.1094 -0.3404
18275TIP3    H176240   5.250   4.261   0.774 -1.8751 -0.7139 -0.4871
18275TIP3    H276241   5.338   4.314   0.662  0.4221 -0.3546  1.4461
18276TIP3   OH276242   2.617   1.094   5.869  0.3110 -0.4760  0.3284
18276TIP3    H176243   2.554   1.091   5.798  2.2343 -0.3750 -1.4198
18276TIP3    H276244   2.652   1.005   5.875  0.2422 -0.4593  1.0703
18277TIP3   OH276245   2.210   3.000  15.159 -0.4608  0.0837  0.3222
18277TIP3    H176246   2.160   2.974  15.081 -0.8983  0.1575  0.5781
18277TIP3    H276247   2.164   3.076  15.193  0.4369  0.7931 -0.0377
18278TIP3   OH276248   4.547   2.746  12.902  0.0745  0.4760  0.4695
18278TIP3    H176249   4.581   2.683  12.966  1.6460  1.8764  1.0779
18278TIP3    H276250   4.612   2.745  12.831 -0.5975  0.4240 -0.1502
18279TIP3   OH276251   1.782   6.135   1.299 -0.3502 -0.2990  0.0780
18279TIP3    H176252   1.809   6.143   1.207 -1.3047 -0.8833 -0.2614
18279TIP3    H276253   1.725   6.058   1.300 -0.9570  0.1621  1.0218
18280TIP3   OH276254   4.960   5.941  12.747  0.2610  0.0427  0.6226
18280TIP3    H176255   4.993   5.852  12.758 -0.7433 -0.6544 -1.6330
18280TIP3    H276256   4.894   5.951  12.816  2.0730 -0.0766  2.4128
18281TIP3   OH276257   1.518   0.075   3.969 -0.1894 -0.1180  0.0673
18281TIP3    H176258   1.429   0.073   4.004 -0.5074  0.6302 -0.6786
18281TIP3    H276259   1.529  -0.011   3.929  0.0195 -0.8190  1.5906
18282TIP3   OH276260   5.794   4.493  15.068 -0.5862  0.1242  0.7650
18282TIP3    H176261   5.792   4.524  14.978  1.9964  0.4217  0.7666
18282TIP3    H276262   5.711   4.447  15.080 -0.5135 -0.8005 -2.0808
18283TIP3   OH276263   1.801   5.580   2.769  0.7039  0.4716  0.6378
18283TIP3    H176264   1.717   5.557   2.809 -0.0602  0.5857 -0.8844
18283TIP3    H276265   1.784   5.660   2.719  1.0823 -0.8385 -1.6773
18284TIP3   OH276266   1.385   1.005   4.165  0.4098  0.0679  0.4151
18284TIP3    H176267   1.425   0.935   4.216  1.7122  1.5932  1.5773
18284TIP3    H276268   1.336   1.057   4.230 -1.7778 -0.6057 -0.6658
18285TIP3   OH276269   4.461   1.742   2.105 -0.2738  0.1025  0.1634
18285TIP3    H176270   4.377   1.698   2.106 -0.4181  0.3106 -1.7751
18285TIP3    H276271   4.444   1.826   2.062  0.5759  0.8698  1.2943
18286TIP3   OH276272   2.118   1.778   2.154 -0.2386 -0.0097  0.1737
18286TIP3    H176273   2.046   1.716   2.167 -0.4809  0.0151 -1.0045
18286TIP3    H276274   2.075   1.858   2.124  0.4360 -0.6685 -2.6849
18287TIP3   OH276275   2.969   4.233   5.783 -0.4379  0.2757 -0.2562
18287TIP3    H176276   3.041   4.267   5.729  1.2502 -1.3618  0.8861
18287TIP3    H276277   3.004   4.151   5.819 -2.8820 -0.5154  0.3635
18288TIP3   OH276278   6.497   1.283  13.847 -0.6039 -0.0388 -0.0202
18288TIP3    H176279   6.470   1.236  13.926  1.5679 -1.6304 -0.1627
18288TIP3    H276280   6.592   1.295  13.859 -0.3551  0.2120 -2.1136
18289TIP3   OH276281   0.286   2.301   5.619  0.2901  0.1387 -0.2373
18289TIP3    H176282   0.276   2.219   5.572 -0.9557  0.0091  0.2470
18289TIP3    H276283   0.211   2.354   5.594 -0.1922  0.2145  1.3008
18290TIP3   OH276284   2.026   4.376  12.168  0.1503  0.1222  0.6103
18290TIP3    H176285   2.063   4.340  12.087  0.2512  0.6299  0.4248
18290TIP3    H276286   1.952   4.319  12.187  0.3485 -0.2231  0.3594
18291TIP3   OH276287   2.234   4.109   4.308  0.1397  0.1948 -0.2566
18291TIP3    H176288   2.234   4.023   4.351 -0.4662 -0.0181 -0.6709
18291TIP3    H276289   2.323   4.118   4.274  1.0236  0.9797  2.2265
18292TIP3   OH276290   4.889   0.567   0.917 -0.1773 -0.0285  0.5100
18292TIP3    H176291   4.802   0.530   0.935 -0.6726  0.2807 -1.1360
18292TIP3    H276292   4.873   0.631   0.846  1.3401  0.2598  0.4229
18293TIP3   OH276293   3.501   1.261  14.581 -0.2893 -0.3291  0.1686
18293TIP3    H176294   3.566   1.195  14.607  0.6215  0.0491 -1.1151
18293TIP3    H276295   3.425   1.209  14.553  0.2097 -0.8204 -0.2815
18294TIP3   OH276296   0.430   6.174  13.960  0.0979 -0.2884 -0.3490
18294TIP3    H176297   0.472   6.121  13.893 -1.2624  0.1564 -1.5868
18294TIP3    H276298   0.419   6.115  14.034 -0.7359 -1.5374 -1.4535
18295TIP3   OH276299   6.218   3.360  15.208 -0.0012 -0.4014 -0.1701
18295TIP3    H176300   6.136   3.408  15.193  1.1135  1.7507  0.3681
18295TIP3    H276301   6.259   3.353  15.121 -0.0697 -0.1994 -0.2181
18296TIP3   OH276302   0.948   2.858   0.925  0.2275 -0.3672  0.5725
18296TIP3    H176303   0.904   2.788   0.876  0.8220 -0.9270  0.8352
18296TIP3    H276304   1.039   2.855   0.896  0.4042 -0.1491  1.0914
18297TIP3   OH276305   1.638   3.539   3.507  0.3898  0.2689  0.2915
18297TIP3    H176306   1.572   3.520   3.441 -1.3811 -0.0604  2.1170
18297TIP3    H276307   1.653   3.633   3.499 -0.4102  0.3725 -0.0151
18298TIP3   OH276308   0.154   2.166  16.724  0.3299  0.1814  0.6228
18298TIP3    H176309   0.162   2.086  16.775  0.2613  0.5059  1.1465
18298TIP3    H276310   0.199   2.233  16.776  0.5139  0.4540  0.1239
18299TIP3   OH276311   1.901   1.699   6.259  0.0325 -0.4938 -0.2802
18299TIP3    H176312   1.929   1.731   6.345 -0.4079  0.8826 -0.6344
18299TIP3    H276313   1.816   1.742   6.245 -0.5320 -1.7735 -0.8101
18300TIP3   OH276314   0.951   4.096  13.037 -0.2832  0.5637  0.0790
18300TIP3    H176315   0.978   4.129  13.123 -0.4216  2.1509 -0.4766
18300TIP3    H276316   1.005   4.145  12.975 -1.9655  1.2431 -0.8723
18301TIP3   OH276317   6.362   1.645   1.591 -0.2193 -0.3048 -0.0219
18301TIP3    H176318   6.404   1.730   1.578 -0.7723  0.0035  0.2114
18301TIP3    H276319   6.423   1.582   1.550 -0.0809  0.2555 -0.6872
18302TIP3   OH276320   5.533   2.810  15.616  0.4652  0.3097  0.1693
18302TIP3    H176321   5.487   2.871  15.673  0.2726  0.7297 -0.4211
18302TIP3    H276322   5.485   2.728  15.623 -0.8495  0.9468 -1.0155
18303TIP3   OH276323   3.032   6.510   0.424  0.6696 -0.1590 -0.8368
18303TIP3    H176324   2.976   6.468   0.489 -0.3916 -0.9565 -2.2477
18303TIP3    H276325   2.995   6.598   0.414 -0.2710 -0.6429 -1.6759
18304TIP3   OH276326   4.209   0.723   4.409 -0.4481 -0.1522  0.3793
18304TIP3    H176327   4.277   0.740   4.344  1.3154 -2.8204  1.4881
18304TIP3    H276328   4.184   0.632   4.396 -2.3965  0.2119  1.3227
18305TIP3   OH276329   3.017   3.025  12.011 -0.2510 -0.3059 -0.8765
18305TIP3    H176330   2.955   2.959  11.981 -1.6957  0.9778 -0.7794
18305TIP3    H276331   2.969   3.108  12.004  1.2571  0.6418 -0.2521
18306TIP3   OH276332   0.621   4.249  16.800 -0.9979 -0.3622  0.1908
18306TIP3    H176333   0.627   4.286  16.888  1.6887  0.1762 -0.1591
18306TIP3    H276334   0.545   4.291  16.760 -1.4025  0.4226  1.7731
18307TIP3   OH276335   2.087   2.753  12.871 -0.0960 -0.2065  0.3530
18307TIP3    H176336   2.163   2.752  12.929 -0.5703  1.7973  1.0225
18307TIP3    H276337   2.051   2.664  12.878  3.7456 -2.1174 -2.1505
18308TIP3   OH276338   3.951   2.684   4.329  0.0115  0.4229  0.2384
18308TIP3    H176339   3.961   2.777   4.312  0.9825  0.3521  0.3777
18308TIP3    H276340   3.873   2.659   4.280  1.6769  0.6045 -2.6595
18309TIP3   OH276341   1.868   0.193   4.396  0.4714  0.0567 -0.3489
18309TIP3    H176342   1.893   0.101   4.391  0.2921  0.1272 -3.2012
18309TIP3    H276343   1.781   0.196   4.357 -0.4889  1.0971  1.8429
18310TIP3   OH276344   4.084   1.919  15.720  0.3274 -0.6623 -0.1790
18310TIP3    H176345   4.091   1.835  15.673 -0.7310 -1.2960  0.7830
18310TIP3    H276346   4.044   1.978  15.656 -0.4252 -1.3245 -0.3309
18311TIP3   OH276347   3.549   2.753  16.180  0.6236  0.2680 -0.0753
18311TIP3    H176348   3.510   2.668  16.163  1.7152 -0.1701 -0.4594
18311TIP3    H276349   3.629   2.754  16.128  2.2569  0.2564  2.3175
18312TIP3   OH276350   0.078   6.144   0.548 -0.1126  0.5667  0.6691
18312TIP3    H176351   0.110   6.091   0.475 -0.6007  1.3279 -0.1050
18312TIP3    H276352   0.084   6.086   0.624 -0.4268 -0.5215 -0.1238
18313TIP3   OH276353   2.306   5.006   3.629  0.4438 -0.0202  1.2343
18313TIP3    H176354   2.285   4.912   3.629  0.7918 -0.0983  0.4361
18313TIP3    H276355   2.220   5.049   3.631  0.2030 -0.3453 -1.0623
18314TIP3   OH276356   0.841   4.729   0.590 -0.2223  0.2932 -0.0992
18314TIP3    H176357   0.820   4.701   0.679 -2.7535  1.7978 -0.1858
18314TIP3    H276358   0.889   4.812   0.601 -1.1194  0.8244 -0.1415
18315TIP3   OH276359   6.463   5.710  14.954  0.5695 -0.0669  0.4529
18315TIP3    H176360   6.539   5.768  14.946 -0.3039  1.1065  0.5477
18315TIP3    H276361   6.410   5.750  15.023 -0.8278 -0.0938 -0.5842
18316TIP3   OH276362   2.281   1.264  16.362  0.1023  0.4481 -0.3329
18316TIP3    H176363   2.213   1.324  16.331 -1.2891  0.2960  2.3277
18316TIP3    H276364   2.356   1.320  16.381 -0.8794  1.2513  1.2325
18317TIP3   OH276365   5.724   2.786  13.413  0.1235 -0.1422  0.9653
18317TIP3    H176366   5.779   2.807  13.337 -0.5841  2.1795  1.0580
18317TIP3    H276367   5.778   2.728  13.467  0.8940 -1.2720 -0.9498
18318TIP3   OH276368   1.244   1.509  13.337  0.0581  0.5278 -0.2076
18318TIP3    H176369   1.309   1.564  13.293  0.7610 -1.3779 -1.5853
18318TIP3    H276370   1.295   1.439  13.378 -1.1684 -1.3331 -1.8254
18319TIP3   OH276371   1.778   3.186   2.809 -0.1172 -0.2794  0.3983
18319TIP3    H176372   1.802   3.271   2.773  0.4739 -0.9000 -0.6724
18319TIP3    H276373   1.837   3.124   2.767 -0.5664 -1.2301  1.1508
18320TIP3   OH276374   1.295   4.171  16.507 -0.2728 -0.3858 -0.4238
18320TIP3    H176375   1.220   4.207  16.461  0.4541 -0.3735 -1.6273
18320TIP3    H276376   1.342   4.120  16.441  0.2551 -1.1852  0.5491
18321TIP3   OH276377   5.786   6.551   1.156  0.2875 -0.2729 -0.2974
18321TIP3    H176378   5.712   6.496   1.181 -0.1471 -0.2339 -1.4682
18321TIP3    H276379   5.847   6.544   1.229 -2.0504  1.9108  2.0076
18322TIP3   OH276380   6.630   6.550   0.292  0.1354 -0.8609 -0.1569
18322TIP3    H176381   6.662   6.623   0.345 -1.0503 -0.1789 -0.3637
18322TIP3    H276382   6.654   6.472   0.342  1.3437 -0.3289  0.1028
18323TIP3   OH276383   3.464   0.014  16.075 -0.0544  0.3437  0.3037
18323TIP3    H176384   3.495   0.102  16.097  0.5093  0.2412 -0.0644
18323TIP3    H276385   3.467  -0.034  16.158 -1.2495  0.9299  0.6972
18324TIP3   OH276386   4.222   4.155  15.308 -0.4259 -0.0442 -0.3964
18324TIP3    H176387   4.151   4.117  15.257  0.8550  0.4768 -2.6519
18324TIP3    H276388   4.292   4.169  15.244  0.6505  2.1570  1.2158
18325TIP3   OH276389   6.314   5.163  16.027  0.3496 -0.1594 -0.1852
18325TIP3    H176390   6.286   5.226  16.094 -0.5768  0.1014 -0.8131
18325TIP3    H276391   6.233   5.136  15.984  1.0065  0.1931 -1.6614
18326TIP3   OH276392   1.513   6.140  10.782  0.8536  0.0565 -0.8141
18326TIP3    H176393   1.438   6.192  10.812  0.6558 -0.5655 -0.2148
18326TIP3    H276394   1.586   6.203  10.779  1.0117  0.0216  1.5447
18327TIP3   OH276395   4.239   6.564   1.791  0.4359  0.1944 -0.7806
18327TIP3    H176396   4.271   6.532   1.707  2.2384 -0.6991  0.2260
18327TIP3    H276397   4.315   6.604   1.832  0.2107 -1.6021  1.4860
18328TIP3   OH276398   3.973   0.737  10.817 -0.3313  0.8445 -1.1401
18328TIP3    H176399   3.902   0.703  10.762  0.3215  0.5569 -1.8137
18328TIP3    H276400   3.933   0.808  10.866 -1.8314 -1.1537  0.6124
18329TIP3   OH276401   2.723   2.547  11.075 -0.4221  0.0071  0.1114
18329TIP3    H176402   2.666   2.559  10.999 -0.1573  2.2700  0.2464
18329TIP3    H276403   2.792   2.488  11.044 -1.1728 -0.3354 -0.9273
18330TIP3   OH276404   1.226   0.716   4.079  0.0844 -0.4705 -0.2813
18330TIP3    H176405   1.270   0.720   4.163 -1.3098 -0.3971  0.4637
18330TIP3    H276406   1.197   0.625   4.070 -0.9297 -0.1804 -0.0565
18331TIP3   OH276407   5.492   1.621   2.772 -0.5297  0.0086  0.1086
18331TIP3    H176408   5.494   1.552   2.705 -1.7205 -0.6299  0.7152
18331TIP3    H276409   5.512   1.576   2.854 -3.9388 -0.1708  0.9189
18332TIP3   OH276410   2.597   1.293   2.857  0.1029 -0.7884 -0.2256
18332TIP3    H176411   2.602   1.213   2.804 -1.1536 -0.6348 -0.5989
18332TIP3    H276412   2.563   1.264   2.941  0.1887 -0.7334 -0.1726
18333TIP3   OH276413   1.456   5.423  11.355 -0.2958 -1.0911  0.2895
18333TIP3    H176414   1.442   5.349  11.414  2.8234 -2.3697 -0.4323
18333TIP3    H276415   1.446   5.386  11.267  1.5939 -0.7945 -0.0835
18334TIP3   OH276416   1.668   4.235  15.015 -0.3158  0.2557  0.1177
18334TIP3    H176417   1.741   4.178  14.988 -0.2436  0.4267 -0.0486
18334TIP3    H276418   1.590   4.194  14.976 -0.5231 -0.8390  1.6527
18335TIP3   OH276419   4.435   5.861  11.513  0.4522 -0.5859  0.2310
18335TIP3    H176420   4.399   5.943  11.478  1.6167 -0.2697 -0.2606
18335TIP3    H276421   4.361   5.820  11.559 -0.5110  0.0736 -0.6910
18336TIP3   OH276422   6.305   0.059   2.460 -0.1983 -0.3119  0.3544
18336TIP3    H176423   6.304  -0.002   2.386 -3.1991  1.4610 -1.1716
18336TIP3    H276424   6.224   0.040   2.507 -0.0989  1.0665  1.1007
18337TIP3   OH276425   4.394   5.144   5.385 -0.2440  0.0991 -0.3190
18337TIP3    H176426   4.396   5.236   5.360 -0.6284 -0.1041 -1.1245
18337TIP3    H276427   4.447   5.139   5.464 -2.3675  1.4701  1.2220
18338TIP3   OH276428   4.193   6.020   1.558  0.2288 -0.0033  0.4745
18338TIP3    H176429   4.256   6.074   1.606  0.6458  0.9897 -1.1405
18338TIP3    H276430   4.110   6.037   1.601  0.5410  1.1399  0.6509
18339TIP3   OH276431   0.301   6.168  16.591 -0.2567  0.0561 -0.2920
18339TIP3    H176432   0.343   6.178  16.677  0.3352 -2.2781 -0.2775
18339TIP3    H276433   0.223   6.223  16.596  1.3646  2.3403  0.6562
18340TIP3   OH276434   5.952   0.681  15.515 -0.7565  0.2108  0.1889
18340TIP3    H176435   5.936   0.641  15.430  2.5840  2.0818 -1.4068
18340TIP3    H276436   5.900   0.762  15.513  1.0515  1.3593 -0.9901
18341TIP3   OH276437   3.599   4.217   0.915 -0.2627  0.0788 -0.7119
18341TIP3    H176438   3.559   4.293   0.958  1.0814  0.5728 -0.3117
18341TIP3    H276439   3.693   4.232   0.923  0.1233 -3.4370  2.6664
18342TIP3   OH276440   2.710   0.364   5.174  0.3296  0.6138 -0.0606
18342TIP3    H176441   2.671   0.451   5.183  1.0316  0.6904  2.5639
18342TIP3    H276442   2.662   0.310   5.236  1.0469 -0.4779 -0.4483
18343TIP3   OH276443   5.144   5.531   0.746 -0.3481  0.2232  0.0798
18343TIP3    H176444   5.123   5.577   0.827 -0.7339 -1.0816  0.7314
18343TIP3    H276445   5.224   5.482   0.766  0.3755  1.0129 -0.7823
18344TIP3   OH276446   2.819   1.447  15.580 -0.3319 -0.0630  0.5302
18344TIP3    H176447   2.853   1.365  15.546  1.1638 -0.5219  3.0033
18344TIP3    H276448   2.803   1.429  15.673  0.1660  2.4576  1.1390
18345TIP3   OH276449   0.384   1.048  12.449 -0.1060  0.6703  0.1305
18345TIP3    H176450   0.323   0.977  12.430 -0.6230  0.7221  1.5679
18345TIP3    H276451   0.444   1.049  12.374 -1.6192  0.3617 -1.0956
18346TIP3   OH276452   6.697   1.985   0.608  0.4570 -0.1049  0.0796
18346TIP3    H176453   6.692   1.929   0.531 -2.2102  1.5865 -1.0542
18346TIP3    H276454   6.628   1.953   0.667  0.2773  0.6691  0.3068
18347TIP3   OH276455   3.196   6.173  14.234 -0.5519 -0.2166 -0.1946
18347TIP3    H176456   3.143   6.204  14.160 -0.8095 -2.8604 -1.1566
18347TIP3    H276457   3.285   6.166  14.200 -0.2920  0.4640  0.3239
18348TIP3   OH276458   2.631   5.376   1.833  0.0536  0.4086 -0.4773
18348TIP3    H176459   2.626   5.428   1.913 -0.8131  0.2948 -0.4565
18348TIP3    H276460   2.709   5.322   1.845 -0.2205  0.2071  0.4026
18349TIP3   OH276461   0.412   3.883   0.998 -0.7640  0.2721 -0.6636
18349TIP3    H176462   0.406   3.823   1.073  0.0935 -1.9938 -2.3707
18349TIP3    H276463   0.498   3.924   1.007  0.1274 -1.3752 -1.3761
18350TIP3   OH276464   0.393   3.418   3.360 -0.8908  0.0837  0.6344
18350TIP3    H176465   0.482   3.434   3.330  0.0032 -0.9701  2.5989
18350TIP3    H276466   0.353   3.366   3.291  0.1326  0.2434 -0.0890
18351TIP3   OH276467   0.204   6.592  11.220 -0.2456 -0.3115  0.4497
18351TIP3    H176468   0.275   6.651  11.193 -0.7782  0.4323  0.6680
18351TIP3    H276469   0.141   6.648  11.265 -2.7551 -0.2949 -2.9103
18352TIP3   OH276470   2.603   4.212  13.193 -0.3597 -0.2242 -0.0109
18352TIP3    H176471   2.661   4.285  13.171  0.7182 -1.0023  0.2031
18352TIP3    H276472   2.649   4.134  13.160 -1.7248 -0.7640 -0.6864
18353TIP3   OH276473   2.039   1.220  14.282  0.3164 -0.0824 -0.3774
18353TIP3    H176474   2.088   1.277  14.342  0.0293  0.7505 -0.9147
18353TIP3    H276475   2.030   1.273  14.202  0.6772 -1.1695 -1.1461
18354TIP3   OH276476   4.571   6.729  15.862  0.7926 -0.4131  0.1650
18354TIP3    H176477   4.488   6.685  15.884  1.8847 -2.5058  0.2284
18354TIP3    H276478   4.612   6.671  15.798  2.4936  0.2875  0.5958
18355TIP3   OH276479   2.683   6.126  16.155  0.3238 -0.3203 -0.2202
18355TIP3    H176480   2.644   6.193  16.210  0.5187  0.2820 -0.8181
18355TIP3    H276481   2.776   6.149  16.150 -0.0633  0.8351 -2.5235
18356TIP3   OH276482   1.181   4.797  11.674  0.7520 -0.7750  0.4032
18356TIP3    H176483   1.117   4.865  11.652  0.8397 -0.3581  1.4026
18356TIP3    H276484   1.132   4.715  11.665  0.8511 -0.6328 -1.5240
18357TIP3   OH276485   0.166   2.930  13.874 -0.0351  0.0355 -0.5054
18357TIP3    H176486   0.176   2.841  13.840 -1.5914  0.6902 -2.8413
18357TIP3    H276487   0.071   2.945  13.874  0.1773  1.4745  0.4504
18358TIP3   OH276488   4.952   0.506   2.310 -0.3499 -0.2947  0.2445
18358TIP3    H176489   5.020   0.513   2.378  0.8920  1.1649 -1.0979
18358TIP3    H276490   4.875   0.546   2.350  0.9489  2.4593  0.0890
18359TIP3   OH276491   2.933   0.677   6.153 -0.2853  0.4753  0.7618
18359TIP3    H176492   2.942   0.596   6.202  1.6851  0.7087  0.8462
18359TIP3    H276493   2.956   0.746   6.215  2.0989  0.7801 -0.3707
18360TIP3   OH276494   3.697   0.243  13.055 -0.0890  1.0087  0.4457
18360TIP3    H176495   3.639   0.180  13.097 -2.2917  2.7135  0.0614
18360TIP3    H276496   3.717   0.306  13.124  0.6516  0.8668  0.3599
18361TIP3   OH276497   3.147   4.958   0.483  0.9026 -0.1841  0.2629
18361TIP3    H176498   3.057   4.988   0.494  0.7299 -1.0756  1.3907
18361TIP3    H276499   3.195   5.035   0.453  0.4508  1.2063  2.9398
18362TIP3   OH276500   5.397   1.503   0.113 -0.1090 -0.5209 -0.3467
18362TIP3    H176501   5.483   1.530   0.145 -0.3364  1.8672 -1.6622
18362TIP3    H276502   5.370   1.435   0.174  1.6905  0.3483  1.4896
18363TIP3   OH276503   2.776   5.882   4.452 -0.2976 -0.0450  0.0450
18363TIP3    H176504   2.848   5.933   4.489 -0.7020  2.1583 -2.0932
18363TIP3    H276505   2.796   5.877   4.358 -2.9105  0.6025 -0.5817
18364TIP3   OH276506   6.324   4.986  15.122  0.0815 -0.3984 -0.5281
18364TIP3    H176507   6.248   4.958  15.071  0.0307  2.0523 -1.8718
18364TIP3    H276508   6.350   5.069  15.083  1.1779  0.6539  2.3164
18365TIP3   OH276509   5.387   2.282  16.885  0.2413  0.4082  0.3471
18365TIP3    H176510   5.309   2.229  16.906  0.3749 -0.3201 -0.9078
18365TIP3    H276511   5.419   2.245  16.803  2.6289 -0.0887  1.4511
18366TIP3   OH276512   3.733   1.056  11.149 -0.1168  0.0186 -0.4276
18366TIP3    H176513   3.659   1.107  11.115 -1.2192 -1.1280  0.2640
18366TIP3    H276514   3.755   1.099  11.231  0.3752  0.7099 -0.9063
18367TIP3   OH276515   1.885   6.116   5.755 -0.8109  0.4019  0.1961
18367TIP3    H176516   1.916   6.195   5.799  0.7134 -0.3053  0.4178
18367TIP3    H276517   1.932   6.044   5.797 -0.2657 -0.3951 -1.6914
18368TIP3   OH276518   5.843   3.026   3.186 -0.1011 -0.1260 -0.6661
18368TIP3    H176519   5.839   2.941   3.228 -0.5275  0.9206  1.4548
18368TIP3    H276520   5.928   3.027   3.142 -0.6127 -2.1031 -1.7629
18369TIP3   OH276521   3.855   0.208   0.160 -0.3986 -0.0783  0.7662
18369TIP3    H176522   3.880   0.121   0.192 -0.2233  0.3362  1.7595
18369TIP3    H276523   3.851   0.198   0.065 -0.4435 -1.1945  0.8791
18370TIP3   OH276524   4.100   5.533  16.805 -0.3132 -0.3995  0.3075
18370TIP3    H176525   4.181   5.500  16.766 -0.5759  0.6666 -1.1632
18370TIP3    H276526   4.128   5.568  16.890  0.9196  0.6856 -0.5195
18371TIP3   OH276527   0.740   3.172  15.169 -0.0233 -0.0521 -0.6040
18371TIP3    H176528   0.768   3.232  15.238  0.1194  1.4742 -1.9624
18371TIP3    H276529   0.821   3.142  15.128 -0.1391 -0.3455 -0.6229
18372TIP3   OH276530   3.662   4.904   1.342 -0.2134  0.4440 -0.2115
18372TIP3    H176531   3.695   4.991   1.320  3.9044 -1.1046 -0.6150
18372TIP3    H276532   3.634   4.867   1.259  2.0512 -0.1455 -0.7451
18373TIP3   OH276533   4.223   4.769   4.164 -0.1436  0.0618  0.6776
18373TIP3    H176534   4.311   4.733   4.178  0.5314  1.0898 -0.7665
18373TIP3    H276535   4.203   4.748   4.073 -0.4432  1.7981  0.3197
18374TIP3   OH276536   4.572   0.527   5.250  0.1941 -0.3155 -0.5887
18374TIP3    H176537   4.538   0.510   5.162  0.3259  2.0364 -1.1110
18374TIP3    H276538   4.494   0.539   5.304  0.1329  1.1110 -0.9814
18375TIP3   OH276539   2.590   5.350   2.889  0.1524  0.0430  0.4944
18375TIP3    H176540   2.527   5.353   2.961  0.0013  1.2659  0.3141
18375TIP3    H276541   2.653   5.419   2.909  1.1221 -0.7949  0.3749
18376TIP3   OH276542   5.412   2.168   1.115  1.3154 -0.1235 -0.4736
18376TIP3    H176543   5.483   2.162   1.179 -0.9062  0.1880  2.1157
18376TIP3    H276544   5.416   2.258   1.082 -0.1634  1.0886  2.4860
18377TIP3   OH276545   4.953   3.021   1.627  0.0552 -0.1411  0.0175
18377TIP3    H176546   5.002   3.019   1.545 -1.2400 -1.5085 -0.7551
18377TIP3    H276547   4.876   2.967   1.609 -0.3060 -0.3311  2.0919
18378TIP3   OH276548   4.528   2.776   0.133 -0.0092 -0.1349  0.2398
18378TIP3    H176549   4.579   2.788   0.213 -2.4452 -0.4167  1.8689
18378TIP3    H276550   4.552   2.688   0.104  0.1424 -0.4151  1.1877
18379TIP3   OH276551   3.097   2.070  11.331 -0.8161 -0.4643 -0.3235
18379TIP3    H176552   3.051   2.148  11.299 -0.7220 -0.6696 -0.9799
18379TIP3    H276553   3.062   1.998  11.277 -0.7196 -0.8319  0.1033
18380TIP3   OH276554   1.941   0.056   1.668 -0.1619  0.1897  0.4905
18380TIP3    H176555   1.918   0.126   1.728 -2.5475 -1.7488  1.9158
18380TIP3    H276556   1.859   0.034   1.623  0.0901 -2.8552  1.3839
18381TIP3   OH276557   5.265   2.637   5.330 -0.1514 -0.3341  0.1819
18381TIP3    H176558   5.237   2.675   5.413  2.4823  2.7128 -0.2413
18381TIP3    H276559   5.215   2.684   5.264  0.5087 -0.1350 -0.1742
18382TIP3   OH276560   0.962   2.893   4.511 -0.6071  0.2804  0.0409
18382TIP3    H176561   1.028   2.832   4.545  0.6385  1.1312 -0.8360
18382TIP3    H276562   0.989   2.978   4.545 -1.7489  0.5159  0.3817
18383TIP3   OH276563   1.525   1.078  10.833 -0.7269  0.4909 -0.4444
18383TIP3    H176564   1.595   1.143  10.829  0.9222 -1.3185 -1.3438
18383TIP3    H276565   1.560   1.009  10.890 -1.6688 -0.5335 -1.0912
18384TIP3   OH276566   6.582   1.300   1.185 -0.1465  0.2594  0.1825
18384TIP3    H176567   6.658   1.348   1.151  0.7282 -0.0206  1.6496
18384TIP3    H276568   6.526   1.285   1.109  1.0584  0.8756 -0.8458
18385TIP3   OH276569   0.784   6.239   1.548  0.2600  0.3982 -0.5073
18385TIP3    H176570   0.745   6.279   1.471 -0.4613 -0.5280 -0.6343
18385TIP3    H276571   0.843   6.172   1.513 -0.5243 -0.4319 -0.2449
18386TIP3   OH276572   3.022   6.124  14.006 -0.2119 -0.0539 -0.2333
18386TIP3    H176573   3.014   6.050  14.067  2.7636 -0.6526 -0.4583
18386TIP3    H276574   3.099   6.102  13.953 -1.1254  1.7772 -2.3611
18387TIP3   OH276575   0.819   1.848   1.462  0.1433 -0.3699 -0.4491
18387TIP3    H176576   0.895   1.827   1.516 -0.3132 -2.2684 -0.5199
18387TIP3    H276577   0.810   1.774   1.403 -1.5748 -0.0281 -0.6438
18388TIP3   OH276578   1.096   0.979   3.736  0.6731 -0.4454 -0.3325
18388TIP3    H176579   1.025   0.929   3.697  0.0586  0.8018 -0.8293
18388TIP3    H276580   1.111   1.051   3.675  0.6497  0.7131  1.0057
18389TIP3   OH276581   1.032   1.374  16.560 -0.0384  0.1519 -0.6815
18389TIP3    H176582   1.058   1.365  16.652 -2.6778  1.1491  0.2019
18389TIP3    H276583   1.113   1.397  16.515  1.3571 -0.6023  1.3370
18390TIP3   OH276584   0.871   5.578  12.163 -0.2215 -0.6470 -0.3924
18390TIP3    H176585   0.891   5.489  12.194  1.3559  0.3748  1.6769
18390TIP3    H276586   0.948   5.629  12.189 -1.7959  1.6468 -0.1449
18391TIP3   OH276587   2.153   2.310  12.135 -0.7634 -0.1872 -0.3028
18391TIP3    H176588   2.247   2.294  12.129 -0.3843  0.4485  2.8962
18391TIP3    H276589   2.113   2.240  12.085  1.4403  0.4019 -2.9779
18392TIP3   OH276590   3.547   5.291  16.197  0.5091 -0.0622  0.0304
18392TIP3    H176591   3.582   5.379  16.185 -0.0626  0.2249  0.4475
18392TIP3    H276592   3.600   5.252  16.266 -0.7451  0.7921  1.4990
18393TIP3   OH276593   5.141   4.360   1.360 -0.1386  0.3619 -0.6974
18393TIP3    H176594   5.156   4.282   1.415 -0.3179  0.1909 -0.8916
18393TIP3    H276595   5.216   4.417   1.380  0.7620 -0.4713 -1.6179
18394TIP3   OH276596   5.097   5.108   2.962  0.6121  0.3245  0.2785
18394TIP3    H176597   5.003   5.090   2.954  0.6831 -0.4858  1.2287
18394TIP3    H276598   5.134   5.079   2.878 -0.1073  1.5641 -0.4944
18395TIP3   OH276599   1.808   2.254   3.364 -0.6962  0.1051 -0.4561
18395TIP3    H176600   1.887   2.269   3.415 -0.9135 -1.2233  0.2870
18395TIP3    H276601   1.836   2.268   3.273 -0.2822  2.3405 -0.0184
18396TIP3   OH276602   1.069   0.179  16.063  0.1374  0.2707 -0.3856
18396TIP3    H176603   1.103   0.096  16.096  0.5408  0.4603 -0.3228
18396TIP3    H276604   0.975   0.177  16.084  0.3686  0.3432  0.6776
18397TIP3   OH276605   2.066   2.405  13.907  0.4519 -0.7130  0.5977
18397TIP3    H176606   1.979   2.373  13.931 -0.0794  0.8981  0.8927
18397TIP3    H276607   2.065   2.498  13.930  1.7410 -0.3238 -0.7811
18398TIP3   OH276608   6.767   5.329  15.340 -0.1268 -0.2068  0.2480
18398TIP3    H176609   6.837   5.294  15.395 -0.1450 -0.6168  0.0059
18398TIP3    H276610   6.698   5.354  15.402  1.1343  2.3710  0.7187
18399TIP3   OH276611   3.982   4.743  14.269 -0.2771  0.0254 -0.1002
18399TIP3    H176612   3.931   4.729  14.190 -0.0055 -0.7738 -0.1383
18399TIP3    H276613   4.055   4.798  14.242  0.5670 -1.3751 -0.7013
18400TIP3   OH276614   4.520   1.432  14.128 -0.8248  0.0725  0.8125
18400TIP3    H176615   4.462   1.472  14.064  0.0141 -1.7931 -1.1955
18400TIP3    H276616   4.592   1.495  14.138 -1.0871  0.4965  0.0903
18401TIP3   OH276617   2.758   4.807  11.722 -0.4338 -0.1441 -0.1358
18401TIP3    H176618   2.775   4.816  11.816  0.8822  1.3197 -0.4721
18401TIP3    H276619   2.837   4.765  11.688 -0.9146 -0.6826 -0.5917
18402TIP3   OH276620   2.909   5.081   0.414 -0.0448 -0.8122  0.3973
18402TIP3    H176621   2.900   5.085   0.319 -1.1505 -1.7472  0.4491
18402TIP3    H276622   2.826   5.115   0.448  0.6719  0.3288  1.0507
18403TIP3   OH276623   6.415   5.004  16.446 -0.3185  0.2901 -0.0261
18403TIP3    H176624   6.329   5.013  16.404 -0.8211 -1.5951  0.5631
18403TIP3    H276625   6.403   5.043  16.533 -0.7734 -0.5210  0.2848
18404TIP3   OH276626   0.238   6.149  11.261 -0.1509 -0.4051 -0.1028
18404TIP3    H176627   0.324   6.107  11.267  0.0024  0.0546  1.1805
18404TIP3    H276628   0.257   6.242  11.259 -0.6767 -0.1847  2.7962
18405TIP3   OH276629   4.390   6.411   5.386 -0.2254 -0.4549 -0.0507
18405TIP3    H176630   4.309   6.447   5.422  0.2390  1.3763 -0.8008
18405TIP3    H276631   4.458   6.441   5.446 -0.1639 -2.6386  1.0111
18406TIP3   OH276632   2.548   5.976   6.213 -0.1678 -0.1942 -0.1125
18406TIP3    H176633   2.515   6.013   6.295  2.7260 -0.2034  1.1071
18406TIP3    H276634   2.521   5.884   6.215  0.6683 -0.4132  1.2524
18407TIP3   OH276635   0.692   3.926   0.981  0.2312  0.0129 -0.0811
18407TIP3    H176636   0.659   3.897   0.896  0.3767  2.7826 -1.1230
18407TIP3    H276637   0.695   3.846   1.034 -1.4483 -1.4641 -2.1369
18408TIP3   OH276638   5.172   6.786  13.323 -0.2893  0.4116 -0.6535
18408TIP3    H176639   5.100   6.835  13.283 -1.1189  1.3734  1.9276
18408TIP3    H276640   5.129   6.722  13.380  0.8460 -1.9185 -2.2933
18409TIP3   OH276641   0.448   2.522   1.789 -0.1790  0.2749  0.1050
18409TIP3    H176642   0.360   2.552   1.811  0.2543  1.3768  0.3584
18409TIP3    H276643   0.444   2.427   1.799 -1.5700  0.2405 -0.7194
18410TIP3   OH276644   5.020   2.579   4.797  0.0863  0.3431 -0.4076
18410TIP3    H176645   5.112   2.603   4.811  0.4675 -1.5073  0.5075
18410TIP3    H276646   5.024   2.514   4.726 -0.3504 -0.7708  0.5773
18411TIP3   OH276647   6.133   1.247  13.090  0.3561  0.1863 -0.7118
18411TIP3    H176648   6.102   1.226  13.178  1.5404  3.0712  0.4721
18411TIP3    H276649   6.054   1.254  13.037 -0.7571  2.9848  1.2158
18412TIP3   OH276650   5.351   5.626   1.346 -1.3017 -0.3307  0.4616
18412TIP3    H176651   5.388   5.542   1.320  1.2372 -0.1669  3.3111
18412TIP3    H276652   5.318   5.664   1.264  0.4073 -2.6734 -1.3747
18413TIP3   OH276653   4.943   2.210   4.978  0.3035  0.5987  0.3638
18413TIP3    H176654   4.922   2.166   4.896  1.4782  1.4786 -0.4337
18413TIP3    H276655   4.958   2.139   5.040  2.9613 -0.1857 -1.0896
18414TIP3   OH276656   1.081   6.606   3.168 -0.4797  0.0141  0.2144
18414TIP3    H176657   1.104   6.691   3.130  0.1031 -0.5291 -0.6721
18414TIP3    H276658   1.000   6.622   3.217 -0.3763  1.0736  0.0452
18415TIP3   OH276659   0.241   0.503  14.325  0.2876 -0.3196 -0.6213
18415TIP3    H176660   0.281   0.447  14.391  0.9687  1.0130  0.1123
18415TIP3    H276661   0.311   0.562  14.298 -0.5572  0.4923 -1.0387
18416TIP3   OH276662   3.610   1.209  10.312  0.3716  0.0947 -0.3878
18416TIP3    H176663   3.586   1.300  10.298 -0.1691  0.2762  1.4945
18416TIP3    H276664   3.545   1.177  10.375  1.2470 -1.2532 -0.1407
18417TIP3   OH276665   5.579   0.182  10.770 -0.2573  0.0217 -0.2035
18417TIP3    H176666   5.596   0.269  10.806 -0.4699 -0.3195  0.7317
18417TIP3    H276667   5.556   0.128  10.846  0.9450 -1.1259 -0.6319
18418TIP3   OH276668   4.084   1.028   2.850  0.0319  1.2697  0.0893
18418TIP3    H176669   4.036   1.003   2.929 -0.7826  1.4624 -0.3309
18418TIP3    H276670   4.137   1.103   2.876  4.3489 -2.2181  2.0179
18419TIP3   OH276671   2.493   0.642  16.944  0.1016  0.9745 -0.4089
18419TIP3    H176672   2.492   0.612  16.853 -0.6318  0.1685 -0.1350
18419TIP3    H276673   2.548   0.579  16.990  0.4681  1.3795 -0.2927
18420TIP3   OH276674   1.264   2.399  16.347  0.3018  0.1930 -0.4780
18420TIP3    H176675   1.177   2.436  16.331 -0.1054 -0.3197  0.4298
18420TIP3    H276676   1.253   2.305  16.330  0.6675  0.1288 -0.3634
18421TIP3   OH276677   1.588   5.216  13.573  0.1224  0.0824 -0.5702
18421TIP3    H176678   1.531   5.145  13.543 -0.4940  0.5157 -0.4231
18421TIP3    H276679   1.676   5.189  13.546  0.2102 -1.8111  1.4362
18422TIP3   OH276680   0.154   5.260  11.647  0.0106  0.4824 -0.3791
18422TIP3    H176681   0.181   5.352  11.660  0.2661  0.3705 -0.0956
18422TIP3    H276682   0.228   5.220  11.602 -0.9801  0.9228 -2.4217
18423TIP3   OH276683   4.478   5.809   4.347 -0.5426  0.3359 -0.1480
18423TIP3    H176684   4.563   5.807   4.303  0.2228 -0.4092  1.3322
18423TIP3    H276685   4.499   5.804   4.440 -2.2374 -0.2946  0.2149
18424TIP3   OH276686   6.328   2.214  15.376 -0.3026 -0.2831  0.2690
18424TIP3    H176687   6.301   2.305  15.389  0.2629 -0.2745  1.4284
18424TIP3    H276688   6.405   2.221  15.319  0.4868  0.0627  1.3542
18425TIP3   OH276689   3.094   0.720  12.939  0.5155 -0.0424  0.0300
18425TIP3    H176690   3.097   0.639  12.889 -0.4807 -1.0533  1.5862
18425TIP3    H276691   3.186   0.743  12.954  0.7892 -1.7711  1.0234
18426TIP3   OH276692   2.750   0.522  11.742 -0.1742 -0.9897 -0.0772
18426TIP3    H176693   2.723   0.540  11.652 -3.0326  1.3047  1.1417
18426TIP3    H276694   2.710   0.438  11.763  2.0977 -2.4954 -1.4985
18427TIP3   OH276695   2.547   5.255  13.152  0.4209 -0.5438  0.2128
18427TIP3    H176696   2.510   5.170  13.178  0.1018 -0.2124  0.8547
18427TIP3    H276697   2.471   5.307  13.127  0.7413 -0.9172 -1.5860
18428TIP3   OH276698   6.057   3.189  17.208 -0.0325 -0.0302 -0.8141
18428TIP3    H176699   5.963   3.199  17.198  0.1978  1.8530 -1.3557
18428TIP3    H276700   6.083   3.260  17.266  1.0377 -0.6004 -0.5785
18429TIP3   OH276701   2.037   1.565  15.496  0.7742 -0.1804 -0.2884
18429TIP3    H176702   2.058   1.513  15.573 -1.2997  1.5779  1.5161
18429TIP3    H276703   2.071   1.652  15.516 -0.9960  0.6290 -0.7698
18430TIP3   OH276704   4.740   5.145  17.234 -0.0533 -0.6041  0.2007
18430TIP3    H176705   4.799   5.202  17.185  0.7029 -0.3112  1.4505
18430TIP3    H276706   4.780   5.136  17.320 -0.5375 -2.4407  0.2536
18431TIP3   OH276707   3.683   2.372  10.880 -0.5888 -0.2531  0.1806
18431TIP3    H176708   3.642   2.409  10.802  0.9280 -2.2989 -1.6866
18431TIP3    H276709   3.753   2.433  10.902 -0.9174  0.2473 -0.1657
18432TIP3   OH276710   4.741   1.226  15.209  0.4307  0.2345  0.0012
18432TIP3    H176711   4.645   1.228  15.217  0.5356 -2.2370  2.3887
18432TIP3    H276712   4.772   1.267  15.289  1.3980  1.5176 -1.0167
18433TIP3   OH276713   5.455   5.920  17.218 -0.0777  0.4335  0.1807
18433TIP3    H176714   5.400   5.877  17.152 -1.0722 -0.9041  1.8562
18433TIP3    H276715   5.532   5.863  17.224  0.1596  0.7271 -0.0399
18434TIP3   OH276716   4.055   0.882  11.810 -0.2069  0.8077 -0.4396
18434TIP3    H176717   3.983   0.946  11.805 -0.1343  1.1181  1.8728
18434TIP3    H276718   4.134   0.936  11.813  0.0543  0.5030 -1.7454
18435TIP3   OH276719   2.652   5.813   2.286  0.0659  0.2126 -0.1868
18435TIP3    H176720   2.649   5.884   2.350  0.5114  0.6915 -0.6831
18435TIP3    H276721   2.561   5.787   2.273  0.0792 -0.8022  1.6315
18436TIP3   OH276722   4.238   4.970   0.257 -0.5862 -0.6732 -0.2781
18436TIP3    H176723   4.149   5.004   0.267 -0.2905  0.0084  0.0651
18436TIP3    H276724   4.273   4.967   0.346 -1.3121 -3.8620 -0.0536
18437TIP3   OH276725   1.401   5.870  10.806  0.1578  0.1563  0.4681
18437TIP3    H176726   1.368   5.881  10.895 -1.5264  0.7449 -0.2038
18437TIP3    H276727   1.452   5.948  10.789 -0.6970  0.7193  0.4341
18438TIP3   OH276728   4.345   3.788   1.825  0.5862  0.4643 -0.5234
18438TIP3    H176729   4.251   3.784   1.805  0.7946  0.9782 -1.6340
18438TIP3    H276730   4.350   3.774   1.920 -0.4736 -1.5331 -0.7306
18439TIP3   OH276731   0.443   5.161  13.206 -0.1238 -0.2248  0.5667
18439TIP3    H176732   0.466   5.220  13.135 -0.6442 -0.8157 -0.1086
18439TIP3    H276733   0.525   5.117  13.229  0.0649  0.0379  0.3956
18440TIP3   OH276734   0.218   0.786   3.796 -0.1242 -0.5078  0.3083
18440TIP3    H176735   0.243   0.787   3.888 -2.4976 -0.7251  0.9992
18440TIP3    H276736   0.126   0.761   3.796 -0.1338 -0.6544 -2.1437
18441TIP3   OH276737   6.773   0.438  12.479  0.0309  0.2921 -1.0318
18441TIP3    H176738   6.788   0.386  12.558 -1.1320 -0.0470 -1.0321
18441TIP3    H276739   6.842   0.410  12.419  0.8893  0.5106 -0.1587
18442TIP3   OH276740   2.909   3.771   4.130  0.2904 -0.4337  0.4554
18442TIP3    H176741   2.900   3.794   4.038  0.2898  2.4574  1.1229
18442TIP3    H276742   2.874   3.847   4.177  2.0067 -1.0467  2.8362
18443TIP3   OH276743   4.164   2.002  16.052 -0.1474 -0.0738  0.1923
18443TIP3    H176744   4.103   2.055  16.105 -0.7065 -0.8618  0.3482
18443TIP3    H276745   4.107   1.952  15.994  0.5035  1.4165 -1.7796
18444TIP3   OH276746   3.355   2.842  16.759  0.2444 -0.4756  0.8237
18444TIP3    H176747   3.266   2.874  16.771  0.5244  0.7928 -0.3530
18444TIP3    H276748   3.396   2.906  16.701  1.8690 -1.1480  1.2053
18445TIP3   OH276749   4.947   5.651   3.817  0.2331 -0.0722 -0.9368
18445TIP3    H176750   5.010   5.589   3.781  1.2052  0.6546 -0.5214
18445TIP3    H276751   5.000   5.711   3.869 -0.9547 -0.1897  0.4405
18446TIP3   OH276752   3.625   0.967   3.206 -0.1605 -0.7696  0.1274
18446TIP3    H176753   3.629   1.061   3.190 -1.3253 -0.8319 -0.5895
18446TIP3    H276754   3.629   0.959   3.301 -0.3426  0.0242  0.2081
18447TIP3   OH276755   4.625   3.424   2.194  0.0203 -0.7093 -0.2916
18447TIP3    H176756   4.697   3.474   2.232 -1.1817  0.8647 -0.0361
18447TIP3    H276757   4.639   3.428   2.100  0.0766 -0.0977 -0.2583
18448TIP3   OH276758   6.516   5.084   2.611 -0.4603 -0.7232 -0.3018
18448TIP3    H176759   6.536   5.002   2.656 -0.0881 -0.9333 -0.8357
18448TIP3    H276760   6.423   5.098   2.626 -0.1975 -0.4061  1.1543
18449TIP3   OH276761   2.620   6.369   0.837 -0.0620  0.2533  0.2247
18449TIP3    H176762   2.573   6.392   0.757 -0.0292  0.2364  0.2004
18449TIP3    H276763   2.555   6.324   0.890  0.0934 -0.3099 -0.0626
18450TIP3   OH276764   2.100   4.603   4.912  0.6542  0.4851  0.4779
18450TIP3    H176765   2.052   4.662   4.969  1.6177  1.3791  0.3823
18450TIP3    H276766   2.157   4.554   4.972  0.6098  0.3929  0.4440
18451TIP3   OH276767   2.335   5.059   6.053 -0.1143 -0.2492  0.0198
18451TIP3    H176768   2.384   5.141   6.063 -2.3325  1.1182  0.1267
18451TIP3    H276769   2.383   5.009   5.988  1.3622  1.0785  0.0723
18452TIP3   OH276770   5.668   1.092   1.254 -0.2511  0.2299 -0.0041
18452TIP3    H176771   5.697   1.083   1.345  0.4892  0.1814 -0.2418
18452TIP3    H276772   5.597   1.028   1.245 -0.0072 -0.1027  0.4080
18453TIP3   OH276773   1.149   0.578   0.319  0.2109 -0.0252  0.1984
18453TIP3    H176774   1.160   0.518   0.245  2.2173  1.2709 -0.5873
18453TIP3    H276775   1.238   0.593   0.352 -0.4989  0.6696  1.8780
18454TIP3   OH276776   0.525   4.485   3.982  0.0621 -0.6799 -0.1708
18454TIP3    H176777   0.590   4.548   4.013  0.4975 -0.7545 -0.9152
18454TIP3    H276778   0.540   4.479   3.888 -0.4483 -1.3548 -0.2155
18455TIP3   OH276779   1.713   4.868   2.171 -0.2650  0.6091  0.3284
18455TIP3    H176780   1.781   4.935   2.160  1.0355 -0.7463 -0.0487
18455TIP3    H276781   1.712   4.821   2.088 -0.6919 -0.2569  0.8109
18456TIP3   OH276782   5.466   3.235   3.279  0.1644  0.2684  0.0460
18456TIP3    H176783   5.382   3.197   3.305 -0.7992  1.3833 -1.3744
18456TIP3    H276784   5.487   3.190   3.197  1.7010 -1.0657  1.1404
18457TIP3   OH276785   3.503   6.365   1.287  0.5770  0.2663 -0.0837
18457TIP3    H176786   3.562   6.308   1.238  0.2491  0.5476 -0.8182
18457TIP3    H276787   3.417   6.349   1.249  0.3004  0.4226  0.4652
18458TIP3   OH276788   1.482   4.088  13.295  0.1769 -0.1746 -0.2291
18458TIP3    H176789   1.400   4.045  13.271  0.5366 -0.2190 -1.4269
18458TIP3    H276790   1.540   4.017  13.323 -0.6016 -0.0110  1.8794
18459TIP3   OH276791   3.013   0.901   5.207  0.1468  0.4622  1.0017
18459TIP3    H176792   2.987   0.983   5.164  0.0734 -0.3369 -0.4902
18459TIP3    H276793   3.019   0.924   5.300  2.6193  2.8348  0.3332
18460TIP3   OH276794   2.838   1.886   3.764 -0.0997  0.0571 -0.7849
18460TIP3    H176795   2.881   1.800   3.756  1.0310  0.7780 -2.5136
18460TIP3    H276796   2.755   1.876   3.717 -0.7671 -0.5940  0.4926
18461TIP3   OH276797   6.032   6.248   0.027  0.3143 -0.2628  0.0233
18461TIP3    H176798   5.967   6.288  -0.031 -0.5184  0.8207  1.6654
18461TIP3    H276799   6.101   6.218  -0.032 -1.6910 -1.5633 -1.7870
18462TIP3   OH276800   2.040   3.365   0.861  0.1252  0.3998 -0.0276
18462TIP3    H176801   2.123   3.369   0.908  1.2544 -0.0683 -1.9112
18462TIP3    H276802   2.039   3.278   0.821 -0.2954  1.1327 -1.6839
18463TIP3   OH276803   2.187   4.841  16.680  0.0185 -0.3903  0.3379
18463TIP3    H176804   2.191   4.905  16.750 -1.1434 -0.6581  0.6668
18463TIP3    H276805   2.094   4.839  16.655  0.8391  2.2596 -3.5692
18464TIP3   OH276806   2.499   0.657  15.547 -0.0379  0.9505 -0.0704
18464TIP3    H176807   2.449   0.736  15.525 -1.4882 -0.0383 -0.3586
18464TIP3    H276808   2.520   0.617  15.462 -2.2125 -0.7504  0.1644
18465TIP3   OH276809   2.544   2.673  12.969 -0.0106  0.1847  0.4594
18465TIP3    H176810   2.618   2.729  12.944 -0.4556  0.6666  0.2082
18465TIP3    H276811   2.577   2.584  12.958  0.2397  0.3951 -0.5522
18466TIP3   OH276812   6.452   2.639  14.106  0.1434 -0.0760 -0.4167
18466TIP3    H176813   6.407   2.621  14.024 -0.0892  0.1888 -0.3504
18466TIP3    H276814   6.545   2.638  14.084  0.1795 -2.0810 -0.2798
18467TIP3   OH276815   0.846   4.073   1.131  0.2113  0.0567 -0.0136
18467TIP3    H176816   0.785   4.017   1.083  0.1316 -0.2696  0.4618
18467TIP3    H276817   0.926   4.074   1.078 -0.0608  0.1401 -0.4216
18468TIP3   OH276818   5.305   2.785  17.195  0.0027  0.3481  1.0148
18468TIP3    H176819   5.396   2.811  17.203  0.4174 -0.4978 -0.7065
18468TIP3    H276820   5.272   2.834  17.119 -0.8420  0.3204  1.3557
18469TIP3   OH276821   4.723   4.607   4.983  0.2737 -0.0196 -0.5890
18469TIP3    H176822   4.700   4.546   4.913 -0.0104 -0.4155 -0.1531
18469TIP3    H276823   4.754   4.686   4.937 -0.8484  0.0901 -1.1636
18470TIP3   OH276824   3.666   4.502   0.823 -0.0906  0.0196 -0.8300
18470TIP3    H176825   3.664   4.424   0.766  1.8558 -2.2235  2.0255
18470TIP3    H276826   3.615   4.476   0.900  2.2935  0.7978  1.0533
18471TIP3   OH276827   4.823   2.088  13.497 -0.2838  0.4967  0.0332
18471TIP3    H176828   4.765   2.046  13.561 -0.5015 -2.1355 -1.8096
18471TIP3    H276829   4.789   2.177  13.489 -0.3666  0.8446  3.4161
18472TIP3   OH276830   1.717   2.065  17.030  0.4926 -0.3123  0.4694
18472TIP3    H176831   1.688   2.024  16.949 -1.1817  1.6851  0.0329
18472TIP3    H276832   1.799   2.108  17.008  0.5594 -0.6292  0.0961
18473TIP3   OH276833   2.664   5.785   5.226 -0.7877  0.1438 -0.6111
18473TIP3    H176834   2.682   5.853   5.161  1.8182 -0.0991 -0.2081
18473TIP3    H276835   2.652   5.832   5.308 -0.3805  0.2129 -0.5911
18474TIP3   OH276836   5.043   6.236  11.561 -0.0757 -0.1500  0.2425
18474TIP3    H176837   4.973   6.176  11.584  1.5082 -1.6515  1.3214
18474TIP3    H276838   5.007   6.323  11.577 -1.7821 -0.8922  0.4902
18475TIP3   OH276839   2.580   5.613  13.773  0.1356  0.3156  0.7613
18475TIP3    H176840   2.520   5.578  13.839 -0.6716  2.1153  1.0168
18475TIP3    H276841   2.665   5.576  13.797 -0.0955  1.1465  3.0159
18476TIP3   OH276842   6.638   0.088   0.350  0.3495  0.1095 -0.0467
18476TIP3    H176843   6.592   0.166   0.381 -0.9624 -0.4088 -0.6629
18476TIP3    H276844   6.660   0.040   0.430 -0.3698  0.2593  0.2412
18477TIP3   OH276845   2.059   1.793  14.438  0.5456 -0.5474 -0.1285
18477TIP3    H176846   2.018   1.791  14.524 -1.4106  0.2312 -0.9978
18477TIP3    H276847   1.985   1.793  14.377  1.8496  0.8216 -1.7516
18478TIP3   OH276848   4.220   6.198  11.337  0.0273  0.0028 -0.2072
18478TIP3    H176849   4.292   6.191  11.399  1.4872  1.3857 -1.7135
18478TIP3    H276850   4.253   6.158  11.257 -0.0078  2.7681 -1.6397
18479TIP3   OH276851   6.094   3.207   3.775 -0.7255 -0.1588  0.5398
18479TIP3    H176852   6.021   3.248   3.728 -0.3214  0.2676  0.2787
18479TIP3    H276853   6.167   3.214   3.714 -0.5530 -0.8968  0.6639
18480TIP3   OH276854   5.928   6.614  12.408  0.5184  0.2880 -0.3713
18480TIP3    H176855   5.982   6.558  12.463  1.1822  2.0358  0.7797
18480TIP3    H276856   5.959   6.597  12.319 -0.8193 -2.8262 -0.3379
18481TIP3   OH276857   5.768   5.273   1.572 -0.1895 -0.1539 -0.0306
18481TIP3    H176858   5.785   5.217   1.647  2.3868  0.3650 -0.1664
18481TIP3    H276859   5.764   5.362   1.608 -0.9365 -0.1055 -0.2357
18482TIP3   OH276860   2.392   2.387   3.553  0.1421  0.6182 -0.8135
18482TIP3    H176861   2.462   2.324   3.539  1.6642  1.8026  1.1885
18482TIP3    H276862   2.435   2.472   3.548 -1.4335  1.4306 -1.0463
18483TIP3   OH276863   2.363   5.282   4.833  0.5599 -0.1118 -0.4669
18483TIP3    H176864   2.289   5.274   4.773  1.2415 -0.3859 -1.2862
18483TIP3    H276865   2.380   5.376   4.839  0.0190 -0.0398 -0.1297
18484TIP3   OH276866   1.688   4.341   3.089  0.1410 -0.1486 -0.0564
18484TIP3    H176867   1.594   4.319   3.089  0.3062 -0.8821  0.0180
18484TIP3    H276868   1.712   4.341   3.182  0.0168  0.9419 -0.0159
18485TIP3   OH276869   4.436   3.086   4.569 -0.5840  0.5903 -0.0464
18485TIP3    H176870   4.501   3.145   4.608 -0.1230 -0.4375  0.7685
18485TIP3    H276871   4.386   3.142   4.509  1.0242  1.4177 -0.6727
18486TIP3   OH276872   1.670   1.920   1.291 -0.8158  0.4605  0.2488
18486TIP3    H176873   1.690   2.012   1.310  1.0584 -0.3053  2.1879
18486TIP3    H276874   1.754   1.875   1.296 -1.9156 -1.6238  0.8115
18487TIP3   OH276875   2.386   3.376  17.223 -0.0762 -0.5217  0.0217
18487TIP3    H176876   2.452   3.307  17.232  0.0481 -0.9511 -3.4619
18487TIP3    H276877   2.436   3.454  17.199 -0.6415 -0.3881 -0.7322
18488TIP3   OH276878   1.900   1.702   1.896  0.7637 -0.1275  0.1675
18488TIP3    H176879   1.974   1.762   1.898  1.9486 -1.5614  0.8136
18488TIP3    H276880   1.910   1.655   1.813  0.3247 -0.0200  0.0539
18489TIP3   OH276881   6.620   3.574  15.736 -0.0817 -0.3680  0.1117
18489TIP3    H176882   6.583   3.642  15.679 -0.1967 -1.4302 -1.1052
18489TIP3    H276883   6.575   3.494  15.710  0.6267 -1.0659  0.9903
18490TIP3   OH276884   3.156   4.345   1.562 -0.2099  0.2564 -0.0615
18490TIP3    H176885   3.218   4.379   1.498 -1.7054 -0.1003 -1.7182
18490TIP3    H276886   3.197   4.364   1.647  2.3192 -0.3068 -1.1172
18491TIP3   OH276887   4.806   6.039   3.524 -0.5869  0.3134  0.1499
18491TIP3    H176888   4.833   6.031   3.432 -0.9172  1.2779 -0.0375
18491TIP3    H276889   4.773   5.952   3.546  2.3192 -0.8085  0.2881
18492TIP3   OH276890   4.280   4.658   0.698  0.1099 -0.2816 -0.4279
18492TIP3    H176891   4.239   4.721   0.757 -0.1004  1.6383 -2.5665
18492TIP3    H276892   4.369   4.647   0.732  0.9367  3.0347 -1.3726
18493TIP3   OH276893   5.399   3.960  15.308 -0.3724  0.7382 -0.8243
18493TIP3    H176894   5.442   4.045  15.295  0.0459  0.6261 -0.1844
18493TIP3    H276895   5.431   3.929  15.393 -3.5229  1.7147  0.7831
18494TIP3   OH276896   4.883   4.187  10.869  0.5137  0.4240  0.5623
18494TIP3    H176897   4.950   4.234  10.820  0.1712  1.0736  0.7074
18494TIP3    H276898   4.805   4.188  10.813  1.2251 -2.2090 -0.5417
18495TIP3   OH276899   3.173   4.094  16.803 -0.2508 -0.9310 -0.3362
18495TIP3    H176900   3.119   4.057  16.733 -0.2682  0.7275 -1.2390
18495TIP3    H276901   3.110   4.134  16.863 -0.2492 -2.5370  0.7710
18496TIP3   OH276902   0.497   6.773  17.136 -0.8608  0.0633  0.0623
18496TIP3    H176903   0.440   6.767  17.060 -1.1546  0.5458  0.2370
18496TIP3    H276904   0.515   6.682  17.160 -0.2780 -0.0915 -0.9341
18497TIP3   OH276905   0.880   0.831   3.654 -0.0587  0.2041  0.7250
18497TIP3    H176906   0.811   0.777   3.615  0.7591 -0.2599 -0.0975
18497TIP3    H276907   0.836   0.912   3.679 -0.8705 -0.0285  0.0803
18498TIP3   OH276908   4.194   2.703   1.212 -0.4957 -0.2864 -0.2199
18498TIP3    H176909   4.102   2.679   1.226 -0.7682  1.3262  0.8063
18498TIP3    H276910   4.198   2.796   1.233  1.2013 -0.1403 -1.1192
18499TIP3   OH276911   0.951   4.140  14.644  0.1449  0.0460  0.0028
18499TIP3    H176912   0.996   4.065  14.683 -1.1732 -0.0035  1.4997
18499TIP3    H276913   0.867   4.104  14.615 -0.9771  1.1502  1.7779
18500TIP3   OH276914   4.443   1.245  12.649  0.1936 -0.5826  0.1616
18500TIP3    H176915   4.488   1.321  12.685 -0.5993  0.1580 -0.3963
18500TIP3    H276916   4.484   1.170  12.692  0.4360  0.1965  1.3047
18501TIP3   OH276917   0.186   3.286  12.060  0.3353  0.3352  0.6014
18501TIP3    H176918   0.133   3.228  12.115  0.1465  1.2745  1.4311
18501TIP3    H276919   0.269   3.241  12.050  0.3578  0.1315  1.6384
18502TIP3   OH276920   4.470   2.818  11.137  0.0577 -0.8170  0.4548
18502TIP3    H176921   4.428   2.790  11.218  0.2617  0.2176  0.9253
18502TIP3    H276922   4.429   2.764  11.069 -0.1978 -1.6048  1.2233
18503TIP3   OH276923   0.909   6.357  15.468  0.7630 -1.0972  0.0931
18503TIP3    H176924   0.814   6.350  15.463  0.8001 -3.1040  1.4048
18503TIP3    H276925   0.924   6.432  15.525  0.0209  0.4875 -1.7507
18504TIP3   OH276926   4.461   2.129  15.208  0.5245  0.1659 -0.2341
18504TIP3    H176927   4.388   2.187  15.228  1.7728  2.0810 -1.1002
18504TIP3    H276928   4.458   2.062  15.277 -3.1539 -0.9054 -1.3190
18505TIP3   OH276929   1.501   5.361  15.236  0.3957  0.0138  0.4583
18505TIP3    H176930   1.553   5.289  15.199 -0.4452 -0.6215  0.4835
18505TIP3    H276931   1.425   5.367  15.178 -0.2253 -0.0408  1.2690
18506TIP3   OH276932   5.810   6.342   0.939  0.3070 -0.4879  0.5793
18506TIP3    H176933   5.725   6.301   0.952 -0.3233 -0.5261 -3.0224
18506TIP3    H276934   5.820   6.402   1.013 -1.9889 -1.8773  2.0629
18507TIP3   OH276935   4.876   1.664  15.336 -0.4013 -0.1537  0.3310
18507TIP3    H176936   4.787   1.644  15.306 -0.2140  1.6033 -1.5220
18507TIP3    H276937   4.929   1.592  15.302 -0.6492  0.3790 -1.2246
18508TIP3   OH276938   4.534   3.856   5.784 -0.4514 -0.1382  0.0321
18508TIP3    H176939   4.558   3.817   5.868  0.9735 -1.3371 -0.9313
18508TIP3    H276940   4.608   3.913   5.762 -1.5625  1.4850  0.3849
18509TIP3   OH276941   1.412   0.858  11.747  0.2432  0.7014  0.0346
18509TIP3    H176942   1.337   0.831  11.800  0.6761 -1.2605 -0.3145
18509TIP3    H276943   1.384   0.940  11.706 -1.8903 -0.2598 -0.4888
18510TIP3   OH276944   5.864   4.281  13.299 -0.1792  0.4819  0.2130
18510TIP3    H176945   5.776   4.246  13.293  0.5671 -1.1755 -1.5035
18510TIP3    H276946   5.892   4.294  13.208  1.9114 -0.5268  0.6754
18511TIP3   OH276947   2.550   2.766   4.889 -0.0536  0.1344  0.9523
18511TIP3    H176948   2.464   2.802   4.910  0.4258  0.3419  2.6734
18511TIP3    H276949   2.592   2.753   4.975  1.5097 -0.2279  0.1549
18512TIP3   OH276950   6.104   1.826  14.724  0.3752  0.0622  0.7659
18512TIP3    H176951   6.166   1.797  14.657  2.3370 -0.4847  2.7630
18512TIP3    H276952   6.144   1.905  14.761 -1.0701  0.8019  0.7837
18513TIP3   OH276953   0.969   1.336   5.019  0.1516  0.7065 -0.1153
18513TIP3    H176954   0.945   1.309   5.108  1.5009 -0.4176 -0.0794
18513TIP3    H276955   0.936   1.426   5.012 -2.4319 -0.1665  0.5320
18514TIP3   OH276956   5.982   1.584   1.443 -0.7072 -0.1471  0.3850
18514TIP3    H176957   5.951   1.601   1.532  1.1349 -0.8715  1.1944
18514TIP3    H276958   5.995   1.489   1.439  2.3179  0.1951  0.4481
18515TIP3   OH276959   3.945   0.235  14.220  0.1277 -0.0288 -0.2289
18515TIP3    H176960   4.002   0.298  14.264 -0.1927 -0.8551  1.4312
18515TIP3    H276961   3.997   0.154  14.216 -0.2504 -0.2663 -0.4006
18516TIP3   OH276962   2.158   3.624   4.192  0.5639 -0.5177  0.3529
18516TIP3    H176963   2.228   3.559   4.186  0.2340 -1.0596  1.9395
18516TIP3    H276964   2.182   3.676   4.269 -0.8615 -0.8304  1.0226
18517TIP3   OH276965   3.389   0.796   4.283 -0.4540  0.5299 -0.1920
18517TIP3    H176966   3.352   0.764   4.365 -1.0580 -0.1757 -0.7398
18517TIP3    H276967   3.483   0.806   4.301 -0.5741  0.3153  0.5555
18518TIP3   OH276968   5.469   4.542  11.840 -0.0608  0.2468  0.4592
18518TIP3    H176969   5.467   4.531  11.935 -0.6835  0.8714  0.5235
18518TIP3    H276970   5.503   4.458  11.807 -0.5272 -0.2369  1.1878
18519TIP3   OH276971   3.997   5.991  10.834  0.8022 -0.0192  0.7043
18519TIP3    H176972   4.007   6.033  10.749  0.8660 -1.9837 -0.3083
18519TIP3    H276973   4.042   6.048  10.896  1.2496  1.1435 -0.6843
18520TIP3   OH276974   4.165   6.632   3.987 -0.8221 -0.0103  1.0082
18520TIP3    H176975   4.145   6.581   3.908  0.8898  1.7542 -0.6078
18520TIP3    H276976   4.138   6.575   4.059 -0.1099 -2.6912 -0.7566
18521TIP3   OH276977   2.747   6.378   1.788 -0.0834  0.1782 -0.2897
18521TIP3    H176978   2.696   6.435   1.846 -0.0773 -0.1628  0.0492
18521TIP3    H276979   2.759   6.430   1.709  2.1403  1.6917  0.9734
18522TIP3   OH276980   0.852   5.131   3.034  0.0341 -0.0619  0.0196
18522TIP3    H176981   0.899   5.178   2.965  1.7823 -1.4305  0.2541
18522TIP3    H276982   0.761   5.161   3.026  0.8950  2.5210 -0.5306
18523TIP3   OH276983   2.640   3.531   4.375 -0.3832 -0.0175  0.2773
18523TIP3    H176984   2.704   3.499   4.312 -1.4758 -1.4832 -0.1251
18523TIP3    H276985   2.692   3.557   4.451  1.0040  2.4096 -1.4547
18524TIP3   OH276986   3.008   3.058  13.265 -0.0818  0.2649  0.1872
18524TIP3    H176987   3.013   3.146  13.304  0.5975  1.4358 -2.4630
18524TIP3    H276988   3.077   3.009  13.309  0.0732  1.2847  1.1216
18525TIP3   OH276989   5.688   2.072  12.763 -0.1026  0.0165 -0.1786
18525TIP3    H176990   5.767   2.118  12.734 -0.3064  0.1477 -0.5159
18525TIP3    H276991   5.648   2.040  12.683 -0.8594  0.7037 -0.0766
18526TIP3   OH276992   3.796   1.934  16.882  0.3543  0.6511  0.3720
18526TIP3    H176993   3.869   1.956  16.940  0.6695  2.4262 -0.6600
18526TIP3    H276994   3.744   2.014  16.876 -1.3951 -0.4450  0.6697
18527TIP3   OH276995   4.723   2.423   2.512 -0.0673 -0.0419 -0.3153
18527TIP3    H176996   4.816   2.437   2.495 -0.1179  0.9149  0.1689
18527TIP3    H276997   4.708   2.331   2.489  0.9641 -0.1658 -0.5140
18528TIP3   OH276998   5.985   6.632  10.582  0.9209 -0.3528 -0.1777
18528TIP3    H176999   5.923   6.632  10.509  2.0031 -1.8038 -1.1505
18528TIP3    H277000   6.032   6.549  10.572  0.1651 -1.2333  2.9811
18529TIP3   OH277001   3.893   0.263   4.285  0.0429 -0.0854 -0.1160
18529TIP3    H177002   3.809   0.246   4.327 -0.7005  1.3282 -0.9918
18529TIP3    H277003   3.873   0.264   4.191  0.9056  0.9804 -0.2900
18530TIP3   OH277004   2.957   5.592   3.987  0.4521  0.3555 -0.0014
18530TIP3    H177005   2.969   5.643   3.907  0.6309 -1.9822 -1.5053
18530TIP3    H277006   3.042   5.550   4.002 -0.0359 -0.4440  0.5457
18531TIP3   OH277007   4.797   5.014   0.238 -0.3848 -0.1785 -0.2699
18531TIP3    H177008   4.775   4.948   0.305 -2.7334  2.3263  1.5370
18531TIP3    H277009   4.713   5.056   0.218  0.6476  0.5313 -3.3095
18532TIP3   OH277010   2.443   4.172   4.005  0.2509  0.5741  0.3081
18532TIP3    H177011   2.412   4.087   4.035  0.1544  0.6597  0.4509
18532TIP3    H277012   2.374   4.233   4.030 -0.3838  0.4799 -1.1175
18533TIP3   OH277013   6.071   4.315  17.192 -0.2960  1.0806  0.1089
18533TIP3    H177014   6.126   4.292  17.116 -2.4887  1.8038 -1.7513
18533TIP3    H277015   5.997   4.254  17.186  0.0116  0.4503  2.3075
18534TIP3   OH277016   3.598   2.106  14.648 -0.3468 -0.3625  0.5118
18534TIP3    H177017   3.609   2.122  14.741 -1.3780  0.6202  0.4667
18534TIP3    H277018   3.661   2.035  14.628  0.0461 -0.4033  1.8797
18535TIP3   OH277019   6.574   1.811   5.232  0.7819  0.0900  0.3071
18535TIP3    H177020   6.607   1.827   5.144 -0.6080 -0.0435 -0.2607
18535TIP3    H277021   6.615   1.729   5.259  1.4231  0.2723 -0.1016
18536TIP3   OH277022   4.489   5.439  12.838 -0.4863 -0.0295 -0.5317
18536TIP3    H177023   4.492   5.483  12.923  1.0137  1.2704 -1.2462
18536TIP3    H277024   4.529   5.353  12.854  0.2174  0.3926 -0.0250
18537TIP3   OH277025   1.382   0.849   2.179  0.4279  0.3093 -0.1036
18537TIP3    H177026   1.356   0.940   2.174 -0.4399  0.0980  0.5629
18537TIP3    H277027   1.301   0.799   2.174  0.8624 -0.4179 -0.1133
18538TIP3   OH277028   3.192   5.697   2.628 -0.2631 -0.1290 -0.4210
18538TIP3    H177029   3.187   5.793   2.630  0.4854 -0.0801 -0.6371
18538TIP3    H277030   3.133   5.672   2.557 -0.9105  0.1403  0.0253
18539TIP3   OH277031   4.303   2.679  10.680 -0.1232  0.5007  0.2202
18539TIP3    H177032   4.318   2.594  10.640 -1.7663  0.6759 -0.8361
18539TIP3    H277033   4.370   2.736  10.642 -0.3979  0.1863 -0.7404
18540TIP3   OH277034   5.385   3.856  12.263  0.8746 -0.0314 -0.3390
18540TIP3    H177035   5.389   3.951  12.268  2.3338 -0.1414  0.9183
18540TIP3    H277036   5.465   3.826  12.307  0.3278 -1.8397 -0.5334
18541TIP3   OH277037   5.956   6.234   5.302 -0.3245  0.4454  0.3916
18541TIP3    H177038   6.013   6.182   5.357  2.2079 -0.4302 -2.8740
18541TIP3    H277039   5.895   6.171   5.264  0.7680  0.2768 -1.1558
18542TIP3   OH277040   0.278   0.933   0.990  0.0196 -0.3990 -0.1702
18542TIP3    H177041   0.296   0.923   0.897 -1.0565  0.9900 -0.5435
18542TIP3    H277042   0.225   1.012   0.996  0.2660 -0.3512  1.6479
18543TIP3   OH277043   0.472   6.423   6.545  0.0311 -0.0680  0.8938
18543TIP3    H177044   0.528   6.501   6.548  0.8540 -0.6532  0.7267
18543TIP3    H277045   0.530   6.350   6.565 -0.5302 -0.7556  0.0555
18544TIP3   OH277046   3.120   6.748   4.370  0.4759 -0.4495 -0.1357
18544TIP3    H177047   3.156   6.836   4.381 -0.8771  0.3866 -2.1745
18544TIP3    H277048   3.027   6.762   4.355  0.3855 -2.1919 -1.2740
18545TIP3   OH277049   2.401   5.917  16.373  0.5486 -0.4577  0.3405
18545TIP3    H177050   2.466   5.987  16.364  0.4441 -0.1021  2.1170
18545TIP3    H277051   2.449   5.836  16.357  1.0268 -0.0921 -0.0939
18546TIP3   OH277052   1.743   1.026   2.578 -0.0720 -0.6810  0.6924
18546TIP3    H177053   1.720   1.097   2.518  0.7145 -1.0233 -0.0164
18546TIP3    H277054   1.663   1.012   2.630 -0.3683  0.4188  0.5406
18547TIP3   OH277055   1.552   2.135   5.299  0.1242 -0.1059 -0.2816
18547TIP3    H177056   1.608   2.192   5.247  1.1183 -1.7149 -1.0392
18547TIP3    H277057   1.584   2.046   5.279 -1.4725 -0.9297  0.7252
18548TIP3   OH277058   6.098   5.282   2.965 -0.3650 -0.1430 -0.0140
18548TIP3    H177059   6.099   5.356   3.026  0.7034 -0.1459 -0.0237
18548TIP3    H277060   6.008   5.282   2.930 -0.9483 -0.0516  1.4316
18549TIP3   OH277061   4.765   5.183  15.061 -0.1415 -0.8518  0.2607
18549TIP3    H177062   4.760   5.269  15.018  1.7438 -0.5338  0.6123
18549TIP3    H277063   4.789   5.123  14.991 -0.0409 -0.8495  0.2936
18550TIP3   OH277064   3.912   2.160   5.291  0.1087 -0.4274  0.5093
18550TIP3    H177065   3.875   2.194   5.373 -0.0305 -0.5210  0.4862
18550TIP3    H277066   3.938   2.237   5.242  0.3025 -0.3761  0.6965
18551TIP3   OH277067   2.691   2.618  14.756 -0.0899 -0.1834 -0.2019
18551TIP3    H177068   2.685   2.524  14.743 -1.0142 -0.5446  2.4534
18551TIP3    H277069   2.784   2.635  14.771 -0.0781 -0.8619  0.5030
18552TIP3   OH277070   1.159   1.599  17.205  0.2470  0.4018 -0.0009
18552TIP3    H177071   1.188   1.545  17.279  0.9238  1.5404  0.5798
18552TIP3    H277072   1.206   1.563  17.130  0.0444 -0.3578  0.2283
18553TIP3   OH277073   1.475   5.623  12.436  0.1300  0.3617 -0.2265
18553TIP3    H177074   1.479   5.534  12.470  0.4194  0.9151  1.2052
18553TIP3    H277075   1.554   5.632  12.383 -0.6178 -0.6889 -1.5825
18554TIP3   OH277076   0.353   6.305   2.827 -1.1228  0.4976  0.4450
18554TIP3    H177077   0.420   6.238   2.840 -0.4523  1.2152  0.7276
18554TIP3    H277078   0.298   6.299   2.905 -1.5471 -0.2594  0.0973
18555TIP3   OH277079   4.409   3.535   3.689 -0.1915 -0.4218 -0.8721
18555TIP3    H177080   4.487   3.496   3.727 -0.7164 -0.5806  0.0502
18555TIP3    H277081   4.342   3.468   3.698 -0.9553  0.4616  0.2096
18556TIP3   OH277082   5.669   2.571  15.795 -1.0176 -0.2996 -0.0871
18556TIP3    H177083   5.596   2.629  15.817 -0.8573 -0.6099  1.2939
18556TIP3    H277084   5.628   2.487  15.776 -0.9841 -0.6282  1.2594
18557TIP3   OH277085   2.708   1.018  11.298 -0.0878 -0.1542  0.3854
18557TIP3    H177086   2.689   1.052  11.386  0.7257 -1.9831  1.3046
18557TIP3    H277087   2.625   0.982  11.268  0.0070 -0.9364  1.0584
18558TIP3   OH277088   4.188   2.206   0.162  0.6476  0.0102  0.1717
18558TIP3    H177089   4.169   2.192   0.254 -1.5507 -0.3001 -0.3029
18558TIP3    H277090   4.148   2.290   0.141  0.6390 -0.1810 -0.6194
18559TIP3   OH277091   6.078   2.991  12.593 -0.5288 -0.2447  0.8333
18559TIP3    H177092   6.000   3.039  12.620  0.4384  1.1340  1.2626
18559TIP3    H277093   6.130   2.984  12.673  0.1240 -0.4838  0.3910
18560TIP3   OH277094   1.022   3.910  15.107 -0.3619 -0.0331 -0.3823
18560TIP3    H177095   0.935   3.884  15.138 -0.6276 -1.4771 -2.2467
18560TIP3    H277096   1.021   3.889  15.013  1.4806  1.3409 -0.7362
18561TIP3   OH277097   2.768   5.280  15.042  0.2442  0.2581  0.2595
18561TIP3    H177098   2.735   5.208  14.989 -0.4341  2.8648 -3.0078
18561TIP3    H277099   2.690   5.330  15.067  0.6350 -0.4624  3.0972
18562TIP3   OH277100   1.569   4.083  11.895  0.2119 -0.0027 -0.0021
18562TIP3    H177101   1.639   4.019  11.912  0.0474 -0.3726 -0.6828
18562TIP3    H277102   1.612   4.168  11.903  0.9869 -0.2510 -1.4455
18563TIP3   OH277103   6.315   5.904   4.115  0.4339 -0.3505  0.3402
18563TIP3    H177104   6.334   5.887   4.207 -1.3269 -0.0393  0.7867
18563TIP3    H277105   6.309   5.999   4.109 -2.6824 -0.4730  0.6272
18564TIP3   OH277106   3.807   1.834  15.109 -0.2022  0.5901  0.4158
18564TIP3    H177107   3.741   1.841  15.041  1.5139  2.3998 -1.1208
18564TIP3    H277108   3.842   1.745  15.101 -0.4696  0.5800 -0.6193
18565TIP3   OH277109   0.757   0.037   0.077 -0.4248 -0.9252 -0.3210
18565TIP3    H177110   0.753  -0.038   0.018  0.0268 -0.2550 -1.2089
18565TIP3    H277111   0.788   0.109   0.023  0.2077 -0.3475  0.7858
18566TIP3   OH277112   3.868   2.510  15.731  0.6111  0.0935  0.5872
18566TIP3    H177113   3.927   2.556  15.673 -0.7138 -1.1996 -1.8700
18566TIP3    H277114   3.791   2.566  15.738  0.2141 -0.3690 -0.0169
18567TIP3   OH277115   5.200   0.178   2.366 -0.4359 -0.7212  0.5290
18567TIP3    H177116   5.180   0.256   2.314  2.0348  0.7766  1.7443
18567TIP3    H277117   5.256   0.125   2.309 -2.2346 -1.7299 -0.3526
18568TIP3   OH277118   1.670   5.359  16.928 -0.1958  0.1732  0.3275
18568TIP3    H177119   1.763   5.382  16.923 -0.0329 -0.7071 -0.9769
18568TIP3    H277120   1.645   5.379  17.018  1.4574 -0.3416  0.9121
18569TIP3   OH277121   5.420   5.187  13.697 -0.5427  0.0872 -0.4773
18569TIP3    H177122   5.484   5.138  13.749 -1.0561  0.6657  0.7015
18569TIP3    H277123   5.340   5.134  13.702 -1.0189  0.8788  0.5662
18570TIP3   OH277124   0.838   3.436  16.713  0.2925  0.0680  0.1090
18570TIP3    H177125   0.790   3.492  16.773  2.0472  1.5142  0.2200
18570TIP3    H277126   0.909   3.399  16.765  2.0033  1.5590 -1.0808
18571TIP3   OH277127   1.839   3.170   2.196  0.1373 -0.1458  0.2514
18571TIP3    H177128   1.745   3.150   2.197 -0.3869  1.9423  3.7451
18571TIP3    H277129   1.845   3.253   2.150  0.2679 -0.3465 -0.0889
18572TIP3   OH277130   3.258   2.796   2.947 -0.6919  0.7007  0.4760
18572TIP3    H177131   3.182   2.778   2.890 -0.4769  1.9200 -0.2218
18572TIP3    H277132   3.223   2.853   3.015 -0.7820 -0.1450  1.1332
18573TIP3   OH277133   3.166   2.996  11.581 -0.1581  0.1766  0.0881
18573TIP3    H177134   3.075   2.974  11.603 -0.4971 -1.3315 -2.6018
18573TIP3    H277135   3.160   3.082  11.540 -0.2254  0.4999  0.7600
18574TIP3   OH277136   3.495   1.086   4.715  0.0143 -1.0895  0.1598
18574TIP3    H177137   3.591   1.080   4.720  0.3071  1.3874 -1.4477
18574TIP3    H277138   3.469   1.012   4.660  1.4656  0.6669 -3.0392
18575TIP3   OH277139   4.190   3.151   5.057 -0.4776  0.0746  0.4469
18575TIP3    H177140   4.160   3.062   5.039 -0.3834  0.1530 -0.1257
18575TIP3    H277141   4.276   3.157   5.014 -1.2136  0.9588 -0.9658
18576TIP3   OH277142   2.892   3.037  13.820 -0.2140 -0.3557  0.6233
18576TIP3    H177143   2.816   3.095  13.817  0.9239  1.0781 -2.8935
18576TIP3    H277144   2.965   3.094  13.842  0.3069 -1.2141  1.1471
18577TIP3   OH277145   6.098   2.755  13.334  0.1213  0.0921  0.1412
18577TIP3    H177146   6.148   2.684  13.293  2.1182  2.1770 -1.1441
18577TIP3    H277147   6.050   2.713  13.404  1.1207 -2.5804 -0.7161
18578TIP3   OH277148   0.969   6.110   6.185 -0.4474  0.1297 -0.3957
18578TIP3    H177149   1.064   6.106   6.179 -0.1879  4.6787 -0.8516
18578TIP3    H277150   0.951   6.141   6.273 -1.3777  1.2816 -0.9698
18579TIP3   OH277151   3.616   1.078   0.735 -0.2530  0.5038  0.0061
18579TIP3    H177152   3.670   1.016   0.686  2.4463  1.9629  0.9813
18579TIP3    H277153   3.633   1.163   0.694 -0.9623  1.1460  1.0147
18580TIP3   OH277154   1.417   3.906   5.351  0.1510 -0.4096 -0.6549
18580TIP3    H177155   1.439   3.813   5.354 -1.1329 -0.7035 -0.1071
18580TIP3    H277156   1.489   3.949   5.397  2.1208 -0.8416 -3.2177
18581TIP3   OH277157   1.938   6.676  13.291 -0.1362 -0.4392  0.7559
18581TIP3    H177158   1.946   6.766  13.258  0.7127 -0.4915  0.8160
18581TIP3    H277159   2.018   6.662  13.343  0.3533 -1.6631 -0.2997
18582TIP3   OH277160   5.864   3.563   1.612 -0.3855  0.3726 -1.3997
18582TIP3    H177161   5.954   3.551   1.642 -0.1562  0.5419 -1.9993
18582TIP3    H277162   5.869   3.549   1.517 -1.0557  0.0274 -1.3815
18583TIP3   OH277163   0.469   0.908  13.360 -0.4080  0.0711 -0.1582
18583TIP3    H177164   0.509   0.981  13.407  0.1067 -0.2241 -0.1232
18583TIP3    H277165   0.381   0.938  13.338  0.2780  1.2442 -1.3775
18584TIP3   OH277166   5.220   0.843   3.560 -0.6004 -0.7615  0.6658
18584TIP3    H177167   5.266   0.921   3.592 -1.5076 -0.4998  1.3495
18584TIP3    H277168   5.248   0.773   3.619 -0.3345 -0.8086  0.4863
18585TIP3   OH277169   1.506   5.097   2.103 -0.2885  0.3173 -0.6263
18585TIP3    H177170   1.574   5.162   2.121 -0.0286 -0.6265  2.0892
18585TIP3    H277171   1.517   5.076   2.010  2.1361  1.3016 -0.6097
18586TIP3   OH277172   0.073   5.329  14.682  0.3333  0.8617  0.9553
18586TIP3    H177173   0.110   5.326  14.771 -0.4215  0.2924  1.2534
18586TIP3    H277174   0.053   5.421  14.667  0.6257  0.9823  1.3096
18587TIP3   OH277175   6.400   5.276   0.764  0.1858  0.1199 -0.0666
18587TIP3    H177176   6.456   5.266   0.841  0.2256  1.6790  0.1308
18587TIP3    H277177   6.419   5.364   0.732 -2.3827  0.7911  0.1754
18588TIP3   OH277178   2.871   5.438  15.306  0.0402  0.3438  0.8059
18588TIP3    H177179   2.890   5.496  15.233 -1.0074  0.2700  0.4618
18588TIP3    H277180   2.778   5.416  15.295  0.9503 -3.1928 -0.3580
18589TIP3   OH277181   4.809   6.576   4.718 -0.0945 -0.1086  0.1591
18589TIP3    H177182   4.830   6.565   4.810 -1.6131  1.0247  0.6636
18589TIP3    H277183   4.726   6.624   4.717 -1.3228 -2.1688 -1.7717
18590TIP3   OH277184   5.466   3.555   2.097  0.2885  1.2802  0.4625
18590TIP3    H177185   5.494   3.490   2.161 -1.1661  0.7518  0.5893
18590TIP3    H277186   5.490   3.517   2.012 -1.4921  0.0859  0.4773
18591TIP3   OH277187   5.096   4.484  10.527  0.2492 -0.2344  0.4493
18591TIP3    H177188   5.006   4.479  10.494  0.1700 -0.0453  0.6314
18591TIP3    H277189   5.121   4.576  10.512 -0.1533  0.1066  1.8611
18592TIP3   OH277190   0.011   1.603   0.685  0.0475  0.5217 -0.4206
18592TIP3    H177191  -0.017   1.618   0.776 -0.5701 -0.6306 -0.4119
18592TIP3    H277192   0.106   1.617   0.687  0.3251 -1.2970  0.8096
18593TIP3   OH277193   5.609   3.325  16.273  0.6660 -0.1304 -0.6899
18593TIP3    H177194   5.658   3.243  16.265  0.3242 -0.7013  2.5183
18593TIP3    H277195   5.526   3.299  16.314  0.6366  1.8466  0.5505
18594TIP3   OH277196   3.233   6.628   0.763  0.6082 -0.0237 -0.3459
18594TIP3    H177197   3.150   6.580   0.768  0.7583 -0.4900 -1.8883
18594TIP3    H277198   3.293   6.578   0.817  0.3815 -0.7534 -0.7670
18595TIP3   OH277199   0.556   2.676  11.130  0.4784 -0.1702 -0.1367
18595TIP3    H177200   0.627   2.625  11.089  1.6540  1.7496 -0.5457
18595TIP3    H277201   0.543   2.750  11.071 -2.5547 -0.9632 -0.5565
18596TIP3   OH277202   3.788   6.476   0.714 -0.1130 -0.3115 -0.5319
18596TIP3    H177203   3.828   6.456   0.799  1.0400  2.8395 -0.2570
18596TIP3    H277204   3.839   6.550   0.681 -1.4656 -0.5829 -3.3318
18597TIP3   OH277205   1.882   4.426   4.883  0.0115  0.2830  0.2062
18597TIP3    H177206   1.962   4.465   4.849  0.7038 -1.5670 -0.3654
18597TIP3    H277207   1.859   4.358   4.819 -0.3606 -1.1912  1.8445
18598TIP3   OH277208   2.180   6.708   3.257 -0.0891 -0.8342  0.2014
18598TIP3    H177209   2.133   6.678   3.179  1.5227 -0.2768 -1.0062
18598TIP3    H277210   2.111   6.736   3.317 -1.3589 -1.3875 -0.9628
18599TIP3   OH277211   6.761   1.379  14.134  0.1005 -0.0829  0.0807
18599TIP3    H177212   6.795   1.468  14.145  1.3449 -0.4284 -0.8840
18599TIP3    H277213   6.671   1.383  14.168  0.6030  1.1987  1.3067
18600TIP3   OH277214   4.565   1.425  11.884  0.1014 -0.2603  0.3539
18600TIP3    H177215   4.516   1.344  11.900  0.8107 -0.6226  0.6937
18600TIP3    H277216   4.640   1.398  11.832 -0.6943  0.4882 -1.2279
18601TIP3   OH277217   0.952   1.521   2.499  0.1029  0.0385 -0.0296
18601TIP3    H177218   1.006   1.462   2.551 -2.1794 -2.0511  0.0632
18601TIP3    H277219   0.959   1.605   2.544  1.8822 -0.5842  0.9367
18602TIP3   OH277220   6.103   1.326   3.672  0.6119 -0.0151 -0.2558
18602TIP3    H177221   6.125   1.261   3.739  1.8427 -0.0562 -0.6977
18602TIP3    H277222   6.107   1.278   3.590 -3.4231 -0.6226 -0.2203
18603TIP3   OH277223   0.602   3.524   5.304 -0.2340  0.2785 -0.1262
18603TIP3    H177224   0.618   3.618   5.318  2.0195 -0.1089  0.0675
18603TIP3    H277225   0.668   3.498   5.240 -0.1932 -1.4013  0.5914
18604TIP3   OH277226   5.743   1.006   2.006  0.4203  0.1382  0.3273
18604TIP3    H177227   5.790   1.027   2.087  0.0027  0.4697  0.4897
18604TIP3    H277228   5.771   1.073   1.944  2.2491 -1.2584 -0.4155
18605TIP3   OH277229   5.495   3.699  16.357 -0.3537  0.2290 -1.1197
18605TIP3    H177230   5.410   3.679  16.317 -0.1299  0.0991 -1.5393
18605TIP3    H277231   5.553   3.631  16.324 -0.1544  0.1423 -0.5909
18606TIP3   OH277232   6.092   2.749  17.148 -0.0082 -0.2216 -0.1505
18606TIP3    H177233   6.072   2.702  17.067 -1.6422  1.2645 -0.6349
18606TIP3    H277234   6.015   2.737  17.203  0.8380 -0.6975  0.9498
18607TIP3   OH277235   6.457   4.927   0.715  0.0793 -0.1281  0.4553
18607TIP3    H177236   6.521   4.891   0.776 -1.3996 -0.8842  1.5959
18607TIP3    H277237   6.449   5.019   0.739  0.0034 -0.2674  0.9600
18608TIP3   OH277238   5.816   6.316  17.027  0.3769  0.1546  0.2022
18608TIP3    H177239   5.807   6.231  17.069  1.4534 -0.4371 -0.7275
18608TIP3    H277240   5.872   6.300  16.952 -2.9477  0.8366 -2.5375
18609TIP3   OH277241   1.342   6.077  14.104 -0.2418  0.3630  0.3638
18609TIP3    H177242   1.296   6.042  14.180 -2.6867  2.2022 -0.2076
18609TIP3    H277243   1.273   6.116  14.050  1.6766  0.7833 -1.8682
18610TIP3   OH277244   5.947   4.630   3.443  0.6279 -0.4000  0.0046
18610TIP3    H177245   5.926   4.721   3.424  1.6431 -0.1003  0.2471
18610TIP3    H277246   5.883   4.579   3.395 -0.1258  0.4524  0.0994
18611TIP3   OH277247   4.884   3.065   5.195  0.4048 -0.3096  0.0946
18611TIP3    H177248   4.806   3.030   5.152  2.1844 -2.4109 -1.4861
18611TIP3    H277249   4.932   3.109   5.125 -0.0937  2.3695  1.3755
18612TIP3   OH277250   1.304   2.377   5.282 -0.7308 -0.2485  0.1302
18612TIP3    H177251   1.253   2.382   5.201 -2.4090  0.5345  1.2089
18612TIP3    H277252   1.337   2.465   5.295 -0.5901 -0.3372  0.3755
18613TIP3   OH277253   2.397   1.604  15.703 -0.3871  0.3206 -0.0967
18613TIP3    H177254   2.453   1.667  15.658 -0.7874  0.8900  0.1963
18613TIP3    H277255   2.419   1.519  15.664  0.4883  0.5776 -0.1679
18614TIP3   OH277256   5.621   5.555   4.532 -0.0910  0.0849 -0.7582
18614TIP3    H177257   5.535   5.516   4.545  0.5591 -0.9345  0.5524
18614TIP3    H277258   5.604   5.648   4.514 -1.3585  0.1810  0.9475
18615TIP3   OH277259   4.062   3.349  14.540 -0.3933  0.7166 -0.4109
18615TIP3    H177260   4.140   3.400  14.515  0.0545  1.0617  1.5721
18615TIP3    H277261   4.022   3.400  14.611 -2.3746  0.4735 -1.3202
18616TIP3   OH277262   0.376   0.883   6.690 -0.5216 -0.4677  0.1860
18616TIP3    H177263   0.282   0.896   6.699 -0.1453  0.3684  3.8077
18616TIP3    H277264   0.410   0.971   6.673 -0.2291 -0.5077  0.5658
18617TIP3   OH277265   3.844   0.175  11.144  0.1281  0.3578 -0.9216
18617TIP3    H177266   3.835   0.245  11.208  1.9401  1.2850 -1.6422
18617TIP3    H277267   3.755   0.144  11.128 -0.5157  1.4115  0.5989
18618TIP3   OH277268   2.129   0.253  11.387  0.3543  0.1423 -0.0897
18618TIP3    H177269   2.092   0.278  11.303 -2.3379 -2.0853  0.3916
18618TIP3    H277270   2.057   0.263  11.449  1.7187 -0.3127  1.5935
18619TIP3   OH277271   5.648   4.654  13.746  0.5623  0.0324  0.1899
18619TIP3    H177272   5.591   4.641  13.822  0.3014 -0.1894 -0.0428
18619TIP3    H277273   5.590   4.683  13.677  0.9404  1.0954  0.3135
18620TIP3   OH277274   5.284   2.699   6.728  0.2006  0.1444 -0.8314
18620TIP3    H177275   5.346   2.690   6.800  0.9324  0.7905 -1.3837
18620TIP3    H277276   5.288   2.791   6.703 -2.4719  0.6428  0.4650
18621TIP3   OH277277   2.390   1.023   0.834  0.2062  0.0853  0.3705
18621TIP3    H177278   2.392   1.085   0.761  0.7248 -0.5520 -0.1616
18621TIP3    H277279   2.385   1.078   0.912 -0.8508  0.7628 -0.1636
18622TIP3   OH277280   4.623   1.038   5.427  0.0740 -0.3342 -0.1263
18622TIP3    H177281   4.705   0.988   5.426  0.4747  0.2962  1.1072
18622TIP3    H277282   4.588   1.024   5.514 -0.2036  0.9152 -0.0336
18623TIP3   OH277283   3.682   3.331  15.495 -0.0585  0.0992 -0.1563
18623TIP3    H177284   3.638   3.388  15.558  0.1412  0.7005 -0.5560
18623TIP3    H277285   3.612   3.277  15.459 -0.1427 -0.3973  0.7366
18624TIP3   OH277286   2.889   6.778  12.080  0.5863  0.5279 -0.0928
18624TIP3    H177287   2.863   6.808  12.167 -0.6173  1.7784 -0.8509
18624TIP3    H277288   2.847   6.692  12.070  0.3301  0.6015  0.3720
18625TIP3   OH277289   4.670   3.249  11.671  0.6659 -0.7603  0.2669
18625TIP3    H177290   4.669   3.212  11.759  2.7229  1.2005  1.1532
18625TIP3    H277291   4.740   3.313  11.672 -0.2367  0.3679 -2.3868
18626TIP3   OH277292   3.296   0.792   5.354  0.0708  0.0169 -0.0632
18626TIP3    H177293   3.331   0.767   5.268 -1.4070  0.2948 -0.7738
18626TIP3    H277294   3.221   0.849   5.333 -0.6443 -0.3690  1.3953
18627TIP3   OH277295   2.984   2.998  10.706 -0.3066 -0.1511 -0.1991
18627TIP3    H177296   3.064   2.955  10.737  0.2913  1.0736 -0.0119
18627TIP3    H277297   2.919   2.979  10.774 -0.3386 -1.6482 -0.6421
18628TIP3   OH277298   0.547   1.356   0.014  0.2127  0.2415 -0.3103
18628TIP3    H177299   0.558   1.317   0.101  0.1439 -0.9739 -0.8327
18628TIP3    H277300   0.466   1.316  -0.019  0.8609 -0.1837 -1.3940
18629TIP3   OH277301   0.568   2.760  13.246  0.0681  0.5134  0.0325
18629TIP3    H177302   0.613   2.760  13.161  0.0979 -1.2840  0.0160
18629TIP3    H277303   0.639   2.748  13.310 -0.2296 -1.2607  0.0741
18630TIP3   OH277304   4.561   4.344  13.217  0.5932 -0.7151  0.5588
18630TIP3    H177305   4.605   4.285  13.156  0.7728 -0.2820  0.2679
18630TIP3    H277306   4.630   4.401  13.248  0.0903  0.5259 -0.5528
18631TIP3   OH277307   1.176   3.952  12.524  0.7532 -0.4409 -0.1020
18631TIP3    H177308   1.199   3.932  12.433 -0.5987 -0.2965 -0.4832
18631TIP3    H277309   1.207   3.877  12.574 -0.2218 -1.4128 -0.9376
18632TIP3   OH277310   5.396   0.271  16.662  0.6406 -0.4111 -0.1766
18632TIP3    H177311   5.331   0.291  16.595  0.3454 -2.7569 -0.5993
18632TIP3    H277312   5.386   0.342  16.726 -0.1656  0.9618 -1.7951
18633TIP3   OH277313   6.689   2.052   5.346  0.0099 -0.4274 -0.4471
18633TIP3    H177314   6.658   2.128   5.395  0.4341  0.5903 -1.7033
18633TIP3    H277315   6.621   1.986   5.358 -0.3099  0.1095  0.7618
18634TIP3   OH277316   6.433   5.381  15.423 -0.4607 -0.3384  0.1396
18634TIP3    H177317   6.452   5.437  15.347 -0.5876 -1.2541 -0.5684
18634TIP3    H277318   6.436   5.441  15.497 -2.6610  1.0221 -0.8172
18635TIP3   OH277319   3.557   1.748  15.341 -0.7376  0.2570  0.4477
18635TIP3    H177320   3.623   1.716  15.402  1.3683  0.8284 -1.4464
18635TIP3    H277321   3.607   1.785  15.269 -3.1550  2.0152 -0.3918
18636TIP3   OH277322   4.543   0.963   2.202 -0.1060  0.0113 -0.4506
18636TIP3    H177323   4.591   1.046   2.205 -0.4469  0.1875  0.0119
18636TIP3    H277324   4.501   0.956   2.287  2.2996 -2.0494  0.6304
18637TIP3   OH277325   0.377   0.057  16.871 -0.0081  0.6872 -0.4948
18637TIP3    H177326   0.448   0.121  16.877 -0.0076  0.4905  2.2940
18637TIP3    H277327   0.299   0.109  16.850  0.7094  1.0543 -2.3346
18638TIP3   OH277328   6.099   2.376   1.701 -0.3119 -0.0426 -0.7298
18638TIP3    H177329   6.101   2.472   1.705  4.4732 -0.0813 -0.3118
18638TIP3    H277330   6.088   2.357   1.608 -2.5514  0.8252 -0.6927
18639TIP3   OH277331   6.514   2.600   2.207 -0.0550 -0.3461  0.1847
18639TIP3    H177332   6.460   2.611   2.285 -0.2204  1.9233 -0.2047
18639TIP3    H277333   6.527   2.505   2.199 -1.4841 -0.7106  1.9593
18640TIP3   OH277334   0.936   5.069  16.382 -0.0623  0.1408 -0.3923
18640TIP3    H177335   0.845   5.074  16.356  0.2831 -0.4062 -1.7298
18640TIP3    H277336   0.962   5.160  16.395 -0.3474  0.4123 -1.6262
18641TIP3   OH277337   2.442   3.953  15.841  0.2515 -0.6817 -0.3313
18641TIP3    H177338   2.419   3.932  15.932 -1.6387  0.8456 -0.4197
18641TIP3    H277339   2.492   3.878  15.811 -1.0801 -2.2450  1.2510
18642TIP3   OH277340   5.068   3.693  12.842 -0.3351 -0.2888 -0.2412
18642TIP3    H177341   5.115   3.726  12.765 -2.0310 -1.0172 -1.6258
18642TIP3    H277342   5.131   3.701  12.913  0.7194  1.9738 -1.3569
18643TIP3   OH277343   5.494   2.957  16.210  0.7635 -0.2141 -0.0934
18643TIP3    H177344   5.531   3.005  16.284 -0.3692  0.5689 -0.0131
18643TIP3    H277345   5.425   2.902  16.249  1.0148 -0.7550 -0.3930
18644TIP3   OH277346   1.493   5.815  13.369  0.5287  0.3486  0.3974
18644TIP3    H177347   1.479   5.906  13.393  0.1236  0.0515  1.3133
18644TIP3    H277348   1.531   5.818  13.281 -0.9862  1.3346 -0.2248
18645TIP3   OH277349   1.865   3.878  13.567 -0.8741  0.2606 -0.1005
18645TIP3    H177350   1.865   3.915  13.479 -3.1812  0.0938 -0.1896
18645TIP3    H277351   1.837   3.950  13.624 -1.5710 -0.2400  0.2030
18646TIP3   OH277352   2.969   3.588  15.323  0.4146 -0.3454  0.3196
18646TIP3    H177353   2.970   3.507  15.272 -1.4274  0.4144 -0.9765
18646TIP3    H277354   3.042   3.640  15.288 -0.1564 -0.2903 -0.8277
18647TIP3   OH277355   1.655   0.237   2.442  0.2975 -0.6838  0.0026
18647TIP3    H177356   1.617   0.320   2.470  3.0380  0.2990  0.9997
18647TIP3    H277357   1.596   0.171   2.477 -0.5860  0.7756  1.3296
18648TIP3   OH277358   5.731   3.744  11.276  0.1862  0.3543 -0.2945
18648TIP3    H177359   5.824   3.764  11.288 -0.2880  2.6529 -0.1408
18648TIP3    H277360   5.702   3.713  11.362  0.3455  1.6686  0.2455
18649TIP3   OH277361   5.549   1.881   1.009 -0.2973 -0.4504 -0.8722
18649TIP3    H177362   5.493   1.944   0.965  0.0801  0.8566  0.4695
18649TIP3    H277363   5.510   1.796   0.988 -0.7997  0.2049 -2.7094
18650TIP3   OH277364   2.361   0.854  15.862  0.0074  0.3508 -0.2105
18650TIP3    H177365   2.326   0.916  15.926  3.0410  0.7275  1.1794
18650TIP3    H277366   2.446   0.891  15.837  0.8047 -2.0240 -1.1905
18651TIP3   OH277367   0.346   0.767   2.955  0.3580 -0.0103  0.5418
18651TIP3    H177368   0.350   0.736   2.864 -1.5164  0.9614  0.0835
18651TIP3    H277369   0.336   0.688   3.007 -0.2882 -0.4744 -0.2645
18652TIP3   OH277370   5.624   6.226   5.406  0.4744  0.1256  0.5871
18652TIP3    H177371   5.607   6.274   5.325  0.3693 -0.1770  0.4274
18652TIP3    H277372   5.658   6.142   5.377 -2.2408 -1.0765  0.7658
18653TIP3   OH277373   1.275   6.412  13.370  0.1193  0.0458  0.0409
18653TIP3    H177374   1.269   6.440  13.278 -0.4723 -0.6386 -0.1323
18653TIP3    H277375   1.303   6.491  13.417  0.5549  0.3616 -0.7486
18654TIP3   OH277376   0.729   1.038  15.144  0.0957 -0.1998  0.0211
18654TIP3    H177377   0.737   1.116  15.199 -0.1370 -0.6630  0.7269
18654TIP3    H277378   0.660   0.986  15.187 -0.1942 -0.4941 -0.7975
18655TIP3   OH277379   0.678   5.464  10.399  0.1202 -0.1773 -0.0083
18655TIP3    H177380   0.722   5.379  10.407  1.6111  0.8242  2.8918
18655TIP3    H277381   0.586   5.442  10.382  0.9270 -2.3252 -1.8717
18656TIP3   OH277382   5.804   3.166   1.559  0.4473  0.3496 -0.2342
18656TIP3    H177383   5.737   3.101   1.534  1.0085 -0.5740  0.6231
18656TIP3    H277384   5.801   3.231   1.489 -1.6142  0.5333 -0.0109
18657TIP3   OH277385   5.631   5.645   1.495 -0.1140 -0.2679  0.1010
18657TIP3    H177386   5.545   5.605   1.484 -1.4081  1.7511  2.1183
18657TIP3    H277387   5.652   5.681   1.409 -2.5111  1.4421  0.1680
18658TIP3   OH277388   5.124   4.915   3.808  0.5122  0.4561 -0.6008
18658TIP3    H177389   5.165   4.829   3.819 -0.6509 -0.1975 -1.3154
18658TIP3    H277390   5.088   4.935   3.894  0.1327 -0.1109 -0.6252
18659TIP3   OH277391   3.673   3.254   1.882 -0.3043 -0.9379  0.2521
18659TIP3    H177392   3.734   3.187   1.852 -0.8308 -1.4252  0.2594
18659TIP3    H277393   3.609   3.206   1.935 -1.6788 -0.7159 -1.1676
18660TIP3   OH277394   2.518   3.107   2.058  0.4108  0.1644 -0.7694
18660TIP3    H177395   2.460   3.034   2.077  0.8995  0.2114  0.9076
18660TIP3    H277396   2.464   3.185   2.073  0.1763  0.1854 -1.6474
18661TIP3   OH277397   0.093   3.592  16.791  0.6072  0.1251  0.0707
18661TIP3    H177398   0.163   3.591  16.726  0.9557  3.6287  0.2844
18661TIP3    H277399   0.020   3.635  16.746 -1.2351 -2.8743  0.0712
18662TIP3   OH277400   4.203   3.730  14.542  0.0373  0.0918  0.1180
18662TIP3    H177401   4.172   3.677  14.616 -0.6561  0.8787  0.3926
18662TIP3    H277402   4.271   3.786  14.580 -0.3633  0.5412  0.1774
18663TIP3   OH277403   5.320   1.502   4.558 -0.7149  0.0374 -0.1642
18663TIP3    H177404   5.404   1.490   4.514 -0.6936 -1.0710  0.1715
18663TIP3    H277405   5.287   1.585   4.524 -0.0222 -0.0966 -1.1874
18664TIP3   OH277406   3.496   0.283  12.870  0.5109 -0.3183 -0.7549
18664TIP3    H177407   3.532   0.363  12.831 -0.3732  0.3993 -0.1164
18664TIP3    H277408   3.573   0.235  12.900  0.9086  1.7974  1.7464
18665TIP3   OH277409   1.816   5.357   5.218  0.0921 -0.3121 -0.7564
18665TIP3    H177410   1.792   5.282   5.164 -0.9485 -0.3419 -0.2790
18665TIP3    H277411   1.906   5.377   5.193  1.5620 -3.7137  1.3612
18666TIP3   OH277412   3.794   3.847  16.363 -0.2108  0.7619 -0.7418
18666TIP3    H177413   3.778   3.938  16.337  1.3355  1.3624  0.3160
18666TIP3    H277414   3.875   3.851  16.413 -0.7271 -1.0372  0.2713
18667TIP3   OH277415   5.329   2.915   4.207 -0.2002 -0.3686 -0.0464
18667TIP3    H177416   5.284   2.833   4.226 -0.2508 -0.2840  0.1996
18667TIP3    H277417   5.267   2.964   4.154 -0.4779 -0.1721  0.4548
18668TIP3   OH277418   1.888   6.541  12.343 -0.1277 -0.2356  0.8876
18668TIP3    H177419   1.822   6.585  12.289  2.3531  1.6937 -0.7135
18668TIP3    H277420   1.916   6.607  12.406  0.3498 -1.0034  1.4860
18669TIP3   OH277421   5.457   1.361   3.080  0.2705  1.0918  0.6409
18669TIP3    H177422   5.395   1.402   3.140 -2.1803 -1.6310  0.0673
18669TIP3    H277423   5.409   1.351   2.998  2.1077  0.6771 -0.4269
18670TIP3   OH277424   5.937   1.732   4.172  0.0200  0.4998 -0.0497
18670TIP3    H177425   5.914   1.657   4.226  1.6937  0.3462  0.4906
18670TIP3    H277426   5.920   1.808   4.228  0.5945  0.3974  0.2709
18671TIP3   OH277427   4.560   6.655  12.354  0.2305  0.5806 -0.2075
18671TIP3    H177428   4.493   6.610  12.302 -0.4931  1.1543  0.2151
18671TIP3    H277429   4.568   6.603  12.434  0.8874  0.0524 -0.6118
18672TIP3   OH277430   6.664   0.435   3.646 -0.5769 -0.1356 -0.2455
18672TIP3    H177431   6.692   0.344   3.634  0.0298 -0.2464  1.8437
18672TIP3    H277432   6.568   0.429   3.653 -0.6087 -0.5081 -0.9849
18673TIP3   OH277433   4.785   2.738  12.251  0.6330 -0.5120  0.4809
18673TIP3    H177434   4.706   2.762  12.299  0.5318  0.6513 -0.2552
18673TIP3    H277435   4.846   2.707  12.319  0.0468 -0.0918  1.2017
18674TIP3   OH277436   4.944   4.116  17.199 -0.0366 -0.0943  0.2695
18674TIP3    H177437   5.005   4.047  17.173 -1.5410 -0.8571 -1.2862
18674TIP3    H277438   4.981   4.196  17.163 -0.5385 -0.7211 -1.6790
18675TIP3   OH277439   3.480   4.074   5.835 -0.2115 -0.0909  0.6875
18675TIP3    H177440   3.423   4.147   5.860 -1.2090 -0.6444  0.0524
18675TIP3    H277441   3.568   4.112   5.834 -0.3449  0.3683  3.2715
18676TIP3   OH277442   0.149   3.925  16.726  0.3455 -0.1199 -0.4073
18676TIP3    H177443   0.057   3.901  16.715  0.6464 -2.4161  1.6778
18676TIP3    H277444   0.149   3.993  16.793  0.2487 -1.0135  0.5101
18677TIP3   OH277445   3.662   0.910   5.978 -0.8289  0.1764  0.6155
18677TIP3    H177446   3.668   0.880   6.069 -1.0230 -0.7293  0.3282
18677TIP3    H277447   3.576   0.951   5.972 -0.3428  1.3177  1.1553
18678TIP3   OH277448   4.666   2.731  12.644 -0.2351  0.4137 -0.1954
18678TIP3    H177449   4.749   2.686  12.627  0.4331  1.3294  0.5781
18678TIP3    H277450   4.665   2.804  12.581  0.7836  1.9478  1.5111
18679TIP3   OH277451   5.889   2.906   4.639 -0.0878 -0.0403  0.4028
18679TIP3    H177452   5.942   2.832   4.607  0.4626  0.2683  0.5833
18679TIP3    H277453   5.901   2.974   4.574  0.4672  0.3432  0.8971
18680TIP3   OH277454   0.661   5.871  14.723  0.3014  0.1219 -0.7049
18680TIP3    H177455   0.591   5.815  14.755  1.1331 -1.2717 -1.2955
18680TIP3    H277456   0.707   5.900  14.801  1.5116 -2.1887 -0.5257
18681TIP3   OH277457   3.112   4.472  12.928  0.2616  0.5071 -0.5864
18681TIP3    H177458   3.198   4.478  12.970 -0.3176  0.7016  0.6092
18681TIP3    H277459   3.111   4.545  12.866  1.1584  0.1821 -0.9899
18682TIP3   OH277460   5.876   2.800   0.086  0.2481 -0.0909  0.1298
18682TIP3    H177461   5.917   2.875   0.129  0.8897 -0.3243 -0.0823
18682TIP3    H277462   5.803   2.777   0.143  0.5926  0.1257  0.6613
18683TIP3   OH277463   2.044   6.466   3.730 -0.0968  0.7661  0.1593
18683TIP3    H177464   2.008   6.541   3.777 -2.9526 -0.6153  0.2571
18683TIP3    H277465   2.039   6.491   3.638 -0.3640  0.9825  0.2313
18684TIP3   OH277466   6.758   3.002   5.769  0.6146  1.0788  0.7140
18684TIP3    H177467   6.839   2.955   5.792  0.5116  0.6061  0.1217
18684TIP3    H277468   6.769   3.026   5.678 -0.5401 -0.3115  0.1930
18685TIP3   OH277469   3.329   0.839  12.936  0.4292  0.0454  0.3020
18685TIP3    H177470   3.410   0.795  12.909  0.0845 -0.2961 -0.1946
18685TIP3    H277471   3.357   0.905  12.999  1.3394  1.3058 -1.4003
18686TIP3   OH277472   2.058   2.722  15.104 -0.2288  0.6156  0.2852
18686TIP3    H177473   2.111   2.705  15.182  0.2782 -0.0177 -0.1976
18686TIP3    H277474   1.969   2.703  15.132 -0.0320  0.2349  0.6709
18687TIP3   OH277475   4.456   4.609   4.305  0.4635  0.1481  0.4125
18687TIP3    H177476   4.406   4.669   4.361  1.8008  0.5013  1.2450
18687TIP3    H277477   4.520   4.665   4.261  1.9672 -0.6919  1.4697
18688TIP3   OH277478   2.104   3.630  16.582 -0.2092  0.4689  0.0767
18688TIP3    H177479   2.138   3.547  16.615  1.6728  1.2894  0.2771
18688TIP3    H277480   2.073   3.676  16.659 -2.2795 -0.4763 -0.1609
18689TIP3   OH277481   6.443   6.077   4.393 -0.6221  0.7482  0.8162
18689TIP3    H177482   6.372   6.016   4.413 -0.4694  0.3263  0.0915
18689TIP3    H277483   6.521   6.038   4.433 -0.4990  0.3926  0.2383
18690TIP3   OH277484   4.223   1.976   3.689 -0.1706  0.1583  0.0584
18690TIP3    H177485   4.225   2.045   3.755  0.6575  0.3538 -0.1662
18690TIP3    H277486   4.152   1.918   3.717  0.2499  0.1726  1.1795
18691TIP3   OH277487   4.221   3.930   4.022  0.1196  0.3643 -0.2549
18691TIP3    H177488   4.279   3.860   3.994 -3.0378 -2.0292 -1.2074
18691TIP3    H277489   4.236   3.939   4.116  1.6971 -0.4643 -0.4175
18692TIP3   OH277490   1.121   2.764  12.891 -0.4154 -0.4185  0.5191
18692TIP3    H177491   1.138   2.693  12.829 -0.2333  0.8513 -0.9471
18692TIP3    H277492   1.033   2.795  12.868 -0.6144 -0.3567  1.3410
18693TIP3   OH277493   2.808   2.861  15.100 -0.3476 -0.6702 -0.6117
18693TIP3    H177494   2.729   2.811  15.077 -0.7033 -0.5181  0.2537
18693TIP3    H277495   2.875   2.830  15.039 -0.5687 -2.2060 -0.0844
18694TIP3   OH277496   4.541   0.907   0.050 -0.0644 -0.2838  0.4610
18694TIP3    H177497   4.515   0.842   0.116  1.1183 -1.2389 -0.0022
18694TIP3    H277498   4.636   0.908   0.053  0.0922 -1.5872 -2.4121
18695TIP3   OH277499   2.394   2.501  11.832 -0.1931  0.1807  0.1905
18695TIP3    H177500   2.426   2.555  11.760 -2.9746  0.0461 -1.1915
18695TIP3    H277501   2.439   2.536  11.909 -0.1823  2.9530 -1.0145
18696TIP3   OH277502   4.639   1.737  14.336 -0.1193  0.1188  0.2809
18696TIP3    H177503   4.732   1.742  14.316 -0.4132  0.6415 -0.9654
18696TIP3    H277504   4.624   1.806  14.401  0.0077  1.2628 -0.8994
18697TIP3   OH277505   5.120   2.287   5.591  0.3292  0.4719  0.0469
18697TIP3    H177506   5.080   2.208   5.627  0.9447  1.1324  2.2176
18697TIP3    H277507   5.046   2.342   5.567 -0.0854  0.0498  0.3423
18698TIP3   OH277508   1.450   0.555  15.635 -0.0606 -0.1797  0.7748
18698TIP3    H177509   1.469   0.463  15.653 -1.4875 -0.3595  1.4121
18698TIP3    H277510   1.536   0.596  15.625  0.5866 -1.5477  0.6275
18699TIP3   OH277511   2.365   2.548  15.943  0.3027 -0.5285 -0.3159
18699TIP3    H177512   2.359   2.611  15.871  0.2371 -0.3605 -0.1642
18699TIP3    H277513   2.441   2.494  15.921 -0.0756 -0.8667 -0.8164
18700TIP3   OH277514   3.282   5.280   3.871  0.4363  0.1421  0.6271
18700TIP3    H177515   3.349   5.348   3.860  2.1200 -1.6888 -0.8329
18700TIP3    H277516   3.222   5.292   3.798  0.7292  0.0957  0.3754
18701TIP3   OH277517   6.189   3.295   2.599  0.3011  0.2186 -0.3416
18701TIP3    H177518   6.183   3.361   2.530 -1.9134  0.0324 -0.3660
18701TIP3    H277519   6.229   3.342   2.673 -0.3181  1.3383 -0.6920
18702TIP3   OH277520   0.495   4.755   0.294  0.1360  0.3108  0.6650
18702TIP3    H177521   0.542   4.774   0.376  0.9065 -0.5311  0.4296
18702TIP3    H277522   0.552   4.693   0.248  0.0210  1.2766 -0.8138
18703TIP3   OH277523   3.684   5.422   1.694  0.0043 -0.4147 -0.1480
18703TIP3    H177524   3.683   5.459   1.783  0.4685  0.2627 -0.4221
18703TIP3    H277525   3.621   5.474   1.646 -0.9125 -1.3563 -0.0018
18704TIP3   OH277526   4.376   5.374   5.642  0.1439  0.0409  0.4906
18704TIP3    H177527   4.381   5.469   5.644 -0.9233  0.1236 -0.2191
18704TIP3    H277528   4.423   5.346   5.720  2.0107  1.0612 -0.2513
18705TIP3   OH277529   5.346   5.228  17.051  0.3195  0.3098  0.0752
18705TIP3    H177530   5.428   5.184  17.071  0.5427  1.0938  0.9541
18705TIP3    H277531   5.303   5.173  16.986  1.5190 -0.1247 -0.3468
18706TIP3   OH277532   5.408   6.436  11.353  0.1263  0.4476  0.0580
18706TIP3    H177533   5.314   6.446  11.366  0.4490  2.3901  1.1665
18706TIP3    H277534   5.446   6.448  11.440  1.4370  0.3232 -0.4820
18707TIP3   OH277535   5.528   4.232  14.810  0.6976  0.4668 -0.6721
18707TIP3    H177536   5.551   4.320  14.839 -0.7693  0.4544  0.5349
18707TIP3    H277537   5.600   4.177  14.841  1.6299  1.2270 -1.4514
18708TIP3   OH277538   2.171   0.003   1.810 -0.6613  0.2450 -0.2439
18708TIP3    H177539   2.205   0.088   1.783  1.5040 -1.0170 -1.6222
18708TIP3    H277540   2.079   0.005   1.786 -0.3354  1.7356 -1.3896
18709TIP3   OH277541   3.360   0.847  15.677  0.1332 -0.3277  0.6403
18709TIP3    H177542   3.313   0.848  15.760 -1.2107 -0.0423 -0.1022
18709TIP3    H277543   3.448   0.819  15.699 -0.0791  0.2279  2.2303
18710TIP3   OH277544   2.794   2.669   3.639 -0.0424  0.4309 -0.1697
18710TIP3    H177545   2.761   2.749   3.597 -0.9131  0.2596  0.1826
18710TIP3    H277546   2.843   2.624   3.570 -0.4573  0.7362 -0.6653
18711TIP3   OH277547   0.303   4.374  13.870 -0.5813 -0.8550 -0.0790
18711TIP3    H177548   0.249   4.424  13.931 -0.3798 -1.9352  1.0062
18711TIP3    H277549   0.393   4.394  13.896 -0.4665 -0.1387 -0.9999
18712TIP3   OH277550   6.318   3.967  15.196 -0.0275  0.0470 -0.3261
18712TIP3    H177551   6.226   3.992  15.182 -0.1042  0.0174  0.1147
18712TIP3    H277552   6.336   3.994  15.286  0.4262  0.1447 -0.4470
18713TIP3   OH277553   5.800   0.930  16.785  0.3007  0.1672  0.0183
18713TIP3    H177554   5.816   1.002  16.724  1.4299  0.6067  0.8171
18713TIP3    H277555   5.855   0.951  16.861  1.1700 -1.8821 -0.0211
18714TIP3   OH277556   6.216   2.360  17.161  0.3337 -0.0387  0.2996
18714TIP3    H177557   6.224   2.453  17.181 -0.3967 -0.2220  1.4711
18714TIP3    H277558   6.123   2.340  17.173  0.8496 -1.3990  2.2231
18715TIP3   OH277559   6.172   5.969   1.888  0.0611  0.5753 -0.7961
18715TIP3    H177560   6.178   5.910   1.813  2.2297 -1.2157  0.7056
18715TIP3    H277561   6.105   6.032   1.864 -1.1709 -1.5426 -3.1348
18716TIP3   OH277562   1.832   2.820  13.254 -0.5394  0.6999  0.0659
18716TIP3    H177563   1.914   2.794  13.295 -0.0448  0.5115 -1.0137
18716TIP3    H277564   1.831   2.915  13.260 -0.4857  0.6686  0.5468
18717TIP3   OH277565   4.147   2.460   2.133 -0.4691 -0.5155  0.2390
18717TIP3    H177566   4.141   2.365   2.131 -2.0424 -0.4518  0.5282
18717TIP3    H277567   4.064   2.490   2.095 -0.5797  0.7263  1.3882
18718TIP3   OH277568   1.750   2.920  11.196 -0.2381 -0.2267  0.0240
18718TIP3    H177569   1.837   2.941  11.230  0.0735 -0.4574 -0.6218
18718TIP3    H277570   1.694   2.992  11.225  0.5976  0.9987 -1.3222
18719TIP3   OH277571   3.978   5.118   0.308 -0.5016 -0.8275  0.1560
18719TIP3    H177572   3.948   5.146   0.395  1.0711 -0.1230  0.4789
18719TIP3    H277573   4.033   5.190   0.277 -2.6113 -0.1840 -2.2832
18720TIP3   OH277574   1.299   2.104   1.461  0.2703 -0.7410 -0.2474
18720TIP3    H177575   1.340   2.032   1.412  0.6403 -1.0690  0.5443
18720TIP3    H277576   1.369   2.140   1.514 -0.0688 -0.2006 -0.1614
18721TIP3   OH277577   1.788   2.974   3.871 -0.1897  0.0680  0.3225
18721TIP3    H177578   1.829   2.894   3.838 -1.0241 -0.0336 -0.4687
18721TIP3    H277579   1.720   2.994   3.808 -0.0446  1.3630  0.5660
18722TIP3   OH277580   1.821   5.526  15.372  0.7247 -0.0681 -0.7503
18722TIP3    H177581   1.730   5.498  15.378  0.9509 -0.7603 -0.5502
18722TIP3    H277582   1.816   5.620  15.353 -0.0276 -0.1342 -0.8814
18723TIP3   OH277583   2.480   3.171  13.090  0.0637 -0.5999 -0.3634
18723TIP3    H177584   2.572   3.184  13.109 -0.1718  0.0001  0.3599
18723TIP3    H277585   2.472   3.191  12.996  0.4236  0.6275 -0.1295
18724TIP3   OH277586   1.565   0.854  12.614 -0.0671 -0.3880 -0.0103
18724TIP3    H177587   1.564   0.915  12.540 -0.9192  0.7682  0.9310
18724TIP3    H277588   1.579   0.910  12.690  0.0689 -1.4889  0.7696
18725TIP3   OH277589   5.441   5.615   2.120 -0.0439  0.2914  0.2762
18725TIP3    H177590   5.446   5.617   2.024  0.3219 -1.4564  0.2351
18725TIP3    H277591   5.352   5.585   2.138  0.0239  0.2070  0.4702
18726TIP3   OH277592   1.665   5.732   2.589  0.3233  0.4232  1.0587
18726TIP3    H177593   1.599   5.768   2.530  0.2055  1.0874  1.6000
18726TIP3    H277594   1.661   5.637   2.573  0.1658  0.5765  0.1361
18727TIP3   OH277595   1.299   3.248  12.902  0.2032 -0.0217  0.6157
18727TIP3    H177596   1.227   3.297  12.863  0.8320  0.2468 -0.2035
18727TIP3    H277597   1.285   3.258  12.997 -0.3589  0.7275  0.4622
18728TIP3   OH277598   5.610   1.089   0.621 -0.4637 -0.4350 -0.7326
18728TIP3    H177599   5.618   1.134   0.705 -1.4491  1.0615 -1.4203
18728TIP3    H277600   5.698   1.055   0.604  0.3391  1.3377 -0.2352
18729TIP3   OH277601   6.399   5.256   6.143 -0.0368 -0.1629  0.5818
18729TIP3    H177602   6.374   5.329   6.200 -1.3254 -1.6478  1.9485
18729TIP3    H277603   6.466   5.209   6.192  0.1783 -0.4035  0.0632
18730TIP3   OH277604   2.684   5.641   1.622 -0.0497  0.1225 -0.0832
18730TIP3    H177605   2.677   5.736   1.614 -0.7598  0.2938  2.1915
18730TIP3    H277606   2.778   5.624   1.613  0.2324  1.1762  0.7134
18731TIP3   OH277607   5.588   4.103   5.606  0.1106 -0.7067 -0.4924
18731TIP3    H177608   5.597   4.009   5.589  0.4211 -0.3978 -2.0683
18731TIP3    H277609   5.503   4.126   5.569 -0.1809 -0.4396  0.3089
18732TIP3   OH277610   5.381   1.750   3.867 -0.5167 -0.0225  0.1228
18732TIP3    H177611   5.450   1.811   3.893  0.0557 -0.3850 -0.5392
18732TIP3    H277612   5.309   1.806   3.837 -0.2355  0.3439  0.1328
18733TIP3   OH277613   1.981   4.980  13.629  0.0791 -0.2628  0.2875
18733TIP3    H177614   1.979   4.958  13.722  0.2336  1.7540  0.7894
18733TIP3    H277615   1.893   4.960  13.598  0.2734 -1.7796  0.6377
18734TIP3   OH277616   6.648   4.855   2.720 -0.0449  0.0059 -0.5420
18734TIP3    H177617   6.713   4.921   2.744 -0.7926  0.7988 -0.6687
18734TIP3    H277618   6.639   4.801   2.799  0.7501 -0.0955 -0.5211
18735TIP3   OH277619   5.554   4.312   2.230  1.1472 -0.2147 -0.3182
18735TIP3    H177620   5.598   4.235   2.266 -1.2743  0.0830  3.5052
18735TIP3    H277621   5.571   4.382   2.293 -0.5442  1.2025 -1.3637
18736TIP3   OH277622   2.689   6.549  14.951  0.0840 -0.1609  0.4501
18736TIP3    H177623   2.690   6.496  14.872 -1.1946  0.2283  0.1719
18736TIP3    H277624   2.685   6.639  14.920 -0.5993 -0.0128  0.9541
18737TIP3   OH277625   6.250   5.978   4.717  0.2739 -0.1728  0.4796
18737TIP3    H177626   6.282   5.914   4.780  0.5862  0.7814  1.3120
18737TIP3    H277627   6.316   6.048   4.718  0.2420 -0.1143 -0.8546
18738TIP3   OH277628   4.424   2.193   2.902  0.0896  0.2064 -0.1711
18738TIP3    H177629   4.434   2.119   2.842  1.1281 -0.0480  0.3025
18738TIP3    H277630   4.445   2.270   2.849  3.8259 -0.2366  0.5498
18739TIP3   OH277631   4.730   4.463  15.245  0.3475  0.2374  0.0727
18739TIP3    H177632   4.641   4.474  15.279  0.2002  1.3285 -0.6176
18739TIP3    H277633   4.729   4.379  15.200 -0.4333  0.3930 -0.2112
18740TIP3   OH277634   1.030   2.033   2.039 -0.5385 -0.1024  0.1233
18740TIP3    H177635   0.989   2.100   2.094  1.0087  0.4145  0.6488
18740TIP3    H277636   0.972   2.025   1.963 -1.0739  1.3505  0.3765
18741TIP3   OH277637   3.293   0.470  11.572 -0.3199  0.0994  0.1586
18741TIP3    H177638   3.273   0.414  11.497 -0.5137  0.5762 -0.1405
18741TIP3    H277639   3.211   0.474  11.621 -0.6933  1.2206 -0.5320
18742TIP3   OH277640   0.546   5.193   2.317 -0.3748 -0.3398  0.4402
18742TIP3    H177641   0.542   5.277   2.363  1.6624  0.5233 -0.9034
18742TIP3    H277642   0.464   5.149   2.340 -2.0997  2.5847  0.0379
18743TIP3   OH277643   0.907   3.888  12.855 -0.3261 -0.3195 -0.1315
18743TIP3    H177644   0.891   3.794  12.853 -2.2916  0.0080 -0.3759
18743TIP3    H277645   0.921   3.908  12.948 -0.3890 -0.7739 -0.0261
18744TIP3   OH277646   4.765   2.698  15.025 -0.3907  0.6603 -0.5621
18744TIP3    H177647   4.784   2.622  14.970  0.7729 -0.7018  1.6437
18744TIP3    H277648   4.674   2.720  15.005 -1.0945 -2.0083 -0.4826
18745TIP3   OH277649   3.596   1.064  10.825  0.0137  0.6786 -0.2783
18745TIP3    H177650   3.556   1.016  10.898  1.1425  0.1007 -0.0306
18745TIP3    H277651   3.689   1.068  10.846  0.4326  0.0700 -1.9152
18746TIP3   OH277652   1.089   3.919   4.923 -0.3454  0.1054  0.2061
18746TIP3    H177653   1.005   3.882   4.948  0.1476 -0.8445  0.4648
18746TIP3    H277654   1.154   3.865   4.968  0.3632  1.5432  0.9154
18747TIP3   OH277655   0.287   2.889  11.050  0.1082 -0.2048 -0.3532
18747TIP3    H177656   0.321   2.855  10.967 -0.2195 -1.1529 -0.1023
18747TIP3    H277657   0.296   2.816  11.111  0.4811  0.5405  0.4841
18748TIP3   OH277658   4.215   0.566  11.759 -0.6777  0.2377  1.3205
18748TIP3    H177659   4.294   0.620  11.755 -0.8560  0.3991 -0.2822
18748TIP3    H277660   4.231   0.496  11.695 -1.3259 -0.4314  1.8796
18749TIP3   OH277661   1.008   4.982   0.651  0.0396  0.2822  0.1442
18749TIP3    H177662   1.091   4.997   0.607  0.1132 -1.8967 -0.4822
18749TIP3    H277663   1.031   4.971   0.743  0.3364  0.5642  0.1052
18750TIP3   OH277664   2.138   6.614   0.228  0.6498 -0.0600  0.0137
18750TIP3    H177665   2.113   6.545   0.289 -0.4652  0.3313  0.0015
18750TIP3    H277666   2.109   6.582   0.143 -0.4801  0.7295  0.1033
18751TIP3   OH277667   6.470   4.834  14.622 -0.1010 -0.2206  0.0591
18751TIP3    H177668   6.510   4.919  14.606 -1.6948  1.1660  2.9528
18751TIP3    H277669   6.541   4.771  14.612  2.0541  1.8423  1.7551
18752TIP3   OH277670   0.749   5.209  16.757  0.5373  0.1713  0.5783
18752TIP3    H177671   0.824   5.150  16.749  0.1232 -0.1494 -1.0718
18752TIP3    H277672   0.753   5.263  16.678 -1.7899 -0.8046 -0.2490
18753TIP3   OH277673   3.370   1.612  13.107 -0.1890  0.3487 -0.0630
18753TIP3    H177674   3.294   1.556  13.091  1.0757 -1.0012 -1.3729
18753TIP3    H277675   3.347   1.659  13.188 -1.3190 -1.9628  1.0129
18754TIP3   OH277676   5.955   1.623   3.245 -0.2924 -0.0901 -0.2283
18754TIP3    H177677   5.884   1.653   3.303 -0.4012 -0.8134  0.0146
18754TIP3    H277678   6.033   1.622   3.302 -0.1440  0.4078 -0.4177
18755TIP3   OH277679   6.400   2.247  14.672  0.1394  0.2921 -0.5431
18755TIP3    H177680   6.490   2.277  14.674  0.3643 -0.3277 -1.1562
18755TIP3    H277681   6.352   2.317  14.627  0.2516  0.7583  0.0543
18756TIP3   OH277682   0.968   5.667  16.672  0.0344 -0.3871 -0.0831
18756TIP3    H177683   1.028   5.704  16.737  1.2409  0.0168 -1.3967
18756TIP3    H277684   0.970   5.573  16.690 -2.0941 -0.0154  2.4740
18757TIP3   OH277685   1.937   2.079  12.748  0.5845 -0.1485 -0.2086
18757TIP3    H177686   2.015   2.098  12.697  0.2073 -0.0693 -0.7631
18757TIP3    H277687   1.912   2.164  12.785  1.0930 -0.2803  0.4538
18758TIP3   OH277688   4.447   3.188  14.352  0.4409  0.8303 -0.0793
18758TIP3    H177689   4.522   3.245  14.370 -1.0329  2.3234  1.5528
18758TIP3    H277690   4.399   3.234  14.283 -0.2130  1.0628  0.5305
18759TIP3   OH277691   3.354   3.681   5.942  0.8444 -0.5342  0.4982
18759TIP3    H177692   3.400   3.758   5.975  0.8606 -0.5310  0.4677
18759TIP3    H277693   3.263   3.708   5.934  1.0034 -0.2455 -0.3811
18760TIP3   OH277694   1.895   4.512  12.682 -0.2754 -0.5134 -0.1877
18760TIP3    H177695   1.814   4.523  12.632 -0.0490 -0.1847 -0.4772
18760TIP3    H277696   1.959   4.569  12.639 -0.3664  0.6135  1.1229
18761TIP3   OH277697   4.594   4.706  11.316  0.4037  0.0699  0.2001
18761TIP3    H177698   4.525   4.670  11.371 -1.3588  0.7913 -1.4533
18761TIP3    H277699   4.552   4.778  11.269  2.2165  0.3491 -1.0603
18762TIP3   OH277700   6.545   4.623  17.133 -0.1826 -0.1794  0.7210
18762TIP3    H177701   6.573   4.621  17.225 -0.9498  1.0550  0.9980
18762TIP3    H277702   6.455   4.589  17.135 -0.7033  1.1782  0.6321
18763TIP3   OH277703   0.827   6.151   0.376  0.5593  0.7898 -0.1196
18763TIP3    H177704   0.737   6.142   0.407  0.6670 -2.1268 -0.4709
18763TIP3    H277705   0.880   6.157   0.455  0.2571 -0.0143  0.1500
18764TIP3   OH277706   3.289   0.888  14.913 -0.3322 -0.0558  0.6627
18764TIP3    H177707   3.321   0.921  14.997  0.7265  0.5003  0.0522
18764TIP3    H277708   3.248   0.805  14.934  2.2876 -1.2325  1.3808
18765TIP3   OH277709   5.636   1.266  14.448  0.1641 -0.5036  0.0279
18765TIP3    H177710   5.670   1.345  14.491  2.1756 -0.6909 -1.1789
18765TIP3    H277711   5.541   1.271  14.460  0.1969  2.5081 -0.7477
18766TIP3   OH277712   2.866   5.046  16.603  0.0282  0.0582 -0.2232
18766TIP3    H177713   2.916   5.028  16.523 -0.4828 -0.3180 -0.4554
18766TIP3    H277714   2.774   5.044  16.575 -0.1419  0.1376  0.3316
18767TIP3   OH277715   0.865   2.737   3.365 -0.3241 -0.3572 -0.8055
18767TIP3    H177716   0.812   2.763   3.441 -0.9774  0.3666 -1.4975
18767TIP3    H277717   0.950   2.714   3.402 -1.6430 -3.2535  0.5414
18768TIP3   OH277718   5.684   1.254  14.916  0.0850 -0.4550 -0.2027
18768TIP3    H177719   5.753   1.187  14.916 -0.0926 -0.6386 -0.0811
18768TIP3    H277720   5.658   1.261  15.008  0.1786 -0.1375 -0.2000
18769TIP3   OH277721   2.573   3.511   5.765 -0.0486 -0.3732 -0.0053
18769TIP3    H177722   2.548   3.583   5.823  0.2438  0.1213 -0.4978
18769TIP3    H277723   2.604   3.443   5.825  0.9835  0.4257  0.3803
18770TIP3   OH277724   3.249   4.271  12.589  0.7154 -0.9499 -0.0069
18770TIP3    H177725   3.174   4.212  12.591  0.8189 -1.2156 -2.7862
18770TIP3    H277726   3.293   4.256  12.673 -2.1738 -0.9466  1.5792
18771TIP3   OH277727   4.710   3.011   4.758 -0.2224 -0.1343 -0.2271
18771TIP3    H177728   4.768   2.945   4.720 -0.6002 -0.2932 -0.5300
18771TIP3    H277729   4.649   2.961   4.812  0.0168  0.0461  0.2137
18772TIP3   OH277730   5.933   0.069   6.503 -0.3214 -0.6194 -0.2668
18772TIP3    H177731   5.922   0.146   6.448 -1.3184 -0.4491  0.1669
18772TIP3    H277732   5.930   0.102   6.593 -1.8961 -1.2874 -0.0539
18773TIP3   OH277733   5.349   2.244   4.986 -0.9987 -0.0201  0.2120
18773TIP3    H177734   5.303   2.295   5.053 -0.8325 -0.5546  0.7265
18773TIP3    H277735   5.287   2.176   4.960 -2.0131  1.6332 -1.9309
18774TIP3   OH277736   4.402   2.756  16.830 -0.0119  0.5963 -0.1152
18774TIP3    H177737   4.325   2.704  16.809  0.6555 -0.5832  0.3518
18774TIP3    H277738   4.460   2.696  16.877  0.4608  1.9470  1.0632
18775TIP3   OH277739   3.394   3.014   2.819  0.4629  0.1927 -0.3195
18775TIP3    H177740   3.421   3.088   2.873  1.2115 -0.8115  0.7090
18775TIP3    H277741   3.359   2.950   2.882 -0.5158 -0.1744 -1.2311
18776TIP3   OH277742   2.422   5.248   0.336 -0.1345  0.0321  0.0521
18776TIP3    H177743   2.404   5.305   0.411  0.9323 -0.6427  0.8312
18776TIP3    H277744   2.445   5.308   0.265 -1.7482  0.7047  0.0852
18777TIP3   OH277745   3.437   3.312   5.218  0.5446  0.2001  0.2760
18777TIP3    H177746   3.516   3.347   5.177  0.4800 -0.9357 -0.8416
18777TIP3    H277747   3.414   3.377   5.285  1.4904  1.3457 -0.4858
18778TIP3   OH277748   0.882   6.102  12.805 -0.6094 -0.1063 -0.4484
18778TIP3    H177749   0.926   6.023  12.838 -0.7388 -0.7043 -1.6701
18778TIP3    H277750   0.839   6.139  12.882  2.0805  0.5558  0.8170
18779TIP3   OH277751   3.989   4.383   4.973  0.3301 -1.0128  0.2076
18779TIP3    H177752   3.930   4.317   5.010 -0.4444 -0.2892  0.2822
18779TIP3    H277753   3.930   4.443   4.926  0.9266  0.1576  0.9388
18780TIP3   OH277754   1.473   0.608  16.931 -0.5887  0.2391 -0.2474
18780TIP3    H177755   1.508   0.520  16.919 -1.6860  0.0164 -1.8707
18780TIP3    H277756   1.510   0.637  17.015 -1.5962 -2.4258  1.1591
18781TIP3   OH277757   5.319   2.361   4.464  0.1660 -0.0128 -0.2091
18781TIP3    H177758   5.319   2.402   4.378 -1.4863 -0.6540 -0.5259
18781TIP3    H277759   5.373   2.418   4.518  0.3079  0.9825 -1.3988
18782TIP3   OH277760   4.030   6.338  16.428 -0.0683 -0.7145  0.1482
18782TIP3    H177761   4.021   6.424  16.468 -1.4679 -0.7835  0.0090
18782TIP3    H277762   4.123   6.331  16.407  0.1765  0.4766  0.7804
18783TIP3   OH277763   4.756   4.898  13.850  0.6665 -0.3633 -0.0120
18783TIP3    H177764   4.681   4.843  13.831  0.1825  0.2461  0.1026
18783TIP3    H277765   4.771   4.948  13.769 -0.3088  0.9655  0.6064
18784TIP3   OH277766   4.497   4.871  16.342 -0.4405  0.3610 -0.2242
18784TIP3    H177767   4.503   4.783  16.307 -0.7131  0.6457 -1.0005
18784TIP3    H277768   4.408   4.877  16.377  0.2495 -0.3630  1.7540
18785TIP3   OH277769   2.918   3.845   6.148 -0.2614 -0.8557  0.9371
18785TIP3    H177770   2.978   3.774   6.125 -0.3630 -0.4200 -0.7662
18785TIP3    H277771   2.973   3.924   6.146 -1.0526 -0.3106 -1.6729
18786TIP3   OH277772   0.291   3.551  11.264 -0.3752 -0.2638 -0.3151
18786TIP3    H177773   0.296   3.493  11.188  0.1860 -2.4221  1.3220
18786TIP3    H277774   0.278   3.492  11.338 -2.0934  1.8799  1.1525
18787TIP3   OH277775   2.441   0.085  13.278 -0.0774 -0.0873 -0.2584
18787TIP3    H177776   2.445   0.026  13.203  1.4284  0.1729 -0.3981
18787TIP3    H277777   2.530   0.121  13.285 -0.8056  1.6873  0.2028
18788TIP3   OH277778   1.728   0.269   3.873 -0.5589 -0.3628  0.2867
18788TIP3    H177779   1.776   0.191   3.848 -0.7654 -0.2822 -0.3569
18788TIP3    H277780   1.647   0.237   3.911 -0.1283 -0.4913  1.1083
18789TIP3   OH277781   4.221   1.547  10.357 -0.9715 -0.2667  0.3366
18789TIP3    H177782   4.209   1.531  10.451 -0.0619 -0.2076  0.4588
18789TIP3    H277783   4.134   1.530  10.320 -1.7134  1.1586  1.3693
18790TIP3   OH277784   6.399   2.844  17.009 -0.0669  0.2047 -0.0089
18790TIP3    H177785   6.358   2.787  16.944  1.8258  2.1027 -3.0422
18790TIP3    H277786   6.326   2.882  17.058 -1.6252 -0.7208 -1.5482
18791TIP3   OH277787   4.813   2.523   0.614  0.1072  0.1933 -0.0943
18791TIP3    H177788   4.812   2.496   0.705 -0.5630  2.7207  0.6846
18791TIP3    H277789   4.721   2.528   0.589  0.2746 -0.0648 -0.7815
18792TIP3   OH277790   2.013   3.462  16.384  0.3943  0.3115  0.2207
18792TIP3    H177791   2.042   3.477  16.294 -0.1922  0.9349  0.1343
18792TIP3    H277792   2.039   3.542  16.431 -0.1477  0.3869  0.3934
18793TIP3   OH277793   1.295   1.622   5.749  0.0814 -0.2591 -0.0671
18793TIP3    H177794   1.213   1.573   5.748 -0.2129  0.2240  0.1808
18793TIP3    H277795   1.347   1.583   5.679  0.3399 -1.7559  0.9286
18794TIP3   OH277796   4.147   0.535   1.642 -0.0933  0.0274  0.2577
18794TIP3    H177797   4.092   0.499   1.712 -1.6886  0.5897 -0.6576
18794TIP3    H277798   4.158   0.627   1.666  0.8835 -0.2004  0.6966
18795TIP3   OH277799   0.100   1.791   1.582 -0.4462  0.0350  0.1682
18795TIP3    H177800   0.035   1.861   1.580 -0.1281  0.3275 -0.1103
18795TIP3    H277801   0.180   1.832   1.548  0.4378  0.2478  2.3791
18796TIP3   OH277802   4.774   5.501  15.194  0.1641  0.0742 -0.0846
18796TIP3    H177803   4.705   5.442  15.227  0.0273 -0.4265 -1.2508
18796TIP3    H277804   4.797   5.465  15.109  0.9450  1.0180 -0.2714
18797TIP3   OH277805   4.612   6.281   5.778  0.0502 -0.1837  0.1783
18797TIP3    H177806   4.642   6.192   5.765  0.3330 -0.1596  0.6439
18797TIP3    H277807   4.644   6.305   5.866  0.7422  0.6761 -0.2900
18798TIP3   OH277808   1.991   2.329  12.883  0.1643  0.5468 -0.3752
18798TIP3    H177809   2.043   2.367  12.954 -0.5390  1.2902 -0.2420
18798TIP3    H277810   1.955   2.405  12.837 -0.3923  0.0485 -0.7699
18799TIP3   OH277811   2.581   4.956  13.758  0.2218 -0.3521 -0.3223
18799TIP3    H177812   2.567   5.039  13.804  0.9792 -0.6216  0.4067
18799TIP3    H277813   2.634   4.980  13.682 -0.1767 -0.0658 -0.5178
18800TIP3   OH277814   2.117   3.400  16.804 -0.3169  0.2474  0.5060
18800TIP3    H177815   2.022   3.396  16.815 -0.4605 -0.1614 -0.7963
18800TIP3    H277816   2.152   3.361  16.884 -1.2067  1.8293  1.6823
18801TIP3   OH277817   0.912   0.832   1.946  0.2313 -0.0940  0.2049
18801TIP3    H177818   0.898   0.779   2.025  0.1799  0.0787  0.3117
18801TIP3    H277819   1.006   0.823   1.928 -0.0975 -1.6344 -0.7891
18802TIP3   OH277820   6.281   6.419   4.063  0.5998  0.4179  0.3986
18802TIP3    H177821   6.336   6.476   4.009 -1.3346  1.6344 -0.3530
18802TIP3    H277822   6.225   6.374   3.999  0.8291 -0.9207  1.1313
18803TIP3   OH277823   6.596   2.628  14.784 -0.0245  0.3201  1.0532
18803TIP3    H177824   6.644   2.696  14.737  0.0902 -0.8837 -0.6415
18803TIP3    H277825   6.662   2.562  14.805 -0.4520 -0.1101  1.0580
18804TIP3   OH277826   0.334   5.385  15.363 -0.1423  0.4118 -0.0293
18804TIP3    H177827   0.294   5.441  15.429  0.4213 -0.0541  0.7158
18804TIP3    H277828   0.337   5.298  15.404  0.7493  0.2480 -0.4308
18805TIP3   OH277829   2.505   4.169  16.950  0.7380  0.4646  0.4840
18805TIP3    H177830   2.451   4.127  17.017  0.8669 -1.5389 -0.6336
18805TIP3    H277831   2.467   4.256  16.940  0.8188  0.8795  3.2591
18806TIP3   OH277832   1.677   1.841   2.159  0.1990 -0.1714 -0.6175
18806TIP3    H177833   1.649   1.762   2.207 -1.8158 -0.0201 -1.5272
18806TIP3    H277834   1.681   1.813   2.068 -3.1663  1.4512 -1.3150
18807TIP3   OH277835   4.346   6.780  11.095 -0.2352 -0.0942 -0.0874
18807TIP3    H177836   4.267   6.740  11.129 -0.1707 -0.7894 -0.7442
18807TIP3    H277837   4.331   6.787  11.000  0.9290 -1.2346 -0.3622
18808TIP3   OH277838   0.896   3.721  15.356  0.0746  0.2821 -0.0913
18808TIP3    H177839   0.898   3.816  15.367  0.9660  0.3447 -0.7402
18808TIP3    H277840   0.901   3.686  15.445 -1.0129  0.8412  0.2034
18809TIP3   OH277841   4.850   3.351   0.792  0.1671  0.0607 -0.4005
18809TIP3    H177842   4.863   3.302   0.874  2.1595 -0.0856 -0.7772
18809TIP3    H277843   4.813   3.286   0.732 -0.5209 -0.0453  0.1195
18810TIP3   OH277844   6.030   2.441   1.442  0.6795  0.3600 -0.1409
18810TIP3    H177845   6.033   2.447   1.347  1.8278 -0.5153 -0.1645
18810TIP3    H277846   5.990   2.524   1.470  1.9963  1.4120 -1.2894
18811TIP3   OH277847   2.052   0.183   5.742  0.1466  0.2263 -0.2885
18811TIP3    H177848   2.085   0.113   5.799 -1.1600  0.0805  0.3137
18811TIP3    H277849   2.082   0.264   5.783  1.1431  0.0449 -0.6510
18812TIP3   OH277850   1.655   0.767   4.123  0.6234  0.0108 -0.2794
18812TIP3    H177851   1.750   0.778   4.118  0.7772  0.1105  2.2471
18812TIP3    H277852   1.643   0.690   4.179 -0.7917 -0.0006 -0.5850
18813TIP3   OH277853   1.155   4.309  13.550 -0.5188 -0.0183  0.0770
18813TIP3    H177854   1.216   4.323  13.622 -1.8910  0.4282  1.1770
18813TIP3    H277855   1.155   4.391  13.500 -0.9261  0.3166  0.6255
18814TIP3   OH277856   3.257   1.065  14.099 -0.0142  0.2882 -0.0157
18814TIP3    H177857   3.210   0.990  14.064 -1.7695  0.6841  1.4122
18814TIP3    H277858   3.312   1.029  14.168 -0.2691  0.1864  0.1356
18815TIP3   OH277859   4.764   2.356  13.586  0.0367 -0.0459  0.1499
18815TIP3    H177860   4.687   2.412  13.576  1.3645  2.2314  2.0897
18815TIP3    H277861   4.753   2.316  13.673  1.4185  0.9518  0.8053
18816TIP3   OH277862   4.571   0.644   2.985  0.3347  0.1262  0.1126
18816TIP3    H177863   4.493   0.603   2.947 -0.1298  0.7071  0.4267
18816TIP3    H277864   4.545   0.667   3.075  1.0923 -0.3073  0.4449
18817TIP3   OH277865   0.281   5.500   1.264 -0.0736 -0.0260 -0.2496
18817TIP3    H177866   0.327   5.584   1.270 -1.9363  1.0227 -0.5352
18817TIP3    H277867   0.348   5.439   1.232  1.5273  1.1441  0.7834
18818TIP3   OH277868   4.965   4.032   1.678  0.3905  0.4592 -0.4654
18818TIP3    H177869   4.931   3.951   1.641 -0.2217  0.2673  0.5043
18818TIP3    H277870   4.961   4.020   1.773 -1.5106  2.3298 -0.2600
18819TIP3   OH277871   1.266   0.043   5.856  0.0686  0.4478  0.5884
18819TIP3    H177872   1.313  -0.021   5.802  0.6169  2.0185 -0.8515
18819TIP3    H277873   1.284   0.017   5.946 -0.0001 -1.6201  0.0351
18820TIP3   OH277874   6.317   1.544   2.641  0.0285  0.3861 -0.0127
18820TIP3    H177875   6.389   1.531   2.704  0.6769  0.4052 -0.7462
18820TIP3    H277876   6.242   1.500   2.681  0.6937 -0.4653  0.3182
18821TIP3   OH277877   3.821   5.024   1.807  0.1076  0.1885  0.7835
18821TIP3    H177878   3.817   5.069   1.723  0.6858 -2.5347 -0.7854
18821TIP3    H277879   3.856   5.088   1.868  0.0836  2.0814 -1.1555
18822TIP3   OH277880   5.625   3.053  13.434 -0.5749 -0.0724 -0.3487
18822TIP3    H177881   5.613   2.960  13.452 -0.6029  0.5162  2.8811
18822TIP3    H277882   5.719   3.063  13.422 -0.7650 -0.8157 -2.6664
18823TIP3   OH277883   4.285   1.742   0.397  0.2472  0.1578 -0.6554
18823TIP3    H177884   4.326   1.779   0.319 -1.2018  2.3041 -0.4547
18823TIP3    H277885   4.198   1.715   0.367  0.4334 -0.9030 -0.2435
18824TIP3   OH277886   0.768   1.732   2.981 -0.4356  0.1235 -0.4318
18824TIP3    H177887   0.842   1.792   2.990 -0.0640 -0.5957  1.6941
18824TIP3    H277888   0.718   1.766   2.907  0.5926  2.1584 -0.2300
18825TIP3   OH277889   2.251   4.903   0.339 -0.0167  0.2053  0.5193
18825TIP3    H177890   2.335   4.949   0.327  0.7638 -0.7426  2.1889
18825TIP3    H277891   2.275   4.812   0.354 -1.2977  0.0194  1.6083
18826TIP3   OH277892   6.669   5.942   4.462  0.5194  0.3625 -0.4588
18826TIP3    H177893   6.710   5.870   4.510 -1.2465 -0.8175 -0.6629
18826TIP3    H277894   6.666   5.911   4.371 -2.5845 -0.4640 -0.1463
18827TIP3   OH277895   5.477   4.097   3.222 -0.0617 -0.0497  0.2251
18827TIP3    H177896   5.436   4.013   3.243  0.1688 -0.3176 -0.4169
18827TIP3    H277897   5.570   4.078   3.217  0.0098  0.2828  0.2656
18828TIP3   OH277898   4.033   4.406  15.916 -0.3558 -0.4101  0.0675
18828TIP3    H177899   4.023   4.357  15.833  0.4042 -0.9667  0.2937
18828TIP3    H277900   4.125   4.395  15.938  0.0363  1.8998 -0.3343
18829TIP3   OH277901   1.935   3.537   5.225  0.5043 -0.3575  0.0019
18829TIP3    H177902   1.948   3.623   5.186  0.9070  0.0973  1.1197
18829TIP3    H277903   1.880   3.490   5.162  0.0416  0.8101 -0.4822
18830TIP3   OH277904   6.012   2.936   2.321 -0.5409 -0.0357  0.3826
18830TIP3    H177905   5.933   2.894   2.354  0.6079 -1.1432  1.7774
18830TIP3    H277906   6.073   2.864   2.306  0.5287  0.8911  0.2171
18831TIP3   OH277907   1.832   1.335  16.612 -0.2248  0.3328 -0.4899
18831TIP3    H177908   1.898   1.350  16.545 -0.0574 -1.6607 -0.7911
18831TIP3    H277909   1.879   1.294  16.685 -0.8706  0.1773 -0.1511
18832TIP3   OH277910   2.788   5.734  11.963  1.1465  0.5002 -0.0246
18832TIP3    H177911   2.826   5.664  12.016 -2.0419 -1.1443  0.2444
18832TIP3    H277912   2.695   5.732  11.985  0.6429  3.4108 -1.6665
18833TIP3   OH277913   1.873   1.610   0.769  0.1173 -0.3782  0.5923
18833TIP3    H177914   1.916   1.563   0.840  0.1518 -0.9075  0.2207
18833TIP3    H277915   1.940   1.619   0.701 -0.2285 -0.8236  0.1898
18834TIP3   OH277916   3.664   4.236  16.362  0.5937  0.0019 -0.3905
18834TIP3    H177917   3.712   4.192  16.292 -1.4923  1.0479 -2.5037
18834TIP3    H277918   3.631   4.164  16.417  0.1445 -0.9182 -1.8489
18835TIP3   OH277919   6.066   4.083  15.132 -0.5622  0.1604  0.5839
18835TIP3    H177920   5.992   4.028  15.107 -1.2800  1.5740 -0.5027
18835TIP3    H277921   6.034   4.134  15.206 -0.2744 -0.0517  0.8570
18836TIP3   OH277922   3.552   6.611  12.224 -0.1626 -0.0882  0.1914
18836TIP3    H177923   3.500   6.554  12.167 -0.5725  0.0991  0.3717
18836TIP3    H277924   3.488   6.649  12.284  0.0133  1.0167 -0.2998
18837TIP3   OH277925   5.681   4.724   0.302  0.1991 -0.2742  0.3953
18837TIP3    H177926   5.634   4.721   0.385  0.8079 -3.2168  0.6653
18837TIP3    H277927   5.773   4.732   0.327  0.3515 -0.8049  0.0101
18838TIP3   OH277928   6.424   3.693  14.833 -0.0447 -0.7197 -0.2273
18838TIP3    H177929   6.387   3.647  14.758  1.0812 -0.9710 -0.6397
18838TIP3    H277930   6.357   3.757  14.857 -0.3437 -0.5072 -1.5594
18839TIP3   OH277931   5.408   0.928   1.461 -0.1019 -1.1218 -0.6288
18839TIP3    H177932   5.377   0.999   1.517  1.1716 -1.7737  0.9542
18839TIP3    H277933   5.449   0.866   1.522 -0.3564 -2.7465 -2.0904
18840TIP3   OH277934   1.410   2.653   5.323 -0.1871  0.3204  0.1702
18840TIP3    H177935   1.504   2.659   5.341 -0.4234 -0.5975  1.7778
18840TIP3    H277936   1.374   2.734   5.358 -0.1646  0.0946  0.7235
18841TIP3   OH277937   3.519   1.960   2.609 -1.3837  0.0626 -0.0502
18841TIP3    H177938   3.432   1.932   2.636 -0.5665 -1.3165  1.2378
18841TIP3    H277939   3.566   1.977   2.691 -0.6630  1.5661 -0.7332
18842TIP3   OH277940   1.318   0.172  13.158  0.4228  0.3630 -0.0254
18842TIP3    H177941   1.276   0.090  13.132 -1.8803  1.0094  1.5328
18842TIP3    H277942   1.320   0.169  13.253 -1.5757  2.9631  0.1760
18843TIP3   OH277943   4.591   6.630  11.336 -0.4903  0.0930 -0.4247
18843TIP3    H177944   4.645   6.685  11.393  0.8125  0.9608 -2.4601
18843TIP3    H277945   4.594   6.543  11.377 -1.5747  1.2140  2.1448
18844TIP3   OH277946   5.722   2.655  14.878 -0.4613  0.2401  0.0489
18844TIP3    H177947   5.689   2.691  14.795 -0.4707 -1.1263 -0.5561
18844TIP3    H277948   5.781   2.723  14.911 -0.2447  0.6935 -1.2174
18845TIP3   OH277949   3.662   5.124  10.733  0.3349  0.4559 -0.1333
18845TIP3    H177950   3.717   5.189  10.779  1.3487 -1.1351  0.9525
18845TIP3    H277951   3.717   5.091  10.663  0.6322 -0.8772  0.7257
18846TIP3   OH277952   4.976   4.725  16.573 -0.4745  0.7162 -0.1261
18846TIP3    H177953   4.975   4.659  16.641  3.3181 -0.8739 -1.4721
18846TIP3    H277954   5.069   4.747  16.561 -1.3298  3.5868 -2.2534
18847TIP3   OH277955   4.194   5.948  15.386 -0.1379 -1.2886 -0.3159
18847TIP3    H177956   4.186   5.861  15.346 -0.0666 -0.7690 -1.4912
18847TIP3    H277957   4.234   6.002  15.318  0.8458 -0.5942  0.7979
18848TIP3   OH277958   3.257   5.916  16.662  0.1709 -1.1474 -0.0393
18848TIP3    H177959   3.286   5.841  16.610  2.9812  0.3102 -0.6979
18848TIP3    H277960   3.165   5.928  16.637  0.8067 -1.9012 -3.0110
18849TIP3   OH277961   6.105   2.361  12.055 -0.4450  0.2166  0.2755
18849TIP3    H177962   6.147   2.275  12.065 -2.2686 -0.8171 -0.6943
18849TIP3    H277963   6.132   2.391  11.969 -0.7526  0.0668  0.1237
18850TIP3   OH277964   1.846   1.889   2.400 -0.4967 -0.1396 -0.2948
18850TIP3    H177965   1.922   1.831   2.400 -1.5489 -1.5608  0.8441
18850TIP3    H277966   1.814   1.887   2.310  0.7228  0.3530 -0.7426
18851TIP3   OH277967   5.935   5.708  17.081 -0.1311  0.0632 -0.6049
18851TIP3    H177968   5.859   5.693  17.138 -0.2326  0.9931 -0.5012
18851TIP3    H277969   5.923   5.796  17.047  1.3440  0.5237  0.0579
18852TIP3   OH277970   5.340   2.937   2.532  1.0069  0.0494 -0.3952
18852TIP3    H177971   5.382   2.999   2.472 -0.3519  3.2725  1.8347
18852TIP3    H277972   5.313   2.990   2.607 -1.8516 -2.9245  0.8333
18853TIP3   OH277973   2.782   0.761  17.098  0.4613  0.7737  0.4943
18853TIP3    H177974   2.827   0.792  17.176  0.9695  1.4271 -0.0555
18853TIP3    H277975   2.785   0.835  17.037  0.2292  0.2083 -0.2136
18854TIP3   OH277976   5.944   1.667  15.850  0.2442 -0.0209  0.8981
18854TIP3    H177977   5.876   1.732  15.869 -0.9648 -0.6406 -1.2371
18854TIP3    H277978   6.003   1.671  15.926 -1.1752  1.8014  1.9252
18855TIP3   OH277979   6.262   5.591   4.782 -0.2848  0.4959 -0.4205
18855TIP3    H177980   6.214   5.545   4.714 -1.9734  1.0174  0.3604
18855TIP3    H277981   6.279   5.525   4.849 -1.7076  0.7165  0.1896
18856TIP3   OH277982   5.559   4.010   4.080  0.2467  0.3028 -0.2408
18856TIP3    H177983   5.636   4.068   4.078 -0.7618  1.6146 -1.3017
18856TIP3    H277984   5.546   3.991   4.173  0.4311  2.0009  0.1463
18857TIP3   OH277985   6.241   6.456   6.083 -0.6842  0.0682  0.7697
18857TIP3    H177986   6.223   6.477   6.175  1.3573 -3.1983  2.0105
18857TIP3    H277987   6.180   6.385   6.063 -0.4122  0.0798 -0.0901
18858TIP3   OH277988   6.469   4.153   5.962 -0.1502  0.2098  0.2033
18858TIP3    H177989   6.508   4.237   5.984  2.7487 -0.9803 -0.2015
18858TIP3    H277990   6.440   4.118   6.047  0.0787  0.9189  0.5791
18859TIP3   OH277991   3.750   0.263  16.885 -0.3206  0.5542  0.3873
18859TIP3    H177992   3.822   0.236  16.829 -0.3142  0.4001  0.4746
18859TIP3    H277993   3.708   0.334  16.836 -1.3209 -0.6699 -0.5762
18860TIP3   OH277994   4.046   1.264  12.365 -0.2824 -0.3321 -0.0767
18860TIP3    H177995   4.122   1.226  12.322  0.5696  2.7197 -1.3815
18860TIP3    H277996   4.074   1.279  12.455  0.6368  0.6599 -0.5202
18861TIP3   OH277997   4.528   4.003  10.801  0.1995  0.2454 -0.0849
18861TIP3    H177998   4.520   4.088  10.757  0.2610  0.2355 -0.1154
18861TIP3    H277999   4.594   4.018  10.869 -0.1360  0.3496  0.2204
18862TIP3   OH278000   3.993   2.067  12.800 -0.3043 -0.1104 -0.5425
18862TIP3    H178001   4.014   2.019  12.880  1.5401  1.5531  0.0123
18862TIP3    H278002   3.964   2.153  12.830 -1.9863 -0.2817 -1.5908
18863TIP3   OH278003   2.825   3.526   2.597  0.1227  0.3259  0.4546
18863TIP3    H178004   2.876   3.472   2.537 -0.1469 -1.0915  1.4593
18863TIP3    H278005   2.808   3.607   2.549 -0.7337 -1.0636 -1.6489
18864TIP3   OH278006   5.702   4.392   5.216  0.1168  0.2339  0.5299
18864TIP3    H178007   5.652   4.387   5.135 -0.4288 -1.3466  0.9441
18864TIP3    H278008   5.786   4.431   5.190 -0.3587  0.5027 -0.6340
18865TIP3   OH278009   6.544   3.992  16.297  0.1362 -0.3538  0.2406
18865TIP3    H178010   6.516   4.083  16.311  0.5113 -0.4220  1.4456
18865TIP3    H278011   6.591   3.968  16.377 -0.3892 -1.7716  0.1506
18866TIP3   OH278012   3.741   5.128  14.258  0.1852 -0.1008 -0.0155
18866TIP3    H178013   3.675   5.194  14.234  1.2863  1.0312  0.0531
18866TIP3    H278014   3.824   5.175  14.256  0.7787 -1.0293  1.8926
18867TIP3   OH278015   2.151   3.134   1.727  0.1603 -0.4122 -0.0668
18867TIP3    H178016   2.143   3.185   1.646 -1.0222 -1.3537 -0.5633
18867TIP3    H278017   2.174   3.046   1.698 -0.7488 -0.8727  0.5759
18868TIP3   OH278018   3.166   1.337  15.220  0.1054  0.3705 -0.6614
18868TIP3    H178019   3.164   1.247  15.188 -1.1249  0.9489 -2.3292
18868TIP3    H278020   3.236   1.379  15.170  0.8600  0.2725  0.3109
18869TIP3   OH278021   5.790   0.674   4.479  0.1637 -0.2922 -0.2224
18869TIP3    H178022   5.871   0.700   4.436 -0.1601  0.3031 -0.4775
18869TIP3    H278023   5.753   0.756   4.513 -0.0234 -0.6385  0.4255
18870TIP3   OH278024   1.557   5.106  15.819  0.1508 -0.6384  0.1967
18870TIP3    H178025   1.610   5.092  15.898  1.8770 -0.7908 -0.9632
18870TIP3    H278026   1.529   5.018  15.794  0.0540 -0.6472  0.3332
18871TIP3   OH278027   3.118   0.467  12.781  0.0273 -0.5151  0.7728
18871TIP3    H178028   3.037   0.455  12.731  0.8500  0.5035 -0.8229
18871TIP3    H278029   3.182   0.495  12.717  1.1268  0.7406  2.3923
18872TIP3   OH278030   0.172   1.342   3.427 -0.0070  0.5393  0.0614
18872TIP3    H178031   0.267   1.349   3.440 -0.0776 -0.6286  1.3279
18872TIP3    H278032   0.135   1.391   3.501 -0.4079  2.1151 -1.1491
18873TIP3   OH278033   5.861   5.240   2.808  0.3980  0.8055 -0.2981
18873TIP3    H178034   5.826   5.296   2.877  0.1147  1.4310 -0.9435
18873TIP3    H278035   5.913   5.299   2.753 -0.6254  0.6188 -1.4884
18874TIP3   OH278036   4.559   3.898  13.773  0.1394 -0.2359  0.3592
18874TIP3    H178037   4.571   3.989  13.798  0.3357 -0.4999  1.2748
18874TIP3    H278038   4.587   3.893  13.682  0.0414  0.6340  0.2825
18875TIP3   OH278039   5.328   5.698   5.833  0.1329  0.0227 -0.2258
18875TIP3    H178040   5.301   5.680   5.923 -0.1638  0.8788 -0.1384
18875TIP3    H278041   5.257   5.750   5.796  0.7375  0.5766 -0.6205
18876TIP3   OH278042   0.437   1.234  14.151  0.1238 -0.4305 -0.6890
18876TIP3    H178043   0.483   1.240  14.235 -1.4939  1.3581  0.1073
18876TIP3    H278044   0.378   1.160  14.161 -0.0272 -0.2555 -0.2566
18877TIP3   OH278045   6.120   1.038  12.660 -0.3571 -0.2454 -0.5518
18877TIP3    H178046   6.199   1.047  12.715 -1.3786  0.9626  0.7823
18877TIP3    H278047   6.149   1.064  12.573  0.2741  2.2867  0.3482
18878TIP3   OH278048   4.639   3.614   5.618  0.0590 -0.4755 -0.1259
18878TIP3    H178049   4.610   3.553   5.550 -0.3089 -0.8280  0.3496
18878TIP3    H278050   4.597   3.583   5.698  0.0261  0.2913  0.1528
18879TIP3   OH278051   6.101   4.267   3.764  0.3402 -0.1357 -0.3342
18879TIP3    H178052   6.123   4.222   3.846 -0.9073  2.1555  1.3123
18879TIP3    H278053   6.010   4.295   3.776 -0.2874 -0.8778 -3.0508
18880TIP3   OH278054   4.383   5.871   4.766  0.3542 -0.1520  0.4852
18880TIP3    H178055   4.328   5.878   4.688  0.5127 -0.0790  0.3814
18880TIP3    H278056   4.340   5.926   4.831  0.9931  0.9274  0.0157
18881TIP3   OH278057   1.242   2.177   5.057  0.4299 -0.2206 -0.4081
18881TIP3    H178058   1.218   2.139   5.141  0.3827  0.9214  0.0990
18881TIP3    H278059   1.186   2.254   5.047  0.6069 -0.2018 -1.3622
18882TIP3   OH278060   5.018   1.703  12.078  0.1869 -0.3035  0.2587
18882TIP3    H178061   4.937   1.740  12.114 -0.5571 -1.6195 -0.0721
18882TIP3    H278062   4.996   1.676  11.990  1.4695  0.9531 -0.4722
18883TIP3   OH278063   5.438   5.366  14.452 -0.1136 -0.3204  0.3850
18883TIP3    H178064   5.414   5.331  14.366 -0.4903 -1.5290  0.9781
18883TIP3    H278065   5.509   5.427  14.433 -1.1248  0.4829 -0.9512
18884TIP3   OH278066   6.187   0.612  14.901 -0.8026  0.4207 -0.5218
18884TIP3    H178067   6.121   0.679  14.887 -1.9989 -0.6204 -0.0041
18884TIP3    H278068   6.175   0.586  14.993 -0.4697 -0.6004 -0.7650
18885TIP3   OH278069   6.346   0.212   4.737 -0.3938 -0.1601 -0.1664
18885TIP3    H178070   6.257   0.243   4.753  0.0223  0.4556  1.0132
18885TIP3    H278071   6.399   0.253   4.805  0.7436 -0.7835 -0.6501
18886TIP3   OH278072   5.297   1.745   1.281 -0.0593  0.5009 -0.1683
18886TIP3    H178073   5.363   1.791   1.333 -1.6527  2.0058  0.5696
18886TIP3    H278074   5.269   1.809   1.216 -1.3530  0.1275  0.0118
18887TIP3   OH278075   2.346   2.839   3.012  0.0939  0.5359 -0.8428
18887TIP3    H178076   2.386   2.774   2.954  0.5882 -0.4189  0.5543
18887TIP3    H278077   2.298   2.788   3.077 -1.5468  1.6288 -1.1632
18888TIP3   OH278078   0.943   1.034  15.940 -0.1588 -0.3589  0.2261
18888TIP3    H178079   0.889   1.011  15.864 -1.4504  1.0463  0.6912
18888TIP3    H278080   1.032   1.007  15.915 -0.8440 -1.4934 -1.0854
18889TIP3   OH278081   6.732   6.218  11.288  0.0409 -0.2294 -0.4884
18889TIP3    H178082   6.818   6.178  11.278 -0.5177 -1.3039 -1.1199
18889TIP3    H278083   6.750   6.308  11.315  1.3212 -0.9409  1.1266
18890TIP3   OH278084   6.205   5.296   0.990  0.2970  0.2054  0.2474
18890TIP3    H178085   6.290   5.254   0.982 -0.3134 -0.9901 -0.0497
18890TIP3    H278086   6.186   5.330   0.902  0.3884  0.3360  0.2773
18891TIP3   OH278087   4.442   2.901   3.409 -0.3284 -0.3269 -0.3825
18891TIP3    H178088   4.404   2.976   3.363  0.1608 -0.8569 -1.6901
18891TIP3    H278089   4.367   2.850   3.438 -0.6524  0.2385 -0.2340
18892TIP3   OH278090   4.239   6.690  12.967  0.0282  1.4126  0.2016
18892TIP3    H178091   4.167   6.699  13.029 -0.0048  1.6895  0.1237
18892TIP3    H278092   4.224   6.760  12.903 -0.4929  0.5285 -0.6569
18893TIP3   OH278093   5.979   0.886   0.374 -0.7667 -0.3513  0.2833
18893TIP3    H178094   6.045   0.851   0.314  0.1274  0.5033  0.7653
18893TIP3    H278095   5.945   0.808   0.419  0.8281 -0.6817  0.9601
18894TIP3   OH278096   0.055   0.048  11.670 -0.0947 -0.5174  0.0665
18894TIP3    H178097   0.140   0.038  11.713  0.5508 -0.1783 -1.0894
18894TIP3    H278098  -0.004   0.077  11.739  0.5574 -1.4491  1.0405
18895TIP3   OH278099   3.133   3.101   3.405 -0.0169  0.0563  0.3019
18895TIP3    H178100   3.072   3.058   3.464  0.7327  0.4292  1.3716
18895TIP3    H278101   3.218   3.096   3.450  0.9687 -1.4489 -1.6653
18896TIP3   OH278102   6.678   4.471   4.083  0.0053 -0.0260 -0.0063
18896TIP3    H178103   6.651   4.404   4.021  0.6911 -0.4148  0.1175
18896TIP3    H278104   6.726   4.424   4.151  0.6262  0.6117  0.0024
18897TIP3   OH278105   6.380   6.090   5.249  0.1759 -0.0465  0.6521
18897TIP3    H178106   6.387   6.120   5.340 -0.6253 -1.3343  1.1501
18897TIP3    H278107   6.454   6.031   5.237  0.9639  1.0499  0.0959
18898TIP3   OH278108   5.331   5.293  12.107  0.3384 -0.2761  0.0267
18898TIP3    H178109   5.273   5.368  12.096  0.7081 -0.4092 -3.4804
18898TIP3    H278110   5.278   5.228  12.153 -0.8626  1.1594  0.7081
18899TIP3   OH278111   6.455   4.766  12.779 -0.0565  0.2168 -0.2184
18899TIP3    H178112   6.511   4.711  12.833  0.5003  1.2806  0.2975
18899TIP3    H278113   6.373   4.718  12.772  0.4742 -0.7450  0.0948
18900TIP3   OH278114   5.968   5.797   2.149 -0.9549  0.1775  0.3188
18900TIP3    H178115   5.995   5.889   2.147 -1.9877  0.4949 -2.7596
18900TIP3    H278116   6.047   5.749   2.124 -1.0691  0.4581 -0.6091
18901TIP3   OH278117   1.350   0.955  17.126  0.3904  0.1833 -0.2278
18901TIP3    H178118   1.344   1.019  17.055  0.3039 -0.7411 -1.0532
18901TIP3    H278119   1.304   0.998  17.199  0.1928  1.0015 -0.8170
18902TIP3   OH278120   0.924   4.070   0.217  0.0191 -0.4250 -0.4725
18902TIP3    H178121   1.017   4.069   0.238  0.0911  0.1888 -0.7390
18902TIP3    H278122   0.900   3.978   0.209  0.4388 -0.6038  0.3068
18903TIP3   OH278123   0.944   2.029   1.774 -0.3407  0.3536 -0.2059
18903TIP3    H178124   1.034   2.004   1.791 -0.2177  1.0722  0.1774
18903TIP3    H278125   0.937   2.028   1.678  0.1958  0.7572 -0.2494
18904TIP3   OH278126   2.034   0.040   0.378 -0.5478  0.5187 -0.7249
18904TIP3    H178127   1.941   0.021   0.374 -0.6348  0.1873  2.0733
18904TIP3    H278128   2.076  -0.035   0.335 -1.3858 -1.4088  1.7218
18905TIP3   OH278129   0.299   3.065   5.047 -0.0206  0.1152 -0.4349
18905TIP3    H178130   0.237   3.092   5.116 -0.8096  0.5780 -1.3196
18905TIP3    H278131   0.244   3.052   4.970  1.1709  1.9868 -1.6401
18906TIP3   OH278132   5.367   3.822  11.732 -0.1562  0.3588 -0.1931
18906TIP3    H178133   5.307   3.872  11.676  1.1132  1.1257 -0.8759
18906TIP3    H278134   5.358   3.732  11.701 -1.6254  0.3071  0.3107
18907TIP3   OH278135   6.274   1.864   0.728 -0.6178 -0.1327  0.6705
18907TIP3    H178136   6.234   1.805   0.663  0.7718  0.9190 -1.1782
18907TIP3    H278137   6.322   1.805   0.787 -0.9259 -1.0107  0.0648
18908TIP3   OH278138   4.160   0.067   0.865 -0.1670 -0.3980 -0.0940
18908TIP3    H178139   4.187   0.157   0.843  1.3260 -0.8209 -0.0209
18908TIP3    H278140   4.220   0.011   0.816  1.2135 -1.3544  2.5777
18909TIP3   OH278141   5.166   4.331  13.100 -0.1270 -0.1487 -0.3183
18909TIP3    H178142   5.198   4.314  13.011 -1.2307 -0.9408 -0.5828
18909TIP3    H278143   5.179   4.425  13.113  0.1010 -0.0420 -1.2969
18910TIP3   OH278144   0.114   3.590   1.728  0.0681 -0.2933 -0.0966
18910TIP3    H178145   0.114   3.672   1.777 -0.0490 -1.4592  1.8879
18910TIP3    H278146   0.206   3.570   1.716  0.0976 -0.0535 -0.2827
18911TIP3   OH278147   6.213   4.593   6.359  0.3458  0.2436  0.0651
18911TIP3    H178148   6.289   4.645   6.383  1.7342 -0.8662 -1.7770
18911TIP3    H278149   6.143   4.657   6.347  1.2941  1.3940  0.5899
18912TIP3   OH278150   0.799   3.340  13.953  0.4608 -0.2074  0.4634
18912TIP3    H178151   0.811   3.312  14.044  2.2047 -2.2513 -0.3490
18912TIP3    H278152   0.869   3.295  13.905 -1.3939 -0.4108 -2.1355
18913TIP3   OH278153   3.360   1.212  14.971  0.4205 -0.0987  0.1600
18913TIP3    H178154   3.364   1.117  14.959 -0.1073  0.1273 -1.9257
18913TIP3    H278155   3.293   1.241  14.910  0.0466  1.5519  1.3105
18914TIP3   OH278156   2.867   4.283  13.108  0.4188 -0.3176  0.0863
18914TIP3    H178157   2.889   4.248  13.022  1.0799 -1.9936  0.9158
18914TIP3    H278158   2.934   4.350  13.125 -0.0304  0.3945 -0.9156
18915TIP3   OH278159   0.543   4.121   4.963  0.2054  0.5237  0.2759
18915TIP3    H178160   0.448   4.108   4.967  0.2381 -1.1054 -2.4457
18915TIP3    H278161   0.556   4.212   4.990 -1.8762  0.0545  3.0120
18916TIP3   OH278162   5.663   3.244   3.798 -0.3094  0.1279 -0.3126
18916TIP3    H178163   5.578   3.249   3.842 -0.6095  0.6746 -0.9522
18916TIP3    H278164   5.720   3.299   3.852 -0.3515 -0.2753  0.1437
18917TIP3   OH278165   4.835   4.909  11.469  0.3528 -0.1451 -0.1612
18917TIP3    H178166   4.925   4.924  11.500 -0.2292  2.3122  0.4450
18917TIP3    H278167   4.782   4.969  11.521 -1.8429 -2.5554  0.4321
18918TIP3   OH278168   6.000   2.891   3.022 -0.0966 -0.1828  0.6063
18918TIP3    H178169   6.073   2.892   2.960  0.3562 -0.4756  1.1324
18918TIP3    H278170   5.924   2.870   2.968 -0.0422  1.6248 -0.1930
18919TIP3   OH278171   0.566   2.044  14.409 -0.3393  0.4825 -0.5490
18919TIP3    H178172   0.638   1.994  14.447 -0.9350  0.0437  0.0107
18919TIP3    H278173   0.608   2.118  14.367  0.2780  1.5416  1.8481
18920TIP3   OH278174   5.580   3.647   2.496 -0.1178  0.1306 -0.2781
18920TIP3    H178175   5.665   3.603   2.495  0.0755  0.5160 -2.1380
18920TIP3    H278176   5.556   3.649   2.588  0.7939 -2.1043  0.0579
18921TIP3   OH278177   5.468   6.609   0.613 -0.1630 -0.0255  0.3356
18921TIP3    H178178   5.417   6.684   0.581  1.1924  0.0166 -1.7881
18921TIP3    H278179   5.456   6.542   0.546 -1.3607 -1.7528  2.2187
18922TIP3   OH278180   6.294   0.352   2.859  0.1617 -0.0901  0.9427
18922TIP3    H178181   6.242   0.399   2.925 -1.8187  1.6385 -1.7450
18922TIP3    H278182   6.342   0.421   2.813 -0.5737 -0.9748 -1.1751
18923TIP3   OH278183   3.617   1.046   5.351 -0.6871  0.0800  0.1189
18923TIP3    H178184   3.704   1.065   5.315 -1.3757  0.1178 -1.5534
18923TIP3    H278185   3.556   1.072   5.282 -2.0878  0.9317  1.6260
18924TIP3   OH278186   4.652   3.374   5.869  0.0785 -0.0442 -1.0322
18924TIP3    H178187   4.660   3.303   5.806  1.5787 -0.0244 -0.8807
18924TIP3    H278188   4.581   3.346   5.928  0.5782 -1.3553 -1.0377
18925TIP3   OH278189   1.269   5.806  13.154  0.3844 -0.3535 -0.4355
18925TIP3    H178190   1.344   5.823  13.097  1.6825  1.9939  1.8583
18925TIP3    H278191   1.238   5.893  13.179 -3.3601 -1.2633 -1.5773
18926TIP3   OH278192   0.845   0.195  15.088  0.4724 -0.4297 -0.2529
18926TIP3    H178193   0.930   0.152  15.086  0.3978 -0.5397 -1.8827
18926TIP3    H278194   0.800   0.163  15.009 -0.6154  0.5285 -0.0378
18927TIP3   OH278195   5.967   0.833  14.886 -0.1084 -0.1720 -0.1292
18927TIP3    H178196   5.951   0.927  14.891  0.5467 -0.0848  0.5304
18927TIP3    H278197   5.902   0.795  14.946 -1.2881 -0.2613 -1.4507
18928TIP3   OH278198   4.333   6.053  14.294 -0.2590  0.0537  0.0080
18928TIP3    H178199   4.310   6.092  14.378 -0.0560  1.2863 -0.4970
18928TIP3    H278200   4.428   6.060  14.290 -0.2855  0.1984 -0.4134
18929TIP3   OH278201   6.547   5.540  16.799 -0.0123  0.5637 -0.7998
18929TIP3    H178202   6.594   5.481  16.741 -1.0477 -1.9590  0.8578
18929TIP3    H278203   6.591   5.531  16.884 -1.3758  0.7109 -0.0604
18930TIP3   OH278204   0.708   1.758   0.078 -0.2882 -0.1907  0.4862
18930TIP3    H178205   0.660   1.696   0.024  1.2812 -0.5223 -0.5778
18930TIP3    H278206   0.792   1.769   0.032 -0.2987  2.2218  0.9906
18931TIP3   OH278207   0.230   5.782   5.477  0.2307  0.8416 -0.0313
18931TIP3    H178208   0.237   5.875   5.494  1.4137  0.6533  0.5674
18931TIP3    H278209   0.310   5.744   5.515  1.2999 -0.0179 -3.0200
18932TIP3   OH278210   0.050   0.713  14.195 -0.4930  0.2069  0.0395
18932TIP3    H178211   0.074   0.631  14.151 -2.8422 -0.7270  0.3661
18932TIP3    H278212   0.117   0.725  14.262  0.8358 -0.5241 -1.1248
18933TIP3   OH278213   2.241   4.158   3.703  0.6622  0.3178  0.1486
18933TIP3    H178214   2.258   4.068   3.675 -2.0121  0.0449 -0.7274
18933TIP3    H278215   2.180   4.149   3.776 -1.5624  1.4627 -1.5014
18934TIP3   OH278216   4.819   1.798  11.372  0.1340  0.7452 -0.1554
18934TIP3    H178217   4.743   1.848  11.402  0.6721  2.0288 -0.8982
18934TIP3    H278218   4.818   1.807  11.277  1.4230  1.0842 -0.1460
18935TIP3   OH278219   4.913   2.328  13.187  0.1161  0.1939 -0.3660
18935TIP3    H178220   4.934   2.408  13.138  0.8517 -0.2502 -0.7692
18935TIP3    H278221   4.850   2.282  13.132  0.8221 -0.2269 -0.8305
18936TIP3   OH278222   6.316   1.800  16.128  0.5531 -0.5469  0.1721
18936TIP3    H178223   6.350   1.866  16.068 -0.4863 -0.2072 -0.0407
18936TIP3    H278224   6.258   1.848  16.187 -1.8246 -1.5743 -1.2483
18937TIP3   OH278225   5.919   0.328   6.369 -0.1372 -0.0530  0.0962
18937TIP3    H178226   5.830   0.353   6.345  0.5846  1.9910 -0.5271
18937TIP3    H278227   5.943   0.388   6.439  0.6300 -0.8369  0.5207
18938TIP3   OH278228   1.666   2.367  15.654  0.4020  0.3692  0.0334
18938TIP3    H178229   1.760   2.373  15.637  0.4625 -0.8182 -0.0853
18938TIP3    H278230   1.642   2.278  15.629 -0.6072  0.4040  0.8112
18939TIP3   OH278231   2.508   3.461   3.761  0.1277 -0.0776  0.0520
18939TIP3    H178232   2.571   3.399   3.724  1.9777  1.7101  0.1764
18939TIP3    H278233   2.525   3.460   3.855 -2.4072 -2.1858  0.5573
18940TIP3   OH278234   6.097   6.454  11.966  0.6417  0.3626 -0.0680
18940TIP3    H178235   6.099   6.491  12.054  0.7798 -1.8006  0.8644
18940TIP3    H278236   6.189   6.449  11.939  0.5129  2.5135 -1.0076
18941TIP3   OH278237   3.171   3.179  12.583 -0.3417  0.3853 -0.6157
18941TIP3    H178238   3.227   3.140  12.516 -1.5939 -0.7026 -1.0743
18941TIP3    H278239   3.161   3.270  12.555  1.2916  0.6236 -0.4466
18942TIP3   OH278240   2.288   1.764   5.391  0.8131 -0.0429 -0.2517
18942TIP3    H178241   2.212   1.798   5.342  0.0279  0.3104  1.1857
18942TIP3    H278242   2.261   1.678   5.420  1.0600 -0.0126  0.0621
18943TIP3   OH278243   3.687   6.075   2.403 -0.0797  0.5578 -0.7083
18943TIP3    H178244   3.650   6.159   2.378 -1.6494 -0.2300 -1.0507
18943TIP3    H278245   3.755   6.058   2.338  0.5603  1.7508 -0.3781
18944TIP3   OH278246   3.655   4.024  14.837  0.2340  0.4818  0.3071
18944TIP3    H178247   3.734   4.051  14.789  0.2643 -0.1727 -0.0132
18944TIP3    H278248   3.670   4.055  14.926  0.4137  1.2381  0.0190
18945TIP3   OH278249   5.391   6.466  15.753 -0.3713 -0.4918  0.3523
18945TIP3    H178250   5.483   6.465  15.725 -0.0601 -1.2633  1.3925
18945TIP3    H278251   5.358   6.551  15.724  0.4796 -0.4978 -0.6498
18946TIP3   OH278252   2.937   1.661   2.422  0.6309 -0.2945  0.4694
18946TIP3    H178253   2.992   1.719   2.370  0.8119  0.2005  1.2007
18946TIP3    H278254   2.928   1.705   2.506 -2.9065  0.8189 -0.4099
18947TIP3   OH278255   2.405   0.460  12.649  0.4721  0.1635 -0.2633
18947TIP3    H178256   2.376   0.551  12.656 -1.0450 -0.4192  1.5126
18947TIP3    H278257   2.328   0.412  12.617  0.3107 -0.9342  1.6716
18948TIP3   OH278258   3.396   1.077  13.846 -0.2321 -0.3646 -0.1220
18948TIP3    H178259   3.329   1.105  13.909  0.0404  1.6945 -0.7316
18948TIP3    H278260   3.479   1.101  13.887  0.0358 -0.8027 -0.4071
18949TIP3   OH278261   0.211   3.447  17.221  0.0431  0.0735  0.2818
18949TIP3    H178262   0.147   3.377  17.208  0.0537 -0.4631  2.8316
18949TIP3    H278263   0.175   3.522  17.173 -1.4710 -0.7987  0.0273
18950TIP3   OH278264   6.262   5.987   5.527  0.2761 -0.2375 -0.1837
18950TIP3    H178265   6.345   5.942   5.510 -0.0533 -1.3791  1.1020
18950TIP3    H278266   6.240   5.962   5.617 -1.6854 -0.3305 -0.6691
18951TIP3   OH278267   4.603   1.778   4.952 -0.6054 -0.3946 -0.1653
18951TIP3    H178268   4.542   1.751   5.020 -0.4641 -0.1405  0.0651
18951TIP3    H278269   4.642   1.859   4.986  1.6695 -1.8598  0.7920
18952TIP3   OH278270   3.061   1.745   4.226 -0.5377 -0.0082  0.2856
18952TIP3    H178271   3.139   1.697   4.200  0.7192  0.7654  2.4495
18952TIP3    H278272   2.995   1.678   4.241  0.1358 -0.7870 -0.2087
18953TIP3   OH278273   0.359   2.476   2.747  0.0965 -0.1290  0.1607
18953TIP3    H178274   0.446   2.453   2.715  0.3098  0.4388  0.3287
18953TIP3    H278275   0.310   2.499   2.668 -0.1859 -1.3673 -0.0302
18954TIP3   OH278276   0.932   4.985  16.833 -0.5973  0.1283  0.0901
18954TIP3    H178277   0.901   4.922  16.767  1.1348 -2.6716  1.8285
18954TIP3    H278278   0.898   4.950  16.916  0.6293  1.3483  1.1132
18955TIP3   OH278279   1.653   6.170   1.855  0.0044  0.4003 -0.9224
18955TIP3    H178280   1.603   6.237   1.809 -2.1049 -1.3810 -1.3138
18955TIP3    H278281   1.592   6.134   1.919  1.5682 -0.1235  0.3142
18956TIP3   OH278282   0.538   0.843   5.360 -0.5332 -0.4510 -0.0010
18956TIP3    H178283   0.484   0.899   5.304 -1.5694 -0.5483  0.8980
18956TIP3    H278284   0.504   0.857   5.448 -0.4918 -2.1597  0.3005
18957TIP3   OH278285   5.527   4.129  14.318  0.3333 -0.0206  0.2983
18957TIP3    H178286   5.557   4.157  14.405 -1.5015 -1.2965  1.3611
18957TIP3    H278287   5.603   4.086  14.279  1.4190  1.2695  0.9325
18958TIP3   OH278288   6.043   0.008  14.740  0.1055 -0.0456 -0.0902
18958TIP3    H178289   6.076   0.005  14.651 -2.6423  1.3075 -1.2158
18958TIP3    H278290   6.013  -0.081  14.758  1.8407 -0.6403  0.0011
18959TIP3   OH278291   3.933   3.956  17.152 -0.8616 -0.2439  0.3693
18959TIP3    H178292   3.902   3.866  17.159 -2.7155  0.3245 -0.2058
18959TIP3    H278293   3.853   4.008  17.142  0.2818  1.3038 -0.9638
18960TIP3   OH278294   0.233   1.001  14.766 -0.2396 -0.3207 -0.5482
18960TIP3    H178295   0.177   0.973  14.838 -0.8718  0.4790 -0.7294
18960TIP3    H278296   0.213   1.094  14.754  0.1580 -0.3503 -1.4860
18961TIP3   OH278297   2.920   3.137   0.873 -0.9219  0.3853 -0.3741
18961TIP3    H178298   2.967   3.083   0.810 -0.3531  1.1893 -0.6535
18961TIP3    H278299   2.867   3.076   0.924 -0.8844 -0.3375 -1.2041
18962TIP3   OH278300   3.522   6.157   2.669 -0.4416  0.4356  0.8961
18962TIP3    H178301   3.526   6.245   2.706  0.8924  0.6023  0.4107
18962TIP3    H278302   3.511   6.172   2.575  1.5421  0.1287  0.6001
18963TIP3   OH278303   4.706   4.663   5.272 -0.0618 -0.2538 -0.4407
18963TIP3    H178304   4.705   4.691   5.180 -2.3656 -1.1665 -0.7135
18963TIP3    H278305   4.686   4.570   5.270  0.8932 -0.5124  0.9449
18964TIP3   OH278306   4.670   2.272   5.957  0.9675  0.3859  0.5575
18964TIP3    H178307   4.645   2.355   5.916  1.8698 -0.1894 -1.2478
18964TIP3    H278308   4.682   2.293   6.049  0.6229  2.1369  0.2239
18965TIP3   OH278309   2.864   5.783  11.561 -0.1933  0.4658  0.2830
18965TIP3    H178310   2.817   5.861  11.593 -0.3901  0.3509  0.2748
18965TIP3    H278311   2.833   5.712  11.617  0.2639  0.4619  0.5280
18966TIP3   OH278312   3.863   3.691   1.312  0.3346 -0.5156 -0.3044
18966TIP3    H178313   3.888   3.651   1.395  0.3045  0.6790  0.2997
18966TIP3    H278314   3.827   3.777   1.337 -2.4170 -1.3047 -1.2787
18967TIP3   OH278315   6.410   0.297  11.690 -0.2127  0.2316  0.0345
18967TIP3    H178316   6.458   0.378  11.670  3.6833 -2.1238 -0.5303
18967TIP3    H278317   6.374   0.269  11.606  0.0663  0.3632 -0.1306
18968TIP3   OH278318   3.451   4.510   2.416 -0.4799 -0.1137  0.5394
18968TIP3    H178319   3.408   4.425   2.425 -0.1858 -0.1222  1.9181
18968TIP3    H278320   3.450   4.527   2.322  0.4582 -2.1747  0.1274
18969TIP3   OH278321   0.090   5.130   0.727 -0.4356 -0.1081 -0.3967
18969TIP3    H178322   0.050   5.043   0.716 -0.2812 -0.2091 -0.1644
18969TIP3    H278323   0.024   5.191   0.692 -0.8560 -0.2585  0.1256
18970TIP3   OH278324   3.992   5.540  11.641 -0.3743  0.3537  0.1852
18970TIP3    H178325   4.025   5.522  11.553  1.1760  2.0473  0.3919
18970TIP3    H278326   3.954   5.628  11.635 -2.5086 -0.5002  0.6167
18971TIP3   OH278327   3.537   4.643   3.886 -0.2732  0.8288 -0.4711
18971TIP3    H178328   3.608   4.692   3.845  0.4902 -0.0661 -0.2386
18971TIP3    H278329   3.464   4.651   3.825  0.3314  0.9319 -1.1862
18972TIP3   OH278330   0.947   2.848   1.538  0.2435  0.3825  0.6410
18972TIP3    H178331   0.872   2.863   1.481 -0.0630  1.1250  1.2323
18972TIP3    H278332   0.994   2.931   1.539  0.7764  0.0860  0.7172
18973TIP3   OH278333   0.690   5.302  14.117  0.0484  0.1409 -0.0882
18973TIP3    H178334   0.662   5.273  14.204  0.9567 -0.2232  0.0873
18973TIP3    H278335   0.713   5.221  14.071 -0.8237  0.2925 -0.8189
18974TIP3   OH278336   0.012   0.278  15.108  0.8181  0.5237 -0.1056
18974TIP3    H178337   0.016   0.201  15.165 -1.7307 -0.9381 -1.7612
18974TIP3    H278338  -0.082   0.296  15.100  1.2329  1.7815 -2.3791
18975TIP3   OH278339   0.236   6.528  12.275 -0.0725 -0.3673 -0.1813
18975TIP3    H178340   0.244   6.461  12.343  0.8103  0.7233  0.8219
18975TIP3    H278341   0.319   6.576  12.279 -0.6638  0.7341 -0.9196
18976TIP3   OH278342   4.802   6.177  14.964 -0.0022  0.8626  0.2248
18976TIP3    H178343   4.733   6.182  15.030  0.2443  0.5674  0.5147
18976TIP3    H278344   4.883   6.192  15.014  0.1152  1.5512 -0.1682
18977TIP3   OH278345   4.091   2.600  13.444  0.2385  0.8544 -0.1010
18977TIP3    H178346   4.080   2.630  13.353 -0.0173  0.9236 -0.0479
18977TIP3    H278347   4.001   2.583  13.474  0.3928 -0.1558 -0.1905
18978TIP3   OH278348   5.975   1.052   1.221  0.3062  0.1526  0.3503
18978TIP3    H178349   5.918   1.021   1.151  0.9973 -0.9752  0.2775
18978TIP3    H278350   5.961   0.989   1.293  2.0338 -0.6032  0.0458
18979TIP3   OH278351   2.176   1.531   4.215  0.0862 -0.5659  0.0251
18979TIP3    H178352   2.259   1.579   4.215 -0.2932  0.1020  0.6408
18979TIP3    H278353   2.194   1.452   4.164  1.1623 -0.5312  0.3351
18980TIP3   OH278354   3.885   5.697   0.878 -0.3404  0.2510 -0.1358
18980TIP3    H178355   3.857   5.656   0.796 -1.4567 -0.3377  0.5212
18980TIP3    H278356   3.819   5.763   0.896 -1.5712 -1.3683  1.6041
18981TIP3   OH278357   2.589   4.926  12.316  1.1857 -0.3516  0.1086
18981TIP3    H178358   2.584   5.022  12.309 -3.3345 -0.3278  1.5595
18981TIP3    H278359   2.549   4.894  12.235  0.6600 -0.9424  0.5936
18982TIP3   OH278360   2.459   2.284   4.373 -0.1241 -0.3223 -0.3218
18982TIP3    H178361   2.513   2.296   4.451 -0.1049 -0.0188 -0.3831
18982TIP3    H278362   2.369   2.290   4.406 -0.1941 -3.5190  0.2403
18983TIP3   OH278363   5.277   2.551  10.852 -0.6054 -0.0295  0.1097
18983TIP3    H178364   5.199   2.559  10.907 -0.9712 -1.1207 -0.2367
18983TIP3    H278365   5.245   2.511  10.772  0.1245  0.5555 -0.4782
18984TIP3   OH278366   2.834   1.891   4.390 -0.2006 -0.1357  0.3231
18984TIP3    H178367   2.910   1.870   4.444 -0.6170 -0.9390  0.6047
18984TIP3    H278368   2.858   1.973   4.346  0.7562 -0.2952  0.5319
18985TIP3   OH278369   3.066   0.509  11.365 -0.2658 -0.4149 -0.0513
18985TIP3    H178370   3.058   0.416  11.345  1.8592 -0.6282 -0.1123
18985TIP3    H278371   3.116   0.544  11.291  2.6969 -0.0901  2.0208
18986TIP3   OH278372   5.312   2.857  11.337  0.2755  0.4575  0.6423
18986TIP3    H178373   5.271   2.810  11.264  1.8148 -1.2119  0.8182
18986TIP3    H278374   5.310   2.949  11.310 -1.6160  0.1807 -0.2918
18987TIP3   OH278375   0.061   3.503   2.782 -0.1506 -0.0265 -0.0632
18987TIP3    H178376   0.103   3.452   2.712  1.5755  1.1069  0.1167
18987TIP3    H278377   0.028   3.581   2.738  1.0283  0.7395  0.3622
18988TIP3   OH278378   5.650   4.094  11.863 -0.4528  0.6996  0.1727
18988TIP3    H178379   5.637   4.154  11.789 -2.9923  2.4827  1.9780
18988TIP3    H278380   5.638   4.149  11.940 -0.3205 -1.6583  1.9144
18989TIP3   OH278381   1.421   1.423  14.781  0.1754 -0.2405 -0.6347
18989TIP3    H178382   1.448   1.362  14.850  0.1190 -2.5483 -2.5988
18989TIP3    H278383   1.502   1.446  14.736  0.0083 -0.0155 -0.8217
18990TIP3   OH278384   3.124   4.694  14.045 -0.6088  0.0439 -0.4324
18990TIP3    H178385   3.142   4.612  14.090  1.6237  0.3830 -0.6671
18990TIP3    H278386   3.159   4.762  14.102 -1.3024  0.7507 -0.8317
18991TIP3   OH278387   6.040   6.771  11.731 -0.6568 -0.0053 -0.1833
18991TIP3    H178388   5.981   6.728  11.793 -0.3075 -0.2191 -0.0000
18991TIP3    H278389   6.011   6.863  11.730 -0.9136 -0.0850 -0.0050
18992TIP3   OH278390   5.588   5.565   0.190  0.6996  0.1852 -0.1282
18992TIP3    H178391   5.612   5.493   0.131  1.7062 -0.0947  0.6100
18992TIP3    H278392   5.523   5.527   0.249 -1.7123  0.9747 -2.2011
18993TIP3   OH278393   0.837   0.346  16.820 -0.6668 -0.2673 -0.1141
18993TIP3    H178394   0.888   0.401  16.879 -2.1224  1.5713 -0.5040
18993TIP3    H278395   0.898   0.320  16.751  0.4268 -0.4324  0.9095
18994TIP3   OH278396   0.691   4.691  10.781  0.2227  0.8151  0.1969
18994TIP3    H178397   0.653   4.603  10.767 -0.4189  0.8276  1.7409
18994TIP3    H278398   0.724   4.716  10.695 -2.6692  0.4892 -1.1011
18995TIP3   OH278399   2.449   3.787   5.846 -0.4787  0.0522 -0.1115
18995TIP3    H178400   2.404   3.767   5.928 -1.8172  0.5369 -0.7099
18995TIP3    H278401   2.502   3.864   5.865 -0.1394 -0.3363  0.5234
18996TIP3   OH278402   0.712   1.079  13.047  0.1254 -0.1265  0.2797
18996TIP3    H178403   0.716   0.988  13.076  2.5963 -0.2924 -0.5251
18996TIP3    H278404   0.695   1.073  12.953  2.3317  0.1687 -0.1625
18997TIP3   OH278405   2.237   6.359   4.451  0.3829 -0.1666  0.0620
18997TIP3    H178406   2.301   6.321   4.511 -0.8436  0.1999  1.6637
18997TIP3    H278407   2.241   6.453   4.469 -1.2045 -0.2270  0.8316
18998TIP3   OH278408   5.977   4.812  15.282  0.1474  0.4473  0.9061
18998TIP3    H178409   5.909   4.823  15.348  0.7266  1.2271  1.3818
18998TIP3    H278410   5.939   4.848  15.202 -0.2496  0.2704  1.0169
18999TIP3   OH278411   4.249   4.290   2.855  0.5897 -0.1180  0.2008
18999TIP3    H178412   4.198   4.310   2.777  1.9526 -1.1362 -0.9902
18999TIP3    H278413   4.207   4.212   2.892  1.0027 -0.7099 -0.5498
19000TIP3   OH278414   3.034   5.743   0.594 -0.2894 -0.1873  0.0960
19000TIP3    H178415   3.033   5.819   0.652 -0.5010  1.4402 -1.9893
19000TIP3    H278416   3.126   5.732   0.570  0.0225 -1.8294  1.9389
19001TIP3   OH278417   0.801   0.880   5.730 -0.1849 -0.0621 -0.0778
19001TIP3    H178418   0.803   0.930   5.812 -2.1876 -0.4674  0.2576
19001TIP3    H278419   0.834   0.941   5.664 -0.0056  0.7883  0.7787
19002TIP3   OH278420   3.952   0.440  15.595 -0.0437  0.4164 -0.6205
19002TIP3    H178421   3.984   0.440  15.686  1.5703  0.1867 -1.1829
19002TIP3    H278422   3.857   0.445  15.604  0.0295 -0.8224  1.1235
19003TIP3   OH278423   5.449   3.606   5.414 -0.8050 -0.0699 -0.2155
19003TIP3    H178424   5.537   3.575   5.393 -0.3146  0.0692  1.5413
19003TIP3    H278425   5.434   3.678   5.353  0.7159  0.5841  0.1686
19004TIP3   OH278426   0.744   1.682  14.729  0.1462 -0.0948 -0.0392
19004TIP3    H178427   0.784   1.626  14.795  0.1617  1.0448  0.9538
19004TIP3    H278428   0.660   1.708  14.767  0.1722  0.6039 -0.4438
19005TIP3   OH278429   2.105   6.413  11.279 -0.1564 -0.1016 -0.4375
19005TIP3    H178430   2.197   6.432  11.261 -0.0310  0.8023  1.1329
19005TIP3    H278431   2.060   6.498  11.270 -0.8278 -0.5127 -1.0856
19006TIP3   OH278432   0.533   2.850   3.494 -0.1334  0.1139  0.6907
19006TIP3    H178433   0.508   2.939   3.470  0.2458 -0.1462 -0.7438
19006TIP3    H278434   0.627   2.856   3.514  0.2037 -0.2012 -0.7346
19007TIP3   OH278435   6.170   2.479  16.128 -0.2228 -0.3344 -0.5870
19007TIP3    H178436   6.185   2.554  16.071  2.8849  0.2640  0.9329
19007TIP3    H278437   6.232   2.412  16.097 -0.7595 -1.1534  0.0722
19008TIP3   OH278438   2.585   0.725   5.756 -1.0843 -0.4729 -0.6087
19008TIP3    H178439   2.678   0.708   5.738 -0.8440 -1.7019  1.6157
19008TIP3    H278440   2.538   0.675   5.689 -0.1925 -2.8818  0.5036
19009TIP3   OH278441   0.406   5.941  13.780  0.2304 -0.0787  0.0448
19009TIP3    H178442   0.330   5.929  13.835  0.3895 -1.7680 -0.0850
19009TIP3    H278443   0.466   5.870  13.805 -0.0528 -1.4046 -2.8568
19010TIP3   OH278444   4.382   1.084   6.321 -0.3688 -0.1829  0.3650
19010TIP3    H178445   4.392   1.019   6.390  5.0393  0.2273  0.1506
19010TIP3    H278446   4.345   1.160   6.365 -1.8423 -1.6226  1.6735
19011TIP3   OH278447   5.160   1.241  14.671  0.2713 -0.3643 -0.2186
19011TIP3    H178448   5.237   1.190  14.693  2.4872  1.4372 -3.3822
19011TIP3    H278449   5.166   1.319  14.726  0.7670 -0.1921 -0.5138
19012TIP3   OH278450   3.427   6.632   6.234  0.0054 -0.3487  0.3275
19012TIP3    H178451   3.367   6.557   6.244  1.3929 -1.7264 -1.4228
19012TIP3    H278452   3.510   6.601   6.269  0.9948 -0.1651 -1.8272
19013TIP3   OH278453   0.923   2.248   2.766 -0.2632 -0.2848 -0.0758
19013TIP3    H178454   0.849   2.187   2.772  0.4586 -1.2751 -1.0603
19013TIP3    H278455   0.939   2.276   2.856 -0.1283 -2.1121  0.4854
19014TIP3   OH278456   0.867   2.609   0.871  0.0045 -0.2336 -0.4968
19014TIP3    H178457   0.863   2.520   0.837  2.9087 -0.2185 -0.9461
19014TIP3    H278458   0.954   2.617   0.908 -0.1934  2.4513 -0.5147
19015TIP3   OH278459   2.067   6.724   3.897 -0.3121 -0.1347 -0.0793
19015TIP3    H178460   2.142   6.776   3.871  0.5858 -0.9908  0.7796
19015TIP3    H278461   2.052   6.747   3.988 -2.9867  2.2965 -1.0558
19016TIP3   OH278462   0.670   3.087  13.432  0.2445 -0.2537  0.1016
19016TIP3    H178463   0.605   3.017  13.430 -0.5529  0.5075 -0.7031
19016TIP3    H278464   0.641   3.145  13.503  0.9600 -0.7696  0.8354
19017TIP3   OH278465   4.120   5.854  13.213 -0.7542  0.0641  0.6241
19017TIP3    H178466   4.130   5.945  13.185 -1.5286 -0.3383 -0.9464
19017TIP3    H278467   4.209   5.828  13.240  0.3302 -0.0140 -2.8561
19018TIP3   OH278468   2.921   2.254  13.512  0.2962 -0.6229  0.0123
19018TIP3    H178469   2.845   2.294  13.469 -0.1225  1.6079  2.6756
19018TIP3    H278470   2.905   2.160  13.506 -0.4503 -0.3685 -3.3173
19019TIP3   OH278471   0.503   0.256  15.113  0.8352  0.3462  0.2237
19019TIP3    H178472   0.520   0.255  15.018 -0.4589  1.5186 -0.0321
19019TIP3    H278473   0.488   0.348  15.134 -1.0124 -0.1500  1.1772
19020TIP3   OH278474   1.316   0.602  14.240  0.8031  0.2113  0.2397
19020TIP3    H178475   1.343   0.685  14.199 -1.0018  0.8813  0.3498
19020TIP3    H278476   1.222   0.597  14.223  0.7081 -1.2964  1.1714
19021TIP3   OH278477   2.059   0.697  11.514  0.2918 -0.5041  0.3377
19021TIP3    H178478   2.010   0.640  11.573 -1.8395  1.6833  0.7451
19021TIP3    H278479   2.029   0.786  11.535  2.0743  0.6234 -1.6388
19022TIP3   OH278480   0.941   0.596   0.762 -0.2312 -0.3076 -0.1996
19022TIP3    H178481   0.875   0.581   0.694 -0.9106 -1.1784  0.6386
19022TIP3    H278482   0.981   0.680   0.739 -0.3584 -0.6594 -1.7512
19023TIP3   OH278483   2.375   5.609  12.298  0.0996 -0.4478 -0.1532
19023TIP3    H178484   2.284   5.594  12.269  0.0773 -0.2890 -0.1674
19023TIP3    H278485   2.372   5.598  12.393  0.1411 -0.8136 -0.1919
19024TIP3   OH278486   4.986   5.364  14.560 -0.0643 -0.1344  0.1242
19024TIP3    H178487   4.970   5.441  14.506  1.5046  0.2136  0.1283
19024TIP3    H278488   5.025   5.399  14.641 -0.2834 -0.8402  0.5391
19025TIP3   OH278489   5.669   2.575   4.801  0.2525 -0.3792  0.0430
19025TIP3    H178490   5.749   2.573   4.854 -0.1816  1.3058  0.7741
19025TIP3    H278491   5.598   2.585   4.864 -0.6223 -2.5102 -0.5592
19026TIP3   OH278492   0.443   1.629   4.290  0.2337  0.4368  0.0936
19026TIP3    H178493   0.441   1.708   4.236  1.0823  0.1651 -0.3401
19026TIP3    H278494   0.483   1.658   4.373 -0.1670  0.6346  0.2174
19027TIP3   OH278495   0.800   2.358   2.427 -0.4166  0.7254  0.1731
19027TIP3    H178496   0.877   2.381   2.479 -0.1924  1.8758 -0.6353
19027TIP3    H278497   0.779   2.269   2.453  0.3502  0.8949  1.4220
19028TIP3   OH278498   2.897   5.420   3.356  0.2212  0.3616  0.3422
19028TIP3    H178499   2.968   5.366   3.390  0.2611  1.0469  1.3832
19028TIP3    H278500   2.817   5.378   3.388  0.2130  0.4021  0.3741
19029TIP3   OH278501   3.455   1.424  13.997  0.2297 -0.1561 -0.4267
19029TIP3    H178502   3.379   1.374  14.026  0.2770 -0.0228 -0.0707
19029TIP3    H278503   3.423   1.478  13.925  0.9411 -3.2630 -3.2217
19030TIP3   OH278504   2.323   5.546   5.710  0.8154  0.1987 -0.1901
19030TIP3    H178505   2.295   5.487   5.639  1.3883  1.3205 -1.3593
19030TIP3    H278506   2.320   5.491   5.789 -1.0258 -0.7305 -0.8703
19031TIP3   OH278507   4.644   3.044   3.547  0.2436  0.0001  0.1841
19031TIP3    H178508   4.585   3.003   3.483 -0.5890  1.0151  0.2843
19031TIP3    H278509   4.646   2.982   3.620  1.1064 -1.1143 -0.7558
19032TIP3   OH278510   5.756   4.821   4.278  0.0952  0.0224  0.3699
19032TIP3    H178511   5.802   4.904   4.284  0.8991 -0.2412 -1.5250
19032TIP3    H278512   5.826   4.755   4.285 -0.0877 -0.4000 -1.4126
19033TIP3   OH278513   3.243   5.049  10.925 -0.0147 -0.0114  0.0563
19033TIP3    H178514   3.156   5.075  10.895 -0.2851 -0.5280  0.3757
19033TIP3    H278515   3.303   5.101  10.872 -0.5501  2.7143  2.0245
19034TIP3   OH278516   4.848   2.393   0.167 -0.2845  0.3177 -0.0529
19034TIP3    H178517   4.867   2.402   0.074 -0.7250  0.5434 -0.1233
19034TIP3    H278518   4.754   2.406   0.174 -0.1547  1.0300  0.5142
19035TIP3   OH278519   3.108   2.753   5.432 -0.2204  0.1004  0.1838
19035TIP3    H178520   3.083   2.757   5.340  1.5277 -2.2886 -0.4437
19035TIP3    H278521   3.027   2.733   5.478 -0.6759 -1.1318 -1.1245
19036TIP3   OH278522   4.612   6.664   4.988 -0.2468  0.6662  0.0157
19036TIP3    H178523   4.705   6.641   4.986  0.0684  1.9419 -1.8140
19036TIP3    H278524   4.610   6.755   4.957 -2.1986  0.2712 -1.0976
19037TIP3   OH278525   4.009   0.402  14.885 -0.1661 -0.7613  0.4999
19037TIP3    H178526   4.079   0.456  14.850 -0.7833  1.3321  2.4031
19037TIP3    H278527   3.936   0.412  14.823 -0.2130  0.4712  0.7441
19038TIP3   OH278528   1.873   5.251   2.515 -0.0477  0.2695 -0.3622
19038TIP3    H178529   1.874   5.186   2.445 -0.8806 -0.4228  0.2543
19038TIP3    H278530   1.861   5.335   2.470  0.1327 -0.0945 -1.0917
19039TIP3   OH278531   3.514   5.723  11.351 -0.4907 -0.8348 -0.2027
19039TIP3    H178532   3.462   5.768  11.418  0.2166  0.3980 -0.4655
19039TIP3    H278533   3.491   5.767  11.270  0.5091 -0.6864 -0.4109
19040TIP3   OH278534   0.549   0.556   0.915 -0.5993 -0.2600  0.5335
19040TIP3    H178535   0.606   0.498   0.863  0.8385  1.6707 -0.0848
19040TIP3    H278536   0.586   0.554   1.003 -0.7466 -0.5191  0.5912
19041TIP3   OH278537   2.161   6.344  17.034  0.0438 -0.6391 -0.0868
19041TIP3    H178538   2.117   6.298  16.963  2.3185 -0.4539 -1.6790
19041TIP3    H278539   2.185   6.428  16.997 -0.5586  0.2871  1.5652
19042TIP3   OH278540   2.363   0.354   6.149 -0.2294  0.4648 -0.1290
19042TIP3    H178541   2.270   0.368   6.132 -0.1838  0.1219 -0.6662
19042TIP3    H278542   2.372   0.365   6.244 -0.9714 -0.3548  0.0478
19043TIP3   OH278543   6.555   0.055  13.277 -0.4014 -0.0366  0.1166
19043TIP3    H178544   6.592  -0.015  13.331  2.0284 -0.5252 -2.1022
19043TIP3    H278545   6.473   0.019  13.245 -0.1168 -1.1182  0.5591
19044TIP3   OH278546   2.869   0.073  12.931  0.2715  0.1897  0.5491
19044TIP3    H178547   2.903   0.005  12.989  2.1559 -0.3175 -1.0841
19044TIP3    H278548   2.931   0.145  12.940  0.0155  0.4931 -0.0724
19045TIP3   OH278549   3.437   4.246   5.205 -0.5780 -0.0114  0.2607
19045TIP3    H178550   3.388   4.205   5.276 -0.9082  0.8661  0.5405
19045TIP3    H278551   3.495   4.177   5.174 -1.3169 -0.7753  0.5519
19046TIP3   OH278552   3.495   1.132  16.996  0.1322 -0.1530 -0.3064
19046TIP3    H178553   3.486   1.036  17.000  0.5054 -0.2917 -2.4352
19046TIP3    H278554   3.419   1.161  16.946 -0.1116  0.7052  0.5488
19047TIP3   OH278555   1.418   2.745  11.807  0.7898  0.5153  0.3154
19047TIP3    H178556   1.328   2.720  11.783  1.2840  0.9513 -2.1707
19047TIP3    H278557   1.419   2.743  11.902 -1.4497 -0.9949  0.3546
19048TIP3   OH278558   3.230   1.966  15.961 -0.5501 -0.4827  0.0517
19048TIP3    H178559   3.288   1.891  15.952 -1.0535 -0.6975 -1.4689
19048TIP3    H278560   3.142   1.931  15.945 -0.7921  0.4099 -0.6228
19049TIP3   OH278561   1.096   6.227  16.080 -0.2339 -0.4269 -0.3612
19049TIP3    H178562   1.081   6.142  16.121 -0.2969 -0.0664  0.3714
19049TIP3    H278563   1.018   6.243  16.027 -1.3312  0.2594  1.3932
19050TIP3   OH278564   0.351   0.248  14.733 -0.4540 -0.1825 -0.2335
19050TIP3    H178565   0.327   0.311  14.801  1.9835  0.6389 -0.0671
19050TIP3    H278566   0.447   0.248  14.734 -0.4189 -3.0583 -1.0338
19051TIP3   OH278567   2.613   2.737  14.349  0.8352 -0.1566  0.0974
19051TIP3    H178568   2.599   2.828  14.325  0.9165  0.3661  1.9854
19051TIP3    H278569   2.707   2.731  14.368  1.0912 -0.9624 -1.2734
19052TIP3   OH278570   0.263   1.386   1.310 -0.6716 -0.2099 -0.1301
19052TIP3    H178571   0.301   1.471   1.332 -1.9607 -0.0299  1.4960
19052TIP3    H278572   0.318   1.323   1.357 -0.6241 -0.1578 -0.1156
19053TIP3   OH278573   3.743   4.261   0.672  0.2513 -0.4303 -0.2731
19053TIP3    H178574   3.745   4.169   0.700 -0.5775 -1.0491 -2.1489
19053TIP3    H278575   3.729   4.257   0.578 -1.6818  1.6685 -0.1131
19054TIP3   OH278576   2.953   0.245   0.152  0.1078 -0.3990  0.3609
19054TIP3    H178577   2.903   0.269   0.074  1.0895  0.2837 -0.0699
19054TIP3    H278578   2.952   0.324   0.207  0.1769 -0.5876  0.6353
19055TIP3   OH278579   5.453   1.310  13.337 -0.0508  0.0065  0.0379
19055TIP3    H178580   5.390   1.305  13.409 -2.1706  1.9746 -1.6208
19055TIP3    H278581   5.427   1.240  13.277 -0.8076  0.9240 -0.7270
19056TIP3   OH278582   0.913   0.634   4.253  0.4396 -0.5213 -0.2717
19056TIP3    H178583   0.992   0.648   4.200  0.5735 -0.6832 -0.1176
19056TIP3    H278584   0.938   0.565   4.314  0.4593  0.0178  0.3444
19057TIP3   OH278585   2.224   2.389  16.380 -0.3278  0.1549 -0.0209
19057TIP3    H178586   2.238   2.480  16.355  0.7486  0.1295  0.4922
19057TIP3    H278587   2.129   2.383  16.392 -0.1980  1.7524  2.0324
19058TIP3   OH278588   5.104   3.212  11.388  0.6164  0.7606  0.0498
19058TIP3    H178589   5.163   3.186  11.317  0.0702  0.4385 -0.2912
19058TIP3    H278590   5.140   3.167  11.465 -0.4671 -1.2878 -0.5862
19059TIP3   OH278591   4.005   4.089   4.668  0.0611  0.4993 -0.0170
19059TIP3    H178592   4.091   4.049   4.655 -0.1487  0.4093 -1.1564
19059TIP3    H278593   3.954   4.022   4.715 -0.1024 -0.3711 -1.3873
19060TIP3   OH278594   1.611   4.011  16.408  0.1795 -0.0235 -0.0102
19060TIP3    H178595   1.684   4.034  16.351 -0.0430  0.2317 -0.1932
19060TIP3    H278596   1.624   4.064  16.487 -0.4445  0.8817 -0.5079
19061TIP3   OH278597   5.509   4.686   2.078 -0.2670 -0.0195  0.1435
19061TIP3    H178598   5.434   4.675   2.019  0.4325  1.6557 -1.0937
19061TIP3    H278599   5.582   4.709   2.021  0.9745 -0.6127  1.4470
19062TIP3   OH278600   0.753   3.530  10.907 -0.0707 -0.1592 -0.3435
19062TIP3    H178601   0.724   3.532  10.816 -1.3370 -0.7081  0.0407
19062TIP3    H278602   0.685   3.481  10.953  1.0212 -0.6816  0.7430
19063TIP3   OH278603   0.340   6.516   3.492 -0.4726  0.0654  0.1473
19063TIP3    H178604   0.362   6.514   3.399  0.7054  1.2666  0.3861
19063TIP3    H278605   0.424   6.510   3.537 -0.7164  3.1008  1.0946
19064TIP3   OH278606   2.567   3.752  14.119 -0.5570  0.4883 -0.0778
19064TIP3    H178607   2.520   3.758  14.036 -1.9586  2.0444  0.8068
19064TIP3    H278608   2.499   3.728  14.183  0.3779 -0.0338  0.7288
19065TIP3   OH278609   1.710   1.307   3.927 -0.3989  0.1068 -0.2105
19065TIP3    H178610   1.639   1.364   3.898  0.0752  0.6793 -0.2780
19065TIP3    H278611   1.758   1.360   3.991  0.4890  0.0609 -0.8331
19066TIP3   OH278612   6.749   6.339   0.392  0.0828 -0.1716  0.2140
19066TIP3    H178613   6.774   6.283   0.466  0.1572 -0.3416  0.0598
19066TIP3    H278614   6.746   6.280   0.317  0.3442  0.0659  0.0146
19067TIP3   OH278615   4.503   0.967   5.685 -0.1828  0.5618  0.1075
19067TIP3    H178616   4.503   0.876   5.715  0.0397 -0.1156 -1.8972
19067TIP3    H278617   4.410   0.990   5.679 -0.2800 -0.1226 -1.1029
19068TIP3   OH278618   5.761   3.365  15.211 -0.4180  0.5300  0.8832
19068TIP3    H178619   5.684   3.402  15.169  0.3308  1.2327  0.1115
19068TIP3    H278620   5.727   3.296  15.268 -1.4797 -0.1061 -0.5022
19069TIP3   OH278621   5.963   3.277   2.773  0.2334 -0.2335  0.5647
19069TIP3    H178622   5.991   3.335   2.844  0.8693  0.9776 -0.6590
19069TIP3    H278623   6.044   3.248   2.732 -0.1653 -0.0207 -0.3795
19070TIP3   OH278624   3.755   1.421  16.752  0.2628 -0.4407  0.4841
19070TIP3    H178625   3.849   1.437  16.761  0.4140 -0.4414 -0.9641
19070TIP3    H278626   3.714   1.501  16.785  0.8284  0.2882 -0.5608
19071TIP3   OH278627   2.407   1.478   1.083 -0.0019 -0.4614  0.0733
19071TIP3    H178628   2.482   1.494   1.140 -0.9456  0.2818  1.1276
19071TIP3    H278629   2.435   1.509   0.997  0.3055  1.3990  0.8235
19072TIP3   OH278630   2.560   2.402  12.885  0.3297 -0.2323 -0.8235
19072TIP3    H178631   2.603   2.348  12.951  0.8883 -0.5906 -1.4698
19072TIP3    H278632   2.491   2.346  12.848 -0.5686  0.2722  0.0700
19073TIP3   OH278633   1.698   3.190   5.683 -0.2178 -0.3746 -0.0744
19073TIP3    H178634   1.714   3.140   5.763  4.2186  1.9407  0.6402
19073TIP3    H278635   1.654   3.269   5.712 -0.2048 -0.3468 -0.1289
19074TIP3   OH278636   1.534   2.301  14.974  0.2648 -0.5398 -0.1052
19074TIP3    H178637   1.607   2.324  15.032  1.4772 -0.8974 -1.4430
19074TIP3    H278638   1.554   2.212  14.944 -0.9455 -0.7986 -0.1450
19075TIP3   OH278639   1.077   1.461   5.743  0.3549  0.8239  0.3129
19075TIP3    H178640   1.022   1.532   5.710 -2.0126 -0.2222  1.9094
19075TIP3    H278641   1.076   1.396   5.673 -0.7608  0.6580  0.4694
19076TIP3   OH278642   0.277   1.161  16.824  0.5530 -0.1112 -0.2602
19076TIP3    H178643   0.206   1.152  16.761  0.1634 -1.4087  0.3440
19076TIP3    H278644   0.356   1.165  16.771 -0.0642  3.3483 -1.0578
19077TIP3   OH278645   3.263   4.892   1.739 -0.0554 -0.1854 -0.5479
19077TIP3    H178646   3.337   4.877   1.680 -0.0007  3.4516 -1.5458
19077TIP3    H278647   3.248   4.987   1.736 -1.0968 -0.0413  4.0666
19078TIP3   OH278648   0.867   0.192   2.773 -0.4973  0.1018  0.2164
19078TIP3    H178649   0.954   0.161   2.796 -0.8959 -2.1204 -1.0852
19078TIP3    H278650   0.882   0.273   2.723  0.9122 -1.0678 -1.2856
19079TIP3   OH278651   6.149   0.402   0.460 -0.4749 -0.5764 -0.2703
19079TIP3    H178652   6.182   0.313   0.449 -0.9753 -0.7773 -0.1502
19079TIP3    H278653   6.118   0.406   0.550  0.7585  0.1276  0.1343
19080TIP3   OH278654   0.058   6.238   2.035  0.1220 -0.1179 -0.4308
19080TIP3    H178655   0.096   6.290   2.105  0.4992  1.1128 -1.5300
19080TIP3    H278656   0.094   6.275   1.955 -1.3803 -0.6025 -1.3565
19081TIP3   OH278657   3.143   3.075   1.156  0.3963  0.4426 -0.2579
19081TIP3    H178658   3.205   3.138   1.192 -0.3306  1.9178 -1.5512
19081TIP3    H278659   3.179   3.052   1.071 -1.1985  1.8623 -1.3282
19082TIP3   OH278660   5.687   5.835  11.566  0.4615 -0.6866 -0.6987
19082TIP3    H178661   5.639   5.911  11.533  0.9623 -0.5707 -1.1658
19082TIP3    H278662   5.673   5.837  11.660 -0.3825 -0.6032 -0.8187
19083TIP3   OH278663   5.654   0.207  16.546 -0.0834  0.1277 -0.3200
19083TIP3    H178664   5.569   0.225  16.585 -0.2925  0.2569 -0.8330
19083TIP3    H278665   5.717   0.248  16.605 -0.4066  0.4568 -0.2050
19084TIP3   OH278666   3.503   3.677   2.026  0.1392  0.0314  0.0898
19084TIP3    H178667   3.578   3.685   2.085  0.5942 -0.6540 -0.3879
19084TIP3    H278668   3.537   3.629   1.951 -0.8475 -0.5244 -0.0088
19085TIP3   OH278669   4.588   3.380  12.026 -0.3567  0.0188 -0.0279
19085TIP3    H178670   4.593   3.464  11.981 -3.0601 -0.0149 -0.4562
19085TIP3    H278671   4.498   3.375  12.058 -0.8480 -3.5503 -1.6823
19086TIP3   OH278672   0.475   1.355  11.420  0.3065 -0.1009  0.3198
19086TIP3    H178673   0.446   1.446  11.408  2.3457  0.4268 -0.8861
19086TIP3    H278674   0.418   1.321  11.489 -0.9127  1.8919  0.3587
19087TIP3   OH278675   0.288   4.789  12.902 -0.1675 -0.1786  0.0840
19087TIP3    H178676   0.297   4.881  12.927 -1.7649  0.0900 -0.2920
19087TIP3    H278677   0.337   4.741  12.969 -0.1892  0.8734  0.8584
19088TIP3   OH278678   0.479   5.313  14.735  0.5192  0.6488  0.2490
19088TIP3    H178679   0.524   5.250  14.792 -0.5445 -0.9809 -0.6936
19088TIP3    H278680   0.388   5.311  14.764  0.3864  1.3717 -0.1189
19089TIP3   OH278681   1.137   1.312  11.445 -0.1923  0.9350 -0.2352
19089TIP3    H178682   1.166   1.226  11.476  0.7082  1.2206 -0.2545
19089TIP3    H278683   1.126   1.300  11.351 -1.8082  0.3729  0.0164
19090TIP3   OH278684   2.386   3.544  16.890  0.6900 -0.6003  0.2978
19090TIP3    H178685   2.343   3.475  16.940  2.2413 -2.0038 -0.2462
19090TIP3    H278686   2.479   3.526  16.901  1.1355  1.7960  0.6513
19091TIP3   OH278687   4.074   6.310  12.855  0.1307  0.2251  0.1770
19091TIP3    H178688   4.078   6.223  12.817 -1.6553  0.0432  0.3638
19091TIP3    H278689   4.149   6.314  12.915  0.9033 -0.7365 -0.7104
19092TIP3   OH278690   4.758   2.804   0.747  0.2473  0.0553 -0.0054
19092TIP3    H178691   4.791   2.794   0.836 -0.4001  2.2476  0.5070
19092TIP3    H278692   4.678   2.752   0.745 -0.4036  0.9835  1.0925
19093TIP3   OH278693   1.543   6.542  11.484  0.8997 -0.2267  0.3539
19093TIP3    H178694   1.546   6.636  11.470 -0.9106 -0.2305 -0.1892
19093TIP3    H278695   1.621   6.508  11.439  0.3034  0.7586 -1.4404
19094TIP3   OH278696   1.961   2.853  11.515 -0.8591 -0.3211  0.2762
19094TIP3    H178697   1.922   2.935  11.485  0.5040 -0.0964 -0.9590
19094TIP3    H278698   1.920   2.786  11.460 -0.0846 -0.1663 -0.5074
19095TIP3   OH278699   5.496   6.089   2.279 -0.2908 -0.5694  0.2427
19095TIP3    H178700   5.588   6.078   2.303  0.3247  0.3334 -1.6461
19095TIP3    H278701   5.465   6.000   2.261  0.0983 -0.9098  1.2119
19096TIP3   OH278702   3.260   5.171  14.175  0.2287 -0.2318 -0.4021
19096TIP3    H178703   3.305   5.165  14.091 -0.1265 -0.5381 -0.5739
19096TIP3    H278704   3.286   5.255  14.211  2.6596 -1.3236  0.4830
19097TIP3   OH278705   2.464   1.258  13.509  0.1809  0.1408  0.2380
19097TIP3    H178706   2.492   1.172  13.542 -0.7394 -0.1888  0.1558
19097TIP3    H278707   2.370   1.251  13.498 -0.0267  1.4545  1.0643
19098TIP3   OH278708   1.161   0.610   5.894  0.2355  0.9208 -0.6425
19098TIP3    H178709   1.097   0.561   5.843 -0.1286  1.1565 -0.4153
19098TIP3    H278710   1.246   0.587   5.855  0.0249  0.5134 -0.8621
19099TIP3   OH278711   4.666   1.428   1.634 -0.1288  0.0569  0.0016
19099TIP3    H178712   4.633   1.446   1.722 -0.3697  0.0843 -0.0929
19099TIP3    H278713   4.605   1.474   1.576  0.2903  0.4106 -0.1586
19100TIP3   OH278714   3.775   6.689  11.311 -0.0428 -0.0483  0.3801
19100TIP3    H178715   3.746   6.727  11.229  0.5249 -0.3509  0.0403
19100TIP3    H278716   3.790   6.764  11.369 -0.7599  0.1441  0.3143
19101TIP3   OH278717   6.323   2.903   0.398  0.2250 -0.1814  0.4468
19101TIP3    H178718   6.322   2.917   0.303  1.0087  2.4284  0.7821
19101TIP3    H278719   6.242   2.855   0.416 -0.3220 -0.0114 -1.4434
19102TIP3   OH278720   1.536   1.121  12.791  0.1911  0.4850  0.2002
19102TIP3    H178721   1.478   1.119  12.715 -1.3047  0.6446  1.3292
19102TIP3    H278722   1.478   1.117  12.867  1.6924 -0.1525  1.3489
19103TIP3   OH278723   0.724   4.417   2.258  0.1905 -0.2637 -0.1132
19103TIP3    H178724   0.726   4.508   2.286  0.5380 -0.4137  0.3662
19103TIP3    H278725   0.655   4.413   2.192 -0.4913  0.1423  0.5622
19104TIP3   OH278726   5.308   1.391   5.181 -0.0661 -0.0426  0.3684
19104TIP3    H178727   5.329   1.432   5.264  1.6682 -1.5918  0.7303
19104TIP3    H278728   5.223   1.350   5.195 -0.4739  0.9764  0.8980
19105TIP3   OH278729   3.443   6.287  16.469  0.5290 -0.0939  0.1125
19105TIP3    H178730   3.453   6.381  16.485  0.5427 -0.2168  0.8520
19105TIP3    H278731   3.394   6.282  16.387  1.8367  0.5555 -0.7427
19106TIP3   OH278732   2.450   3.948  15.259  0.0259 -0.0473 -0.1612
19106TIP3    H178733   2.524   3.899  15.222 -1.6971 -1.4555 -1.8998
19106TIP3    H278734   2.403   3.884  15.312 -0.7555  0.4391 -0.2562
19107TIP3   OH278735   3.365   5.235  13.407 -0.0652  0.7723  0.1559
19107TIP3    H178736   3.344   5.322  13.373 -0.5486  0.9278  0.8530
19107TIP3    H278737   3.353   5.176  13.332  2.5898  1.6041 -0.9823
19108TIP3   OH278738   3.704   1.034   4.080  0.3503  0.2217  0.0901
19108TIP3    H178739   3.781   0.980   4.098 -0.4294 -1.3137 -1.0419
19108TIP3    H278740   3.669   1.054   4.167  1.5523  0.2448  0.5852
19109TIP3   OH278741   5.180   0.033   0.058  0.1331 -0.3666 -0.0666
19109TIP3    H178742   5.095  -0.001   0.028  0.4741 -0.2116 -1.2453
19109TIP3    H278743   5.211   0.086  -0.016  2.3254 -2.2996 -0.5880
19110TIP3   OH278744   5.311   1.033  12.016  0.1488  0.3036  0.0392
19110TIP3    H178745   5.399   1.007  12.044  0.0690 -0.2766 -0.2408
19110TIP3    H278746   5.301   1.122  12.048 -0.1943 -0.5687  2.4302
19111TIP3   OH278747   3.725   2.183  17.134  0.3879 -0.1573 -0.1734
19111TIP3    H178748   3.774   2.202  17.054  2.8796  0.7826  1.5047
19111TIP3    H278749   3.718   2.268  17.179 -1.0462 -0.6531  0.5657
19112TIP3   OH278750   5.940   5.554  16.286 -1.0083  0.6945  0.1774
19112TIP3    H178751   5.949   5.469  16.327 -4.5009 -0.0825 -0.5191
19112TIP3    H278752   5.904   5.611  16.354  2.8814  2.1604  1.1570
19113TIP3   OH278753   5.593   0.877  12.092  0.2554 -0.3646 -0.4208
19113TIP3    H178754   5.557   0.834  12.015 -0.0686  1.0785 -1.0963
19113TIP3    H278755   5.679   0.836  12.104 -0.5698 -2.0876 -0.2586
19114TIP3   OH278756   0.675   4.278  13.040  0.5377  0.1791  0.5825
19114TIP3    H178757   0.705   4.244  12.956  0.3966 -1.1105  1.0407
19114TIP3    H278758   0.747   4.260  13.100 -0.0878 -0.5759  1.1214
19115TIP3   OH278759   2.535   3.495   1.542 -0.2610  0.3403  0.0093
19115TIP3    H178760   2.567   3.516   1.630  0.1279  0.3392 -0.1289
19115TIP3    H278761   2.613   3.463   1.496  0.0350  2.4401 -1.0134
19116TIP3   OH278762   0.737   2.386  14.055 -0.1765  0.0061 -0.3398
19116TIP3    H178763   0.689   2.458  14.097  0.9096  0.9334 -0.6507
19116TIP3    H278764   0.829   2.413  14.060  0.3163 -1.7681  0.2876
19117TIP3   OH278765   5.898   1.609  11.708 -0.4608  0.3741 -0.7732
19117TIP3    H178766   5.987   1.596  11.739 -0.1566  1.6529 -1.0839
19117TIP3    H278767   5.853   1.527  11.728  0.7926 -0.2890 -0.6624
19118TIP3   OH278768   5.876   0.666  12.447  0.4345  0.4094  0.2270
19118TIP3    H178769   5.825   0.713  12.514 -1.6038  2.6853 -2.8002
19118TIP3    H278770   5.939   0.730  12.415  1.4448 -0.6968 -0.0457
19119TIP3   OH278771   1.959   6.369  16.092  0.3183 -0.3984  0.1224
19119TIP3    H178772   1.978   6.384  15.999 -0.5544 -0.8729 -0.1326
19119TIP3    H278773   1.880   6.316  16.092  0.9870 -1.4229  1.1110
19120TIP3   OH278774   0.201   1.120   5.024 -0.3943 -0.0808 -0.0008
19120TIP3    H178775   0.183   1.194   5.082 -2.9441  0.1321 -1.0075
19120TIP3    H278776   0.115   1.085   5.002  0.5397 -0.5789 -3.1055
19121TIP3   OH278777   0.663   6.332  13.588 -0.0612 -0.2897  0.2217
19121TIP3    H178778   0.676   6.282  13.668  0.4760 -1.1890 -0.4142
19121TIP3    H278779   0.693   6.274  13.518 -0.7019  0.4093 -0.6504
19122TIP3   OH278780   5.938   1.567   2.952  0.0666 -0.5647  0.1745
19122TIP3    H178781   5.958   1.603   3.038  0.6426 -0.8597  0.1630
19122TIP3    H278782   5.904   1.642   2.902  1.4251  0.0028  0.0924
19123TIP3   OH278783   1.300   2.385  12.429 -0.4208 -0.2066 -0.1649
19123TIP3    H178784   1.231   2.337  12.475  0.6367 -0.5655  1.0757
19123TIP3    H278785   1.370   2.395  12.493 -0.3894  2.5520 -0.5756
19124TIP3   OH278786   0.292   1.510   4.999 -0.1700  0.1115  0.7238
19124TIP3    H178787   0.234   1.447   4.956 -0.0292  0.8911 -0.6578
19124TIP3    H278788   0.373   1.506   4.948  0.0137  1.0334  0.9367
19125TIP3   OH278789   0.270   1.184   0.540 -0.3705  0.1403  0.1954
19125TIP3    H178790   0.338   1.209   0.603 -0.3723 -0.0972  0.2915
19125TIP3    H278791   0.207   1.256   0.543 -0.5465 -0.0293  0.7228
19126TIP3   OH278792   0.495   5.726  16.665 -0.4194  0.4603 -0.0762
19126TIP3    H178793   0.493   5.639  16.705 -0.4907 -0.1133 -1.3029
19126TIP3    H278794   0.584   5.735  16.631 -0.7330  0.4197 -0.9102
19127TIP3   OH278795   4.602   0.753   1.427 -0.2471  0.1097  0.1585
19127TIP3    H178796   4.625   0.718   1.341 -0.2749 -1.1700  0.6639
19127TIP3    H278797   4.686   0.763   1.473 -0.3365 -0.4614  0.4519
19128TIP3   OH278798   2.418   2.239  12.119  0.6060  0.0633 -0.5267
19128TIP3    H178799   2.453   2.179  12.054  2.5920  0.1273  0.4485
19128TIP3    H278800   2.480   2.312  12.120  1.1890 -0.4206  2.1634
19129TIP3   OH278801   1.147   2.856  12.118  0.1765 -0.0784 -0.1429
19129TIP3    H178802   1.238   2.883  12.131 -0.3447  0.6413  2.2003
19129TIP3    H278803   1.153   2.769  12.080  1.8493 -0.3981  0.8180
19130TIP3   OH278804   0.871   2.626   5.005  0.1651  0.8119  0.6019
19130TIP3    H178805   0.788   2.578   5.005  0.9055 -0.5124 -0.6082
19130TIP3    H278806   0.849   2.711   4.967 -0.7513  0.7026  0.8606
19131TIP3   OH278807   3.926   0.483  16.660  0.4854 -0.2097 -0.3248
19131TIP3    H178808   3.911   0.554  16.723 -1.9201 -0.1784 -0.8710
19131TIP3    H278809   4.002   0.436  16.695  0.2650  0.8427  1.6731
19132TIP3   OH278810   4.897   2.158   4.178  0.0702 -0.2218 -0.2197
19132TIP3    H178811   4.918   2.246   4.147  1.5474  0.5133  2.6674
19132TIP3    H278812   4.818   2.134   4.130  1.5165  1.2975 -3.5386
19133TIP3   OH278813   2.489   4.178  13.736 -0.3923  0.2291 -0.4625
19133TIP3    H178814   2.449   4.258  13.701 -1.3108  0.3340  0.8239
19133TIP3    H278815   2.576   4.176  13.696 -0.6424  1.4743 -1.0934
19134TIP3   OH278816   2.933   2.083   3.571 -0.3011  0.0918 -0.4172
19134TIP3    H178817   2.858   2.143   3.569 -0.3223  0.0796  0.0348
19134TIP3    H278818   2.906   2.012   3.627 -0.9758 -1.2890 -2.4381
19135TIP3   OH278819   0.741   3.558   2.038 -0.3352 -0.5545  0.2298
19135TIP3    H178820   0.671   3.514   1.990 -0.2710 -0.2229 -0.1738
19135TIP3    H278821   0.750   3.643   1.995  0.3998 -0.6416  0.2067
19136TIP3   OH278822   6.097   5.426   4.612 -0.1639  0.9851 -0.1385
19136TIP3    H178823   6.024   5.488   4.610 -0.6358  0.4423  0.4113
19136TIP3    H278824   6.057   5.340   4.611  0.3325  0.6447  3.4203
19137TIP3   OH278825   3.581   1.570   6.629  0.2021 -0.6208  0.7723
19137TIP3    H178826   3.508   1.629   6.651  1.3219  0.9761  0.3454
19137TIP3    H278827   3.642   1.626   6.580  1.3032 -2.1593  0.3737
19138TIP3   OH278828   5.777   1.988   2.574 -0.2359 -0.9117  0.3874
19138TIP3    H178829   5.780   2.064   2.516 -0.4289 -0.8188  0.4997
19138TIP3    H278830   5.687   1.984   2.604  0.6252  1.0628  3.3877
19139TIP3   OH278831   6.215   3.996  11.638  0.1947 -0.1538 -0.2387
19139TIP3    H178832   6.224   3.922  11.696 -0.6746  1.5174  2.0952
19139TIP3    H278833   6.227   4.073  11.694 -0.4799  1.4984 -2.2768
19140TIP3   OH278834   2.225   5.278   4.430  0.3015  0.1171  0.1268
19140TIP3    H178835   2.153   5.238   4.382  0.7966 -0.2226 -0.3407
19140TIP3    H278836   2.281   5.316   4.362  1.8236 -1.7350  0.3122
19141TIP3   OH278837   3.437   3.573   4.559  0.1278 -0.0385  0.3104
19141TIP3    H178838   3.356   3.581   4.509 -0.2173  0.5374  0.9699
19141TIP3    H278839   3.477   3.492   4.526 -0.4653 -0.0614 -0.3642
19142TIP3   OH278840   2.507   3.035  10.996 -0.0816  0.1320 -0.4470
19142TIP3    H178841   2.494   3.004  10.906 -1.6862 -0.0824 -0.1671
19142TIP3    H278842   2.596   3.008  11.018  1.1903  2.2104 -2.7465
19143TIP3   OH278843   1.285   0.443  14.958  0.0520  0.1378  0.5149
19143TIP3    H178844   1.358   0.504  14.966  0.0642  0.0362  1.2891
19143TIP3    H278845   1.283   0.398  15.043 -0.2319 -0.6197  0.1057
19144TIP3   OH278846   3.603   2.424  13.937 -0.2097 -0.2099  0.4310
19144TIP3    H178847   3.664   2.483  13.893 -0.7441  0.8388  1.0830
19144TIP3    H278848   3.566   2.370  13.867 -0.3401  0.7963 -0.2766
19145TIP3   OH278849   4.575   3.209   5.607 -0.7248  0.8055  0.4773
19145TIP3    H178850   4.625   3.132   5.579 -0.7404  1.1304 -0.4689
19145TIP3    H278851   4.606   3.279   5.550 -1.2772  1.3230  0.8126
19146TIP3   OH278852   0.841   4.714  14.349 -0.1449  0.4571 -0.0131
19146TIP3    H178853   0.868   4.645  14.410 -1.2675  0.3549  0.3839
19146TIP3    H278854   0.915   4.723  14.289  2.0339  2.2688  2.8094
19147TIP3   OH278855   1.526   2.245  13.229  1.1960  0.1543  0.7761
19147TIP3    H178856   1.572   2.327  13.248  1.8760  0.2750 -1.2635
19147TIP3    H278857   1.570   2.211  13.151 -1.0070 -0.6346 -0.1581
19148TIP3   OH278858   3.295   4.119  13.906  0.5297 -0.6854 -0.0157
19148TIP3    H178859   3.295   4.035  13.952 -0.3621 -0.6674  0.0365
19148TIP3    H278860   3.360   4.172  13.953 -0.9327 -0.4075  1.7536
19149TIP3   OH278861   3.944   0.900  11.418  0.0259  0.1675 -0.1987
19149TIP3    H178862   3.931   0.995  11.423 -0.9575  0.1135 -1.5521
19149TIP3    H278863   3.902   0.874  11.336  0.5166 -1.4055  0.0338
19150TIP3   OH278864   5.179   3.154  13.683  0.2286  0.8260 -0.3378
19150TIP3    H178865   5.118   3.090  13.647 -0.3475  1.2198 -0.0755
19150TIP3    H278866   5.200   3.212  13.610 -1.2527  1.8667  0.0389
19151TIP3   OH278867   1.896   3.018  14.060 -0.9258 -0.4047  0.3689
19151TIP3    H178868   1.871   3.051  14.146 -0.6442  0.1344  0.2429
19151TIP3    H278869   1.864   3.083  13.999 -0.4095 -0.3846  0.1191
19152TIP3   OH278870   2.959   3.260   3.680 -0.1558 -0.0178 -0.1687
19152TIP3    H178871   2.874   3.220   3.663 -0.1370 -1.2004  2.3620
19152TIP3    H278872   2.939   3.342   3.725 -0.0027  0.2499 -0.5890
19153TIP3   OH278873   1.154   4.344  14.536 -0.3714 -0.0893  0.3369
19153TIP3    H178874   1.145   4.271  14.475 -0.3299  0.4436 -0.3099
19153TIP3    H278875   1.186   4.416  14.482 -0.7133  0.4964  0.9174
19154TIP3   OH278876   3.046   3.667   6.421 -0.1634 -0.4942 -0.1411
19154TIP3    H178877   3.056   3.724   6.497 -0.4266  0.5948 -0.9115
19154TIP3    H278878   3.131   3.671   6.377 -1.0042  1.4386 -1.6509
19155TIP3   OH278879   1.008   5.517   3.631  0.8631  0.4422  0.4465
19155TIP3    H178880   0.960   5.600   3.629  0.1995  0.0848  1.2535
19155TIP3    H278881   1.028   5.498   3.539  0.5214  1.2050  0.2129
19156TIP3   OH278882   2.622   2.870   0.078  0.3229 -0.3111  0.1603
19156TIP3    H178883   2.616   2.945   0.138  3.0616 -0.0088  0.1385
19156TIP3    H278884   2.702   2.825   0.105 -1.3417 -3.3230  0.2399
19157TIP3   OH278885   3.477   6.188   0.291 -0.0095 -0.0919 -0.1480
19157TIP3    H178886   3.489   6.093   0.295  0.6371  0.0354  1.1640
19157TIP3    H278887   3.415   6.201   0.220  0.6492 -1.4287 -0.9868
19158TIP3   OH278888   0.368   0.008  16.566  0.4240 -0.1139 -0.0052
19158TIP3    H178889   0.377   0.025  16.660 -0.3669  2.0778 -0.3033
19158TIP3    H278890   0.454   0.032  16.530  0.5410 -0.4055  0.0776
19159TIP3   OH278891   0.528   6.179  12.575 -0.1750 -0.2045  0.4378
19159TIP3    H178892   0.591   6.211  12.510 -0.9140 -0.5838 -0.4654
19159TIP3    H278893   0.462   6.134  12.524  0.7698 -3.0776  1.6673
19160TIP3   OH278894   1.095   3.167  10.468  0.1983  0.3735 -0.1475
19160TIP3    H178895   1.174   3.172  10.415  0.7051  1.9978  0.7476
19160TIP3    H278896   1.119   3.111  10.542 -0.4650 -1.7690 -1.4986
19161TIP3   OH278897   2.661   0.740  12.804  0.1168 -0.4124 -0.5424
19161TIP3    H178898   2.712   0.679  12.857  0.5209  0.2121 -0.2099
19161TIP3    H278899   2.717   0.758  12.728 -1.1055 -2.5444 -2.0144
19162TIP3   OH278900   1.140   2.036   2.461 -0.5354  0.1079  0.0207
19162TIP3    H178901   1.067   1.976   2.444 -0.3948  0.4657 -1.8848
19162TIP3    H278902   1.109   2.121   2.428 -0.5504  1.0104  2.2549
19163TIP3   OH278903   5.105   6.233   6.441 -0.1571 -0.3964 -0.3173
19163TIP3    H178904   5.023   6.281   6.450 -0.1935 -0.7140  1.0779
19163TIP3    H278905   5.078   6.145   6.413 -0.1445  0.0783 -1.9185
19164TIP3   OH278906   4.066   5.157  12.048 -0.2462  0.0548 -0.0781
19164TIP3    H178907   4.149   5.204  12.043  0.3370 -0.8108  1.2769
19164TIP3    H278908   4.083   5.073  12.004 -0.7026  0.2943 -0.7182
19165TIP3   OH278909   6.707   1.872   2.024 -0.0364  0.1814 -0.1012
19165TIP3    H178910   6.626   1.865   1.973 -0.2422 -0.9114  0.3535
19165TIP3    H278911   6.777   1.857   1.960 -0.2092  0.8933 -0.4519
19166TIP3   OH278912   3.734   3.491  16.099 -0.2646  0.8094  0.0898
19166TIP3    H178913   3.732   3.398  16.122  1.3218  0.6668 -0.2669
19166TIP3    H278914   3.820   3.521  16.129 -0.2263  1.8385 -0.9936
19167TIP3   OH278915   4.742   3.176  10.232  0.2579 -0.5631 -0.7812
19167TIP3    H178916   4.669   3.114  10.227 -2.0131  1.9604 -0.6062
19167TIP3    H278917   4.759   3.185  10.326  0.2467 -0.5357 -0.7814
19168TIP3   OH278918   5.140   3.911  14.373 -0.3364  0.9275  0.4521
19168TIP3    H178919   5.141   3.883  14.281 -2.9146  0.7895  0.4379
19168TIP3    H278920   5.173   4.001  14.371 -0.0919  0.8281 -0.5556
19169TIP3   OH278921   0.438   4.815  14.194 -0.2103 -0.2747 -0.1706
19169TIP3    H178922   0.526   4.828  14.159  0.0355 -0.5665  0.3396
19169TIP3    H278923   0.381   4.866  14.136  0.1746 -0.8915 -1.0962
19170TIP3   OH278924   3.018   6.727   4.899 -0.6471  0.1116  0.1324
19170TIP3    H178925   3.057   6.746   4.984 -1.8568 -0.1199  0.7455
19170TIP3    H278926   3.083   6.674   4.854 -0.1710 -0.1071  1.0694
19171TIP3   OH278927   3.941   4.703  17.009 -0.1925 -0.4364 -0.2995
19171TIP3    H178928   3.992   4.647  16.950  0.4603 -1.0588  0.8297
19171TIP3    H278929   3.990   4.702  17.091 -1.1685  0.2987  0.3041
19172TIP3   OH278930   4.462   0.004  17.058  0.1460  0.6342  0.2987
19172TIP3    H178931   4.416   0.004  16.974 -0.5576  0.5251  0.6853
19172TIP3    H278932   4.539   0.060  17.043  1.2141 -1.1189 -1.0742
19173TIP3   OH278933   0.186   6.203  12.310 -0.2572 -0.3342  0.0165
19173TIP3    H178934   0.205   6.242  12.395 -1.0009  1.3008 -0.5425
19173TIP3    H278935   0.268   6.207  12.262  0.0466 -0.8468  0.4825
19174TIP3   OH278936   1.792   1.111  14.360  0.1561  0.0219  0.5657
19174TIP3    H178937   1.778   1.159  14.441  1.4730  2.5882 -0.6635
19174TIP3    H278938   1.860   1.161  14.314 -1.5287 -0.5849 -2.7399
19175TIP3   OH278939   0.430   1.545   7.061 -0.7301  0.3866  0.2978
19175TIP3    H178940   0.509   1.570   7.013 -0.3093  0.3808  0.9713
19175TIP3    H278941   0.359   1.591   7.016 -0.3128  0.5765 -0.1741
19176TIP3   OH278942   3.365   5.053  15.916 -0.1843  0.0678 -0.4072
19176TIP3    H178943   3.372   4.958  15.910 -0.4656  0.1691 -3.0980
19176TIP3    H278944   3.302   5.068  15.986  0.7831 -1.6809  0.8881
19177TIP3   OH278945   3.297   6.065   0.611  0.1062 -0.2531 -0.3910
19177TIP3    H178946   3.249   6.093   0.533  1.3281  0.5615 -0.8730
19177TIP3    H278947   3.323   6.146   0.654  0.3686 -0.6850  0.2803
19178TIP3   OH278948   1.013   5.282   4.200 -0.2554  0.0879  0.0410
19178TIP3    H178949   0.923   5.258   4.176  0.0615 -1.7529  0.6131
19178TIP3    H278950   1.014   5.276   4.296  0.9098 -1.5303 -0.0579
19179TIP3   OH278951   6.543   6.501  11.611  0.0322 -0.7020  0.4593
19179TIP3    H178952   6.586   6.563  11.670  0.2390 -0.8120  0.4252
19179TIP3    H278953   6.450   6.516  11.624  0.0874  1.2663 -1.2896
19180TIP3   OH278954   1.239   4.316   1.183 -0.7299 -0.1106 -0.2722
19180TIP3    H178955   1.326   4.276   1.184 -0.0128  1.2760 -2.8532
19180TIP3    H278956   1.245   4.386   1.249  0.8133  1.2964 -1.8438
19181TIP3   OH278957   4.832   6.213   0.139 -0.1389 -0.3978  0.6847
19181TIP3    H178958   4.909   6.169   0.104  1.3313  1.3466  1.6345
19181TIP3    H278959   4.789   6.251   0.062  0.1288 -1.0865  0.1937
19182TIP3   OH278960   5.534   5.701  17.001  0.2763 -0.3787  0.4075
19182TIP3    H178961   5.520   5.632  16.936  2.8896 -0.3542 -0.1962
19182TIP3    H278962   5.520   5.783  16.954 -0.0070 -0.4079  0.4382
19183TIP3   OH278963   6.289   5.648  12.989  0.1505  0.3011 -0.4709
19183TIP3    H178964   6.260   5.728  13.033 -1.9282 -0.3960 -0.5081
19183TIP3    H278965   6.214   5.589  12.995  0.7812 -0.7659 -2.6142
19184TIP3   OH278966   1.014   0.644   6.122  0.0057  0.2861 -0.0159
19184TIP3    H178967   1.061   0.583   6.179  1.2257  1.9630  0.8024
19184TIP3    H278968   1.067   0.645   6.041 -0.6812 -0.6427 -0.4868
19185TIP3   OH278969   6.200   2.986   1.822 -0.5196  0.1886  0.0929
19185TIP3    H178970   6.154   2.971   1.905 -1.9603  3.4541 -0.0053
19185TIP3    H278971   6.182   2.908   1.769 -0.8105 -1.2823  2.3070
19186TIP3   OH278972   0.553   0.250   2.335 -0.9007  0.4639  0.3227
19186TIP3    H178973   0.563   0.156   2.353 -1.4986  0.3428  0.0218
19186TIP3    H278974   0.513   0.254   2.248 -0.7998  1.0003  0.3004
19187TIP3   OH278975   0.887   4.036  10.958 -0.0781 -0.2119  0.4558
19187TIP3    H178976   0.848   4.122  10.973  0.2279 -0.2457  1.5359
19187TIP3    H278977   0.981   4.054  10.951  0.0716 -0.5563  1.5514
19188TIP3   OH278978   5.058   1.984  12.722  0.1367 -0.5410  0.5128
19188TIP3    H178979   5.067   1.909  12.780 -1.2453 -0.9790  0.1705
19188TIP3    H278980   5.033   1.946  12.638 -0.0665  0.2695  0.2037
19189TIP3   OH278981   1.583   6.486  16.655 -0.1832  0.0275  0.1483
19189TIP3    H178982   1.498   6.526  16.674  0.8440  1.0333  2.8081
19189TIP3    H278983   1.586   6.407  16.709  1.6258  1.4052  2.1333
19190TIP3   OH278984   6.723   2.267  11.444  0.1090 -0.1416  0.7611
19190TIP3    H178985   6.801   2.274  11.388 -1.1883 -0.8833 -1.2061
19190TIP3    H278986   6.654   2.313  11.395 -0.4213  1.5805  3.0350
19191TIP3   OH278987   1.249   2.207   1.212 -0.4052  0.3195  0.1492
19191TIP3    H178988   1.340   2.197   1.185 -0.3497 -0.2246  0.5209
19191TIP3    H278989   1.249   2.185   1.305 -0.5559  2.3601  0.6606
19192TIP3   OH278990   0.014   0.700   1.510  0.1213  0.8156 -0.0931
19192TIP3    H178991  -0.079   0.680   1.503 -0.1074  1.9435 -0.2968
19192TIP3    H278992   0.054   0.617   1.539 -0.9925  0.4577  0.4443
19193TIP3   OH278993   4.150   1.231  13.010 -0.2903 -0.6140 -0.2795
19193TIP3    H178994   4.154   1.225  13.106 -0.1822  1.8666 -0.1056
19193TIP3    H278995   4.060   1.259  12.992  0.1283  0.4207 -0.7980
19194TIP3   OH278996   2.606   4.723  11.011  0.0226 -0.1052 -0.5492
19194TIP3    H178997   2.676   4.779  10.978  0.2992  0.7393  1.3754
19194TIP3    H278998   2.525   4.767  10.985  0.2391  0.6890  0.0902
19195TIP3   OH278999   6.274   3.873  15.884 -0.0888  1.0464  0.5416
19195TIP3    H179000   6.275   3.932  15.809 -1.1814  0.6334  0.1858
19195TIP3    H279001   6.213   3.914  15.945 -0.8870  0.2711  0.2731
19196TIP3   OH279002   0.548   1.589  10.834 -0.0587 -0.3104 -0.2454
19196TIP3    H179003   0.608   1.628  10.898 -0.5921  0.9161 -0.4678
19196TIP3    H279004   0.605   1.559  10.764  0.4100 -0.3065  0.1337
19197TIP3   OH279005   5.866   1.012  13.662  0.4395 -0.2731  0.1606
19197TIP3    H179006   5.929   1.035  13.593 -0.3644 -0.7017 -0.7362
19197TIP3    H279007   5.883   0.920  13.681  0.5931 -0.1826  0.4635
19198TIP3   OH279008   4.238   0.048  12.337  0.5502 -0.0275  0.0665
19198TIP3    H179009   4.163   0.095  12.373 -0.4411 -1.8454  0.4641
19198TIP3    H279010   4.255   0.090  12.253 -1.3348 -0.0127 -0.3198
19199TIP3   OH279011   5.245   5.508   0.500 -0.5064  0.2429 -0.3282
19199TIP3    H179012   5.208   5.515   0.588 -1.1757 -0.1775 -0.5773
19199TIP3    H279013   5.196   5.437   0.458  0.9283 -0.6733 -0.4805
19200TIP3   OH279014   5.692   6.047   4.840 -0.2075 -0.3205 -0.5475
19200TIP3    H179015   5.659   6.080   4.756  0.9751 -0.8139 -1.2083
19200TIP3    H279016   5.776   6.008   4.819 -0.1566 -0.9402  0.7859
19201TIP3   OH279017   3.467   3.580   5.672  0.3494 -0.3868  0.1492
19201TIP3    H179018   3.475   3.581   5.768 -1.2892 -0.5144  0.2880
19201TIP3    H279019   3.508   3.662   5.644  0.3196 -0.0817  0.9892
19202TIP3   OH279020   4.083   4.508  12.101  0.1424  0.3695 -0.2710
19202TIP3    H179021   4.164   4.459  12.114  1.1164  1.7523 -1.0257
19202TIP3    H279022   4.072   4.557  12.182  0.5156  0.8302 -0.4981
19203TIP3   OH279023   5.411   4.976   4.536 -0.2997  0.0008 -0.6191
19203TIP3    H179024   5.487   5.034   4.543  0.3279 -0.9653  0.7892
19203TIP3    H279025   5.340   5.025   4.578  0.3287 -0.3846  0.9512
19204TIP3   OH279026   5.763   2.515   0.250  0.0382 -0.7488  0.8631
19204TIP3    H179027   5.735   2.530   0.159  0.1142 -0.2808  0.9142
19204TIP3    H279028   5.846   2.564   0.257  0.1102 -0.9135  1.1372
19205TIP3   OH279029   6.689   5.539   4.234  0.1848 -0.3545 -0.4745
19205TIP3    H179030   6.610   5.568   4.188 -0.4695  0.4557  1.1261
19205TIP3    H279031   6.744   5.617   4.238 -0.5543  0.0848  1.7209
19206TIP3   OH279032   4.757   3.216   6.180  0.2223  0.2297  0.2621
19206TIP3    H179033   4.744   3.123   6.164  1.7205  0.3330 -1.7731
19206TIP3    H279034   4.851   3.225   6.196  0.7032  1.7705 -2.8431
19207TIP3   OH279035   3.495   6.699   4.414 -0.4564  0.1148  0.7715
19207TIP3    H179036   3.514   6.764   4.482 -1.9619  1.3259  0.0878
19207TIP3    H279037   3.553   6.626   4.433  0.7186  1.3441  2.0430
19208TIP3   OH279038   5.057   4.285   4.402 -0.1088 -0.2824  0.5080
19208TIP3    H179039   4.975   4.235   4.404  0.7875 -1.7197  2.5503
19208TIP3    H279040   5.112   4.237   4.340 -0.0399 -0.5610  0.7844
19209TIP3   OH279041   3.316   3.161  13.382  0.2688 -0.5029 -0.5341
19209TIP3    H179042   3.347   3.133  13.296  0.8178  1.9333 -1.1593
19209TIP3    H279043   3.260   3.088  13.412  0.3159 -1.5190 -2.7894
19210TIP3   OH279044   0.531   6.210   4.597 -0.0726  0.5550 -0.0912
19210TIP3    H179045   0.622   6.195   4.573 -0.2440 -1.1860  0.2673
19210TIP3    H279046   0.508   6.133   4.650 -2.0096  0.5455 -0.9259
19211TIP3   OH279047   3.424   6.136   2.136  0.0106 -0.6010 -0.3750
19211TIP3    H179048   3.355   6.088   2.183 -0.2555  0.2085  0.0612
19211TIP3    H279049   3.455   6.200   2.199  2.2077 -1.9370 -0.0579
19212TIP3   OH279050   2.767   3.886  13.985  0.1349  0.1576  0.2902
19212TIP3    H179051   2.763   3.964  14.040 -0.7204  0.9632 -0.8756
19212TIP3    H279052   2.702   3.826  14.021 -1.0221  1.0167 -0.3242
19213TIP3   OH279053   2.672   0.108   3.545 -0.3040 -0.0901  0.4640
19213TIP3    H179054   2.619   0.029   3.534  0.1182 -0.3212  0.0585
19213TIP3    H279055   2.615   0.169   3.591 -1.4259  0.1656 -1.1987
19214TIP3   OH279056   2.410   2.383  10.852 -0.2401  0.4574 -0.2475
19214TIP3    H179057   2.460   2.369  10.932  0.3990 -0.0032 -0.7214
19214TIP3    H279058   2.424   2.476  10.831 -1.3074  0.8573  0.7668
19215TIP3   OH279059   5.269   2.816   0.406  0.1574 -0.1446 -0.1653
19215TIP3    H179060   5.298   2.742   0.353 -0.2744 -0.9964  0.7695
19215TIP3    H279061   5.173   2.812   0.403  0.1089 -0.7367  1.3653
19216TIP3   OH279062   0.909   0.755   0.374  0.1018  0.1309  0.1308
19216TIP3    H179063   0.864   0.735   0.291  0.3287  1.7293 -0.3986
19216TIP3    H279064   0.992   0.709   0.368  0.8073  1.5448 -1.2580
19217TIP3   OH279065   2.127   3.320   2.151 -0.2965 -0.5514 -1.0687
19217TIP3    H179066   2.044   3.356   2.118 -0.2133 -0.4979 -1.2231
19217TIP3    H279067   2.154   3.257   2.084 -0.4740 -0.9503 -0.7658
19218TIP3   OH279068   6.105   2.304   5.672 -0.0408  0.2759  0.0961
19218TIP3    H179069   6.120   2.258   5.754  0.6797  0.3107 -0.0143
19218TIP3    H279070   6.155   2.255   5.607  1.1138  1.4888  0.0577
19219TIP3   OH279071   3.476   5.343  16.586 -0.1767 -0.4343  0.2858
19219TIP3    H179072   3.540   5.280  16.618 -0.3873 -1.5548 -1.4281
19219TIP3    H279073   3.528   5.420  16.560  0.2631 -0.5784  0.7428
19220TIP3   OH279074   4.205   4.612   3.756 -0.1663 -0.6425 -0.6743
19220TIP3    H179075   4.130   4.601   3.815  0.7101 -0.8094  0.4447
19220TIP3    H279076   4.175   4.579   3.672 -1.5046 -0.2588 -0.3548
19221TIP3   OH279077   3.537   3.394  16.478  0.1321  0.3299  0.3824
19221TIP3    H179078   3.450   3.358  16.461  0.1251  0.3736  0.3223
19221TIP3    H279079   3.520   3.484  16.506  0.3223  1.5783 -3.2644
19222TIP3   OH279080   0.045   0.534  13.271 -0.1494  0.2594  0.5371
19222TIP3    H179081   0.022   0.585  13.193 -2.3412  1.7951  2.1213
19222TIP3    H279082  -0.003   0.452  13.260 -0.3093  0.3996  0.1780
19223TIP3   OH279083   4.161   2.983   1.291  0.0676 -0.9164  0.1866
19223TIP3    H179084   4.182   2.949   1.378 -0.9406  0.4002  0.9655
19223TIP3    H279085   4.081   3.035   1.304  0.7415  0.5305 -1.2271
19224TIP3   OH279086   4.935   3.384   2.215 -0.0096 -0.3927  0.1085
19224TIP3    H179087   5.013   3.334   2.241 -0.2640 -1.3623 -0.9193
19224TIP3    H279088   4.869   3.317   2.196 -0.4382  0.3450 -1.0681
19225TIP3   OH279089   1.742   2.378  15.139 -0.5449  0.1861 -0.3331
19225TIP3    H179090   1.801   2.382  15.214 -0.2123 -1.2352 -0.5042
19225TIP3    H279091   1.799   2.376  15.063 -0.8929  1.9786 -0.6482
19226TIP3   OH279092   6.376   3.767  13.865 -0.3785  0.3907  0.1195
19226TIP3    H179093   6.321   3.714  13.807 -1.9374  1.5176  0.5158
19226TIP3    H279094   6.423   3.826  13.807 -0.2869  0.0495 -0.1548
19227TIP3   OH279095   0.915   0.101  15.391  0.3626 -0.0481 -0.3153
19227TIP3    H179096   0.894   0.194  15.384  0.0236 -0.1181 -0.2769
19227TIP3    H279097   0.921   0.070  15.301 -0.3341 -0.1620 -0.3262
19228TIP3   OH279098   6.674   3.169  15.494 -0.0507  0.4483  0.0244
19228TIP3    H179099   6.669   3.236  15.562 -1.3729 -0.7278  1.1220
19228TIP3    H279100   6.639   3.211  15.416  1.2947  1.7504  0.1010
19229TIP3   OH279101   4.879   2.115   5.860 -0.5969  0.1195  0.0786
19229TIP3    H179102   4.809   2.179   5.872  0.5800  1.4902 -0.2006
19229TIP3    H279103   4.932   2.122   5.940  0.0873  0.1962 -0.3765
19230TIP3   OH279104   1.411   4.603   5.028 -0.0519  0.2551 -0.1587
19230TIP3    H179105   1.410   4.688   4.983 -2.3452  0.4803  0.2201
19230TIP3    H279106   1.341   4.554   4.985 -0.1787 -0.6609  1.0848
19231TIP3   OH279107   1.165   6.253  15.743  0.3998 -0.3079 -0.0821
19231TIP3    H179108   1.085   6.305  15.751  0.5372 -0.2751  1.3033
19231TIP3    H279109   1.144   6.169  15.784  0.3512 -1.1646 -1.8226
19232TIP3   OH279110   2.287   5.571   4.040  0.0980 -0.6417 -0.7146
19232TIP3    H179111   2.197   5.547   4.061  0.2177  0.4297  1.1609
19232TIP3    H279112   2.282   5.617   3.957 -1.2248  0.3058 -0.1217
19233TIP3   OH279113   0.033   5.773   0.498  0.2480 -0.8030  0.2749
19233TIP3    H179114  -0.048   5.725   0.486 -0.6644  0.3908  1.4542
19233TIP3    H279115   0.041   5.827   0.419 -1.2459  0.6629  1.0854
19234TIP3   OH279116   3.491   6.005   4.011 -0.0460 -0.2646  0.1488
19234TIP3    H179117   3.409   6.019   3.963 -0.7443 -1.0621  1.0718
19234TIP3    H279118   3.557   5.991   3.943 -0.9948 -1.2359 -0.5884
19235TIP3   OH279119   3.430   0.534  14.001  0.3261 -0.2474 -0.1706
19235TIP3    H179120   3.440   0.618  13.957  1.7618 -0.3495 -0.0563
19235TIP3    H279121   3.436   0.554  14.094  0.0306 -0.3959 -0.1192
19236TIP3   OH279122   0.303   0.969   0.708 -0.5450  0.2116 -0.3677
19236TIP3    H179123   0.288   1.035   0.641  1.3959 -0.0637 -1.1276
19236TIP3    H279124   0.260   0.890   0.675 -0.6358  0.4071 -0.7084
19237TIP3   OH279125   5.469   4.943   4.860 -1.0291  0.6907  0.1603
19237TIP3    H179126   5.533   4.928   4.790 -1.0328  0.1718  0.2699
19237TIP3    H279127   5.521   4.961   4.938 -0.9990 -0.6962  0.4722
19238TIP3   OH279128   4.200   4.266   0.673 -0.1651  0.5041 -0.3207
19238TIP3    H179129   4.151   4.335   0.718 -0.1163 -2.5245  4.7685
19238TIP3    H279130   4.133   4.204   0.644  0.0374  1.1069 -2.1927
19239TIP3   OH279131   6.539   4.770  13.149 -0.2033  0.4397 -0.1825
19239TIP3    H179132   6.448   4.744  13.163  0.0763 -0.1549  0.6324
19239TIP3    H279133   6.570   4.795  13.236  1.0124 -1.3819 -0.0692
19240TIP3   OH279134   3.415   0.700  11.180  0.6232 -0.0968  0.4457
19240TIP3    H179135   3.476   0.627  11.172 -0.2413 -0.8698  0.7879
19240TIP3    H279136   3.329   0.660  11.170  0.0546  0.6323  2.1625
19241TIP3   OH279137   6.339   0.885   4.302  0.3755  0.3027 -0.2890
19241TIP3    H179138   6.317   0.891   4.209  2.5242 -0.7196 -0.8863
19241TIP3    H279139   6.430   0.856   4.304  1.1585  2.6922  2.1232
19242TIP3   OH279140   1.776   0.008  15.335  0.6081  0.3522  0.1247
19242TIP3    H179141   1.698  -0.037  15.366  0.2881  1.8941  1.6982
19242TIP3    H279142   1.781   0.087  15.390  2.7368  0.7496 -0.5811
19243TIP3   OH279143   2.005   2.678  11.882  0.1601 -0.1116  0.3640
19243TIP3    H179144   2.074   2.654  11.944  2.3123  2.8052 -0.7834
19243TIP3    H279145   1.946   2.735  11.931  1.4066  1.5136  0.0258
19244TIP3   OH279146   1.440   5.892  17.192 -0.2509  0.6377  0.7610
19244TIP3    H179147   1.524   5.937  17.184  0.1463 -0.1840  0.1629
19244TIP3    H279148   1.377   5.950  17.150  0.2578  0.6204 -0.0308
19245TIP3   OH279149   4.151   6.187   5.947  0.0491 -0.0206  0.6344
19245TIP3    H179150   4.114   6.143   6.023 -0.3474 -2.1454 -0.7470
19245TIP3    H279151   4.102   6.269   5.941 -2.8442 -1.7002  0.2645
19246TIP3   OH279152   5.913   0.026  15.398  0.5202 -0.3540 -0.0800
19246TIP3    H179153   5.820   0.012  15.413  0.6882 -0.7918  0.5777
19246TIP3    H279154   5.917   0.098  15.334 -0.2350  1.5714  1.9682
19247TIP3   OH279155   0.371   2.227  15.846  0.3900  0.3952 -0.7687
19247TIP3    H179156   0.318   2.304  15.827 -0.7060  0.1230  1.1250
19247TIP3    H279157   0.335   2.159  15.788 -2.8499 -0.3805  1.9950
19248TIP3   OH279158   1.342   1.541  13.647  0.2282 -0.4441 -0.2794
19248TIP3    H179159   1.377   1.486  13.577  0.8558  0.7159 -0.8867
19248TIP3    H279160   1.366   1.495  13.728  2.8169  0.1005 -0.6956
19249TIP3   OH279161   5.283   2.725  14.657 -0.0301  0.1480  0.6117
19249TIP3    H179162   5.379   2.732  14.659 -0.1400  2.0136  0.0066
19249TIP3    H279163   5.261   2.681  14.739  1.3862 -0.8705  0.4713
19250TIP3   OH279164   1.885   0.852  15.337  0.2443 -0.2990  0.3689
19250TIP3    H179165   1.893   0.940  15.299 -0.0503 -0.7207 -0.6838
19250TIP3    H279166   1.866   0.868  15.430  0.3539  0.7456  0.2233
19251TIP3   OH279167   1.966   5.638  14.808 -0.3329 -0.5004 -0.2922
19251TIP3    H179168   2.054   5.630  14.772 -0.2558  2.1227 -0.7924
19251TIP3    H279169   1.909   5.608  14.736  0.0541 -0.0495 -0.7938
19252TIP3   OH279170   1.236   4.453   2.083 -0.3484 -0.8250  0.0627
19252TIP3    H179171   1.211   4.402   2.160 -0.2475 -0.5798  0.2622
19252TIP3    H279172   1.281   4.391   2.026 -1.4900 -1.2861 -0.3406
19253TIP3   OH279173   5.670   1.428   3.883 -0.2348 -0.7590 -0.5606
19253TIP3    H179174   5.723   1.363   3.836  0.7939 -0.5238  0.2706
19253TIP3    H279175   5.733   1.492   3.915 -1.3452  1.3504 -2.4129
19254TIP3   OH279176   2.836   1.269  14.991 -0.6274  0.1691  0.1948
19254TIP3    H179177   2.845   1.316  15.074  0.3530  0.7843 -0.2495
19254TIP3    H279178   2.890   1.190  15.001 -1.9292 -0.6622  0.7829
19255TIP3   OH279179   4.234   3.763   5.611  1.1015  0.1617 -0.3052
19255TIP3    H179180   4.237   3.831   5.678  0.5788  0.0640 -0.1770
19255TIP3    H279181   4.160   3.788   5.555  1.2841  0.0257 -0.6103
19256TIP3   OH279182   4.637   5.852  16.630 -0.2348 -0.0271  0.0584
19256TIP3    H179183   4.546   5.875  16.614  0.1000  1.5458  0.3402
19256TIP3    H279184   4.685   5.895  16.559  0.4552  0.5785  0.8905
19257TIP3   OH279185   5.812   2.781  12.881  0.0016 -0.7147 -0.0697
19257TIP3    H179186   5.754   2.851  12.850  0.5471 -0.9356 -1.6564
19257TIP3    H279187   5.755   2.722  12.930 -0.8125 -0.0888 -0.2610
19258TIP3   OH279188   5.891   1.092  14.999 -0.7344 -1.0350  0.0136
19258TIP3    H179189   5.825   1.077  15.066 -0.2518 -1.0564  0.4828
19258TIP3    H279190   5.973   1.102  15.047 -0.1410 -2.5016 -0.6480
19259TIP3   OH279191   0.375   5.757   1.223 -0.0595 -0.3248  0.0486
19259TIP3    H179192   0.309   5.821   1.250  2.4130  1.6894  1.5666
19259TIP3    H279193   0.401   5.785   1.136 -1.8985 -1.7370 -0.9846
19260TIP3   OH279194   1.153   3.048  11.693 -0.3381 -0.0047  0.3492
19260TIP3    H179195   1.117   3.122  11.643 -3.3498 -0.9636  1.0393
19260TIP3    H279196   1.240   3.035  11.655 -1.6800  0.6914 -3.2367
19261TIP3   OH279197   5.994   0.229   2.404  0.2696  0.1791 -0.0735
19261TIP3    H179198   6.025   0.170   2.335  1.3791  0.3190  0.3055
19261TIP3    H279199   5.919   0.184   2.442  0.7768 -0.7396 -0.1480
19262TIP3   OH279200   3.832   3.835   1.898  0.1515  0.1007  0.5163
19262TIP3    H179201   3.797   3.781   1.969 -0.4769  0.4595  0.4850
19262TIP3    H279202   3.925   3.845   1.918 -0.1350  0.6729  1.6087
19263TIP3   OH279203   3.366   4.368  16.574  0.2617 -0.1171 -0.8642
19263TIP3    H179204   3.412   4.403  16.497  3.9098 -1.2184  0.7129
19263TIP3    H279205   3.306   4.302  16.538  2.3684 -1.0762 -2.7378
19264TIP3   OH279206   4.746   5.424   1.433  0.5616  0.4676  0.2455
19264TIP3    H179207   4.801   5.495   1.400  1.8013 -1.0560 -1.0509
19264TIP3    H279208   4.772   5.413   1.524  2.5883 -0.3767 -0.4103
19265TIP3   OH279209   2.150   2.086   1.246 -0.1082  0.3873 -0.6916
19265TIP3    H179210   2.208   2.084   1.322 -1.9420 -1.2606  0.7127
19265TIP3    H279211   2.102   2.168   1.254 -0.0243  0.3956 -0.2459
19266TIP3   OH279212   0.555   3.967   0.147  0.4987 -0.4166 -0.3043
19266TIP3    H179213   0.474   4.017   0.141  0.0733 -0.8822  1.3422
19266TIP3    H279214   0.624   4.029   0.121 -0.3205  0.1158 -1.2338
19267TIP3   OH279215   0.469   0.822   2.627  0.3492  0.2565  0.2519
19267TIP3    H179216   0.388   0.864   2.655  0.6934  2.1133 -1.4594
19267TIP3    H279217   0.538   0.873   2.669  0.7318  0.7651 -0.9760
19268TIP3   OH279218   1.976   2.786  12.631  0.1422  0.5173 -0.2731
19268TIP3    H179219   2.050   2.809  12.575 -0.6041  1.1421 -1.0110
19268TIP3    H279220   2.010   2.796  12.720 -0.1409  4.6138 -0.5059
19269TIP3   OH279221   4.263   1.183   4.479  0.1146  0.1599 -0.0143
19269TIP3    H179222   4.325   1.132   4.530  1.8650  1.4567 -0.7717
19269TIP3    H279223   4.315   1.220   4.408 -1.5424  1.2376 -0.7101
19270TIP3   OH279224   5.718   3.425  14.663  0.1734 -0.0030 -0.3074
19270TIP3    H179225   5.658   3.477  14.609 -0.6404 -1.2281 -0.6196
19270TIP3    H279226   5.804   3.437  14.622 -0.1480  0.4308 -0.8647
19271TIP3   OH279227   4.624   2.466   5.162  0.1966 -0.3979 -0.5379
19271TIP3    H179228   4.662   2.541   5.207  0.0955 -1.2322  0.9818
19271TIP3    H279229   4.679   2.453   5.086  0.3080  1.1212 -0.7267
19272TIP3   OH279230   2.936   4.925   5.346  0.2522 -0.0395  0.0896
19272TIP3    H179231   2.991   4.851   5.372  0.3395  0.0514  0.1639
19272TIP3    H279232   2.883   4.892   5.273  1.8771  0.4711 -1.3530
19273TIP3   OH279233   6.645   0.766  15.312  0.2721  0.4662 -0.8921
19273TIP3    H179234   6.660   0.760  15.218  0.2317  1.4306 -0.9674
19273TIP3    H279235   6.645   0.675  15.342 -1.6198  0.0411 -2.1038
19274TIP3   OH279236   1.943   0.520   0.778  0.2201  0.2386  0.0841
19274TIP3    H179237   2.029   0.484   0.801  0.5268  0.7182 -0.2897
19274TIP3    H279238   1.894   0.520   0.860  0.4326 -0.4406  0.2143
19275TIP3   OH279239   5.459   0.086   6.283 -0.2153 -0.4388 -0.0224
19275TIP3    H179240   5.451   0.171   6.326  1.6745  1.2949 -2.9545
19275TIP3    H279241   5.368   0.058   6.270 -0.8504  0.8691  1.3992
19276TIP3   OH279242   2.922   6.174  15.291  0.1104  0.2945  0.2790
19276TIP3    H179243   2.968   6.230  15.353  0.7664  1.0042 -0.8397
19276TIP3    H279244   2.847   6.225  15.263 -0.8970 -0.5178  1.4251
19277TIP3   OH279245   1.917   1.333   4.229  0.4090 -0.3973  0.0702
19277TIP3    H179246   1.890   1.413   4.184  0.9248  0.6042  1.5209
19277TIP3    H279247   2.003   1.313   4.192 -0.2892 -1.0415 -1.2513
19278TIP3   OH279248   4.999   0.370   0.301 -0.0868 -0.0200 -0.3715
19278TIP3    H179249   4.971   0.350   0.390  1.9055 -1.4432 -0.0218
19278TIP3    H279250   4.919   0.370   0.249 -1.0541 -0.9270  1.1117
19279TIP3   OH279251   2.635   1.594  12.128  0.5823  0.3382 -0.3069
19279TIP3    H179252   2.540   1.609  12.124  0.5359 -0.2033 -1.4571
19279TIP3    H279253   2.663   1.642  12.206 -0.5164  1.1777 -0.4047
19280TIP3   OH279254   4.707   3.961  12.419 -0.1395 -0.5409 -0.4065
19280TIP3    H179255   4.700   3.974  12.514 -0.9538  0.2917 -0.5762
19280TIP3    H279256   4.760   3.882  12.410  1.4769  0.3991  0.7120
19281TIP3   OH279257   3.098   2.081  12.817  0.0309 -0.4429  0.1201
19281TIP3    H179258   3.028   2.145  12.832 -1.6065 -2.0077 -0.6420
19281TIP3    H279259   3.179   2.131  12.826 -1.1937  1.5012  0.5946
19282TIP3   OH279260   2.540   0.558   0.744 -0.4194  0.4003  0.2967
19282TIP3    H179261   2.521   0.601   0.828 -0.2728 -0.2272  0.6532
19282TIP3    H279262   2.567   0.469   0.768  0.4871  0.4874 -0.3534
19283TIP3   OH279263   5.809   6.436   0.145 -0.0293 -0.2076  0.2580
19283TIP3    H179264   5.878   6.433   0.211  0.7128  0.0757 -0.4867
19283TIP3    H279265   5.733   6.397   0.187  0.0930  1.0615  1.6843
19284TIP3   OH279266   1.824   3.970   4.567  0.3740  0.2620  0.5932
19284TIP3    H179267   1.905   4.017   4.544 -0.3543  0.1898 -2.3586
19284TIP3    H279268   1.758   4.006   4.507 -0.9103 -2.2956  0.4350
19285TIP3   OH279269   5.995   3.011  11.291 -0.6043  0.3542  0.4945
19285TIP3    H179270   5.922   2.952  11.275 -0.4171  0.5231 -1.0626
19285TIP3    H279271   6.046   3.009  11.210 -0.9270  3.1044  0.1834
19286TIP3   OH279272   4.926   0.107  12.824 -0.3377  0.5421 -0.1690
19286TIP3    H179273   4.972   0.035  12.866 -0.5444  0.6634  0.2726
19286TIP3    H279274   4.918   0.081  12.732 -0.7224 -0.1507  0.0593
19287TIP3   OH279275   1.756   5.592   3.175 -0.7501 -0.3601 -0.3491
19287TIP3    H179276   1.771   5.498   3.167  1.7020 -0.0390  0.0216
19287TIP3    H279277   1.702   5.602   3.253 -1.1641 -1.4554 -0.4858
19288TIP3   OH279278   2.934   5.242  11.745 -0.1290 -0.3800 -0.1321
19288TIP3    H179279   2.976   5.165  11.706  0.3129 -0.2060  0.0028
19288TIP3    H279280   2.853   5.208  11.782 -0.4313 -0.5989 -0.9671
19289TIP3   OH279281   5.084   4.620   4.626  0.0015  0.1368 -0.1399
19289TIP3    H179282   5.081   4.591   4.535  0.5726 -1.8664  0.4382
19289TIP3    H279283   4.995   4.651   4.644  0.1211  1.3802 -1.6266
19290TIP3   OH279284   0.115   5.561  16.589  0.2703 -0.4858 -0.0680
19290TIP3    H179285   0.206   5.588  16.572  0.1566 -0.7579 -1.1456
19290TIP3    H279286   0.076   5.636  16.632  1.0148 -0.3631  0.4056
19291TIP3   OH279287   4.918   0.944   4.047  0.4530  0.6205  0.7366
19291TIP3    H179288   4.874   0.860   4.040 -1.4154  1.5880  0.5730
19291TIP3    H279289   5.010   0.924   4.031  0.1723 -1.5187  1.5657
19292TIP3   OH279290   2.339   1.758   4.285 -0.1725  0.2034  0.0400
19292TIP3    H179291   2.426   1.720   4.274 -0.1111  0.3877 -0.1150
19292TIP3    H279292   2.351   1.851   4.265 -0.4886  0.1555 -0.3869
19293TIP3   OH279293   2.517   2.617   3.494 -0.2177 -0.1125  0.4078
19293TIP3    H179294   2.545   2.626   3.403 -3.0482  0.8830 -0.4081
19293TIP3    H279295   2.519   2.706   3.528  0.3240 -0.4166  1.1876
19294TIP3   OH279296   3.195   6.673  15.475  0.1988  0.5853  0.2364
19294TIP3    H179297   3.254   6.612  15.430  0.2822  0.2552  0.7787
19294TIP3    H279298   3.108   6.652  15.442  0.1085 -0.4537  1.0790
19295TIP3   OH279299   4.139   3.954  12.237 -0.6406 -0.2141  0.1978
19295TIP3    H179300   4.120   4.025  12.176  1.9562 -0.8666 -1.4353
19295TIP3    H279301   4.081   3.882  12.209 -1.0480  0.2189 -0.0766
19296TIP3   OH279302   1.649   5.215  11.949 -0.1448  0.0307  0.6253
19296TIP3    H179303   1.647   5.128  11.911 -0.9120  0.2732  0.1067
19296TIP3    H279304   1.736   5.249  11.926 -0.0479 -0.3884  0.3697
19297TIP3   OH279305   0.469   6.713  12.064  0.3694  0.4209  0.0774
19297TIP3    H179306   0.541   6.776  12.072  0.0757  0.7820 -0.1491
19297TIP3    H279307   0.474   6.661  12.144 -1.2197  2.6162  1.6258
19298TIP3   OH279308   4.036   0.550   5.117  0.6550 -0.5397 -0.0512
19298TIP3    H179309   4.002   0.490   5.183  0.6557 -1.1014 -0.5606
19298TIP3    H279310   4.010   0.512   5.033 -0.3297  0.7546 -0.3570
19299TIP3   OH279311   4.102   5.658   1.702  0.0662 -0.3053  0.2011
19299TIP3    H179312   4.044   5.714   1.649 -2.4459 -1.7592  1.3027
19299TIP3    H279313   4.117   5.708   1.782  0.3166  0.0654 -0.0756
19300TIP3   OH279314   0.843   5.197  11.761  0.0337 -0.7360 -0.2955
19300TIP3    H179315   0.908   5.140  11.802  1.4230  0.4557 -0.7834
19300TIP3    H279316   0.866   5.285  11.792 -0.0718 -0.0537 -2.1019
19301TIP3   OH279317   6.766   2.887   1.989  0.2126 -0.5071  0.3152
19301TIP3    H179318   6.756   2.856   2.079  0.1304 -0.5337  0.2965
19301TIP3    H279319   6.729   2.976   1.990 -0.8225 -0.9297  0.0412
19302TIP3   OH279320   3.992   0.775   0.288 -0.1923  0.2594  0.4742
19302TIP3    H179321   4.053   0.736   0.225 -0.3960  0.8508 -0.0874
19302TIP3    H279322   4.041   0.846   0.328 -0.1217 -0.0071  0.8621
19303TIP3   OH279323   3.828   2.444  12.899 -0.4236 -0.0352 -0.7960
19303TIP3    H179324   3.907   2.497  12.887  0.1156 -0.4345  0.8313
19303TIP3    H279325   3.777   2.458  12.819  1.2629  0.2753 -1.8396
19304TIP3   OH279326   1.542   3.634   5.366 -0.2739  0.1762 -0.0596
19304TIP3    H179327   1.560   3.671   5.280 -0.2102  0.5510  0.1139
19304TIP3    H279328   1.629   3.616   5.403 -0.3317 -1.6520 -0.7903
19305TIP3   OH279329   4.630   6.199   2.571  0.0622  0.4153 -0.3211
19305TIP3    H179330   4.598   6.197   2.661 -0.5270  1.2978 -0.5132
19305TIP3    H279331   4.709   6.144   2.573  0.9204  1.6714  1.0557
19306TIP3   OH279332   2.950   0.925   1.415 -0.3983 -0.2075 -0.1425
19306TIP3    H179333   2.983   0.850   1.464 -1.3371  0.2436  1.2167
19306TIP3    H279334   2.951   0.997   1.478 -1.3461  0.4664 -0.8734
19307TIP3   OH279335   2.675   6.000   3.622 -0.3983 -0.9499 -0.4358
19307TIP3    H179336   2.658   5.908   3.600  0.6805 -1.1482 -0.5017
19307TIP3    H279337   2.762   6.017   3.586  0.1722 -0.4285  1.1361
19308TIP3   OH279338   6.409   2.591  12.784 -0.4915 -0.0749 -0.4729
19308TIP3    H179339   6.406   2.652  12.710  1.2525 -0.9201 -1.2467
19308TIP3    H279340   6.491   2.612  12.829 -1.0192 -0.3005  0.5991
19309TIP3   OH279341   3.373   2.241  14.596 -0.1077  0.0937 -0.6125
19309TIP3    H179342   3.448   2.181  14.591 -0.3328 -0.5021  2.4451
19309TIP3    H279343   3.407   2.318  14.642 -1.4843 -0.3999  1.2818
19310TIP3   OH279344   2.911   5.094   3.063 -0.0425 -0.1622  0.5758
19310TIP3    H179345   2.842   5.155   3.090  1.5587  0.5107  3.3725
19310TIP3    H279346   2.936   5.124   2.975 -1.9122  0.8047  0.3378
19311TIP3   OH279347   6.430   1.297  12.137  0.3887 -0.1418  0.5299
19311TIP3    H179348   6.337   1.296  12.114  0.2208 -0.1611  1.2087
19311TIP3    H279349   6.464   1.374  12.091 -0.1914  0.5024  1.1587
19312TIP3   OH279350   1.776   1.634  11.517 -0.2777 -0.7644  0.3551
19312TIP3    H179351   1.725   1.639  11.598 -0.4070 -0.6972  0.2664
19312TIP3    H279352   1.713   1.645  11.447 -0.3624 -2.1709  0.1950
19313TIP3   OH279353   3.001   0.475   3.089  0.3655 -0.2128 -0.7464
19313TIP3    H179354   2.998   0.379   3.090  0.1184 -0.1989 -0.0278
19313TIP3    H279355   3.088   0.495   3.054  0.7223 -0.7096 -0.1625
19314TIP3   OH279356   5.232   3.266   4.744 -0.5952 -0.4392 -0.5981
19314TIP3    H179357   5.201   3.179   4.721  2.0138 -1.2477 -1.3197
19314TIP3    H279358   5.324   3.253   4.770  0.0847  2.1600 -1.4781
19315TIP3   OH279359   3.054   3.327   0.303  0.2935 -1.0290 -0.1156
19315TIP3    H179360   3.057   3.394   0.236  0.1915 -1.7286 -0.8237
19315TIP3    H279361   2.964   3.295   0.302  0.0988 -0.5205  0.8680
19316TIP3   OH279362   5.694   5.374  16.992 -0.5411  0.6964 -0.1711
19316TIP3    H179363   5.771   5.382  16.935 -1.5004  0.9676 -1.4703
19316TIP3    H279364   5.630   5.434  16.953 -0.8895  1.6090  1.7795
19317TIP3   OH279365   0.799   6.332  16.071  0.4067  0.2329 -0.0736
19317TIP3    H179366   0.780   6.384  15.993 -0.2833  1.1567  0.7059
19317TIP3    H279367   0.781   6.242  16.044 -4.0271  0.9055  0.2456
19318TIP3   OH279368   4.129   5.594  12.758 -0.3709  0.1530 -0.4833
19318TIP3    H179369   4.036   5.592  12.736 -0.5097  0.3724  0.0783
19318TIP3    H279370   4.140   5.673  12.811 -0.4767 -1.5522  2.1422
19319TIP3   OH279371   2.636   3.792   1.028 -0.3388 -0.1232  0.2485
19319TIP3    H179372   2.712   3.800   1.086  0.1354 -1.4428 -0.1657
19319TIP3    H279373   2.648   3.708   0.985 -0.9942  0.5741 -1.3319
19320TIP3   OH279374   1.219   4.858  14.848 -0.4363 -0.2521  0.8215
19320TIP3    H179375   1.172   4.800  14.907  2.2647 -2.1096  1.2268
19320TIP3    H279376   1.155   4.880  14.780 -1.8910 -2.6829  1.3543
19321TIP3   OH279377   3.572   5.845   2.244 -0.2016 -0.5772  0.0704
19321TIP3    H179378   3.552   5.939   2.242  2.2731 -0.0163 -0.9930
19321TIP3    H279379   3.539   5.813   2.160  1.0384 -0.1598 -0.5937
19322TIP3   OH279380   1.865   2.925  11.835  0.3542  0.5023 -0.3754
19322TIP3    H179381   1.889   3.018  11.834  0.4784  0.4959  1.3421
19322TIP3    H279382   1.817   2.913  11.916  1.4773 -1.2193  0.0687
19323TIP3   OH279383   4.875   3.706  13.573  0.2964  0.2868  0.1008
19323TIP3    H179384   4.963   3.702  13.534  0.3611  0.0944  0.2623
19323TIP3    H279385   4.891   3.708  13.667  0.1814  1.8942  0.0985
19324TIP3   OH279386   3.506   0.913  11.376  0.5555 -0.2289  0.3973
19324TIP3    H179387   3.453   0.864  11.438 -0.5680  0.7571  0.2264
19324TIP3    H279388   3.519   0.853  11.302  0.9522 -0.9994  1.0822
19325TIP3   OH279389   2.981   3.869   0.747 -0.8817  0.5315  0.1062
19325TIP3    H179390   2.998   3.950   0.795 -0.6247  0.7129 -0.2962
19325TIP3    H279391   2.955   3.806   0.815 -2.1451  1.2446  0.3007
19326TIP3   OH279392   1.927   0.115  11.839  0.2492 -0.1613  0.6174
19326TIP3    H179393   1.961   0.088  11.924  1.3002  1.2926  0.6633
19326TIP3    H279394   1.875   0.040  11.810  1.1177 -1.2667  1.8515
19327TIP3   OH279395   5.567   2.994   5.597 -0.0020 -0.1038 -0.4921
19327TIP3    H179396   5.647   2.962   5.637  0.0108 -0.7196 -0.9927
19327TIP3    H279397   5.538   2.922   5.541 -0.5356  0.3708 -0.8353
19328TIP3   OH279398   1.449   6.244  15.708  0.1262 -0.0136 -0.0454
19328TIP3    H179399   1.358   6.255  15.733  0.0416 -0.7820  0.0178
19328TIP3    H279400   1.457   6.288  15.623 -0.6913 -1.2890 -0.7935
19329TIP3   OH279401   2.536   4.139  15.002 -0.8805  0.5033 -0.1220
19329TIP3    H179402   2.521   4.121  15.095 -2.4008  2.0251 -0.0455
19329TIP3    H279403   2.462   4.096  14.958  0.9856 -2.0696 -0.8617
19330TIP3   OH279404   5.826   2.917   0.874  0.2174 -0.0011  0.1404
19330TIP3    H179405   5.791   3.005   0.860 -1.3715 -0.3860  1.6180
19330TIP3    H279406   5.800   2.869   0.795  1.7044  1.0176 -0.9961
19331TIP3   OH279407   1.828   5.754   2.078 -0.1908  0.4154  0.3669
19331TIP3    H179408   1.754   5.805   2.043 -0.7012  0.9614  2.1474
19331TIP3    H279409   1.828   5.775   2.172  2.0547  0.1812  0.4279
19332TIP3   OH279410   4.436   4.084  15.678  0.1278  0.2204  0.3072
19332TIP3    H179411   4.489   4.153  15.718 -0.1209  0.4311  0.2792
19332TIP3    H279412   4.478   4.003  15.705 -0.1880  0.3509  1.2372
19333TIP3   OH279413   6.266   2.079  17.086 -0.1356 -0.2807 -0.8846
19333TIP3    H179414   6.195   2.037  17.135  0.6071 -0.6055 -0.0566
19333TIP3    H279415   6.260   2.171  17.109  1.9006 -0.8017  2.0691
19334TIP3   OH279416   3.047   1.746  15.931  0.2869  0.7471 -0.0580
19334TIP3    H179417   3.038   1.759  16.026  3.8489  0.9473  0.3089
19334TIP3    H279418   3.059   1.652  15.921 -0.8170  0.6351 -0.4130
19335TIP3   OH279419   1.489   0.811  14.167 -0.4519  0.6581  0.1355
19335TIP3    H179420   1.433   0.840  14.095  0.0406  0.4110 -0.3445
19335TIP3    H279421   1.533   0.890  14.197 -1.4584  0.9547  0.8718
19336TIP3   OH279422   2.722   6.101  15.613  0.2171  0.2044 -0.1245
19336TIP3    H179423   2.658   6.112  15.684 -0.3232 -0.2589 -0.5301
19336TIP3    H279424   2.728   6.187  15.572  0.5114  0.4674  0.4689
19337TIP3   OH279425   2.710   1.346   0.063 -0.1593 -0.3124  0.1325
19337TIP3    H179426   2.774   1.399   0.110 -0.4451 -0.1272  0.3134
19337TIP3    H279427   2.756   1.264   0.043  0.0099 -0.3278  0.5951
19338TIP3   OH279428   6.376   4.049   5.474  0.3407  0.0030 -0.3234
19338TIP3    H179429   6.347   4.055   5.565 -2.0113 -1.5264 -0.9272
19338TIP3    H279430   6.462   4.008   5.479 -0.0333 -0.6448  1.1594
19339TIP3   OH279431   3.009   2.461  11.683  0.6019  0.3915  0.2799
19339TIP3    H179432   3.089   2.456  11.631  0.6826  0.6107  0.3800
19339TIP3    H279433   2.971   2.374  11.677 -0.4084  0.9403 -1.7827
19340TIP3   OH279434   2.737   3.214   1.923  0.0794  0.4038 -0.7289
19340TIP3    H179435   2.661   3.207   1.980  2.6584  0.2098  2.8739
19340TIP3    H279436   2.753   3.125   1.892  0.9235 -0.1981  1.3905
19341TIP3   OH279437   5.161   2.786   4.515  0.2828 -0.5336  0.3844
19341TIP3    H179438   5.182   2.783   4.421 -1.0346 -0.0021  0.0678
19341TIP3    H279439   5.229   2.733   4.556  1.3763 -0.0723 -0.7890
19342TIP3   OH279440   4.468   3.762   1.383 -0.0514  0.0410 -0.2917
19342TIP3    H179441   4.538   3.797   1.328  0.4159  1.1525  0.9653
19342TIP3    H279442   4.513   3.730   1.462 -0.7675 -0.9360 -0.2760
19343TIP3   OH279443   5.657   3.019  14.884  0.3216 -0.8297 -0.1766
19343TIP3    H179444   5.678   3.060  14.800  1.6563 -0.0889  0.4978
19343TIP3    H279445   5.740   3.018  14.932 -0.7511  0.2721  1.7717
19344TIP3   OH279446   6.655   4.630   2.256 -0.3381 -0.1718  0.6200
19344TIP3    H179447   6.570   4.674   2.255  0.3331  1.1551  0.9097
19344TIP3    H279448   6.691   4.648   2.343  1.0723  0.9283 -0.1669
19345TIP3   OH279449   5.074   3.411  11.960 -0.3319  0.1166 -0.8033
19345TIP3    H179450   5.062   3.338  12.021 -1.4862 -0.1582 -1.3452
19345TIP3    H279451   5.163   3.442  11.977 -0.4015 -0.3897  0.5461
19346TIP3   OH279452   3.698   4.103  17.103  0.4535  0.4555 -0.4023
19346TIP3    H179453   3.690   4.198  17.091  2.0292  0.3811 -2.3494
19346TIP3    H279454   3.636   4.066  17.040  1.1683  0.1902 -0.9616
19347TIP3   OH279455   5.612   3.249   5.458 -0.4200 -0.0459  0.0710
19347TIP3    H179456   5.639   3.324   5.512 -0.0792 -1.3471  1.7484
19347TIP3    H279457   5.611   3.175   5.519 -0.2120 -1.5180 -1.6840
19348TIP3   OH279458   2.763   2.134   5.633 -0.0138  0.2116  1.2661
19348TIP3    H179459   2.854   2.158   5.650  0.3311 -0.8258  0.8836
19348TIP3    H279460   2.746   2.062   5.694 -0.8241  0.9012  1.8834
19349TIP3   OH279461   2.900   2.529  12.446  1.1507  0.0513 -0.7730
19349TIP3    H179462   2.850   2.588  12.390 -0.4938  0.9891  1.5895
19349TIP3    H279463   2.882   2.441  12.412  1.0680  0.6846 -2.3573
19350TIP3   OH279464   2.223   4.443   3.711 -0.5801  0.1346  0.6496
19350TIP3    H179465   2.224   4.348   3.703 -1.8576 -0.0426  2.3292
19350TIP3    H279466   2.302   4.464   3.760  0.1658  0.0248 -0.4957
19351TIP3   OH279467   1.790   0.896  14.199  1.2532 -0.0892  0.2724
19351TIP3    H179468   1.793   0.952  14.122  0.3211  1.2016  1.1464
19351TIP3    H279469   1.773   0.956  14.272  0.0077 -1.5295  1.2074
19352TIP3   OH279470   3.524   3.827  11.606  0.0470 -0.4623  0.1873
19352TIP3    H179471   3.522   3.862  11.695  2.2753  0.6197 -0.1490
19352TIP3    H279472   3.558   3.899  11.553 -3.3257 -0.3220 -1.9324
19353TIP3   OH279473   3.259   1.343   0.772 -0.1311 -0.2841  0.0823
19353TIP3    H179474   3.253   1.248   0.781  0.2986 -0.5063 -1.8276
19353TIP3    H279475   3.342   1.358   0.728 -0.3399  0.9768  0.0938
19354TIP3   OH279476   5.185   6.137   3.077  0.3190  0.6052 -0.2654
19354TIP3    H179477   5.196   6.215   3.023  0.8983  1.0089  0.4222
19354TIP3    H279478   5.231   6.158   3.159  1.1560 -0.7564 -0.3768
19355TIP3   OH279479   5.829   0.625   5.894 -0.1494  0.4337  0.5192
19355TIP3    H179480   5.852   0.638   5.802  1.2600  1.0532  0.9524
19355TIP3    H279481   5.734   0.639   5.897 -0.7021 -2.6480 -1.3614
19356TIP3   OH279482   5.046   4.106  14.602  0.3462 -0.0073 -0.0839
19356TIP3    H179483   5.060   4.192  14.562  2.1570 -1.0627 -1.8174
19356TIP3    H279484   5.119   4.096  14.663 -0.0418 -0.2087  0.3554
19357TIP3   OH279485   3.134   4.611  15.837  0.3008 -0.5492  0.4203
19357TIP3    H179486   3.146   4.625  15.931 -0.2928  0.1682  0.3956
19357TIP3    H279487   3.056   4.556  15.831  0.4749 -0.7892  0.3573
19358TIP3   OH279488   2.271   0.444   4.236  0.2899  0.1710  0.9452
19358TIP3    H179489   2.233   0.520   4.192  2.1617 -0.5126 -2.0140
19358TIP3    H279490   2.268   0.374   4.171  5.2034 -0.2865  1.0070
19359TIP3   OH279491   2.931   0.467  14.167 -0.2858 -0.1105 -0.0849
19359TIP3    H179492   2.906   0.378  14.141 -0.5198  0.2902 -1.2680
19359TIP3    H279493   2.856   0.499  14.217 -0.8425 -0.0397 -0.9557
19360TIP3   OH279494   1.432   1.641  14.563 -0.0971 -0.0933  0.4598
19360TIP3    H179495   1.347   1.668  14.600 -0.9335  1.2485 -2.2817
19360TIP3    H279496   1.413   1.622  14.471  2.5613  0.0365 -0.1498
19361TIP3   OH279497   2.358   2.805   5.391 -0.6029  0.2208  0.1452
19361TIP3    H179498   2.342   2.875   5.454  1.1582  1.3234 -0.6222
19361TIP3    H279499   2.387   2.849   5.312 -1.2179 -1.2685 -0.9313
19362TIP3   OH279500   3.896   2.617   0.020  0.2286 -0.7618 -0.1507
19362TIP3    H179501   3.822   2.640   0.077 -0.5090 -0.3781 -1.2457
19362TIP3    H279502   3.933   2.701  -0.005  0.6468 -0.9385 -0.1195
19363TIP3   OH279503   2.212   2.043  13.462  0.9993 -0.0280  0.3182
19363TIP3    H179504   2.216   2.084  13.376 -0.2337 -0.4970  0.0316
19363TIP3    H279505   2.122   2.057  13.492  0.7793 -1.8318  0.5497
19364TIP3   OH279506   6.717   2.129   0.933 -0.0825  0.2863  0.0012
19364TIP3    H179507   6.707   2.224   0.939 -0.8414  0.2409 -0.4632
19364TIP3    H279508   6.648   2.102   0.871  0.0867 -0.5684  0.1891
19365TIP3   OH279509   0.454   4.089   3.177 -0.3989  0.5188 -0.5186
19365TIP3    H179510   0.487   4.053   3.095 -2.0154 -1.2677 -0.4170
19365TIP3    H279511   0.493   4.035   3.245  0.9633  2.0166 -0.0893
19366TIP3   OH279512   2.216   6.542   5.213 -0.1618  0.3646 -0.1611
19366TIP3    H179513   2.291   6.598   5.194 -0.6680  0.1127 -3.0114
19366TIP3    H279514   2.140   6.599   5.205 -0.4076  0.3300  1.5455
19367TIP3   OH279515   2.778   4.540  14.184 -0.1518  0.0810 -0.0879
19367TIP3    H179516   2.737   4.555  14.270  1.5702  0.7080  0.6463
19367TIP3    H279517   2.851   4.481  14.202 -0.5079 -0.7572 -1.3279
19368TIP3   OH279518   3.425   4.737   5.442  0.3748 -0.5266  0.7389
19368TIP3    H179519   3.399   4.812   5.388  0.1415 -1.3505 -0.3138
19368TIP3    H279520   3.520   4.731   5.429  0.2187 -1.1499 -0.1408
19369TIP3   OH279521   0.305   3.073   2.771 -0.0033  0.2121 -0.4662
19369TIP3    H179522   0.310   3.065   2.866  0.1169 -2.4928 -0.6620
19369TIP3    H279523   0.353   2.997   2.737 -2.5213 -0.4859 -2.6563
19370TIP3   OH279524   3.956   2.679   2.738  0.1311  0.3365 -0.0330
19370TIP3    H179525   3.980   2.771   2.735 -1.9762  0.9832  1.6837
19370TIP3    H279526   3.998   2.646   2.818 -0.4409  0.2144  0.2188
19371TIP3   OH279527   1.831   5.486  15.683  0.1262  0.1846  0.0327
19371TIP3    H179528   1.876   5.524  15.607  0.9803  1.7056  1.2643
19371TIP3    H279529   1.869   5.399  15.693  0.0252 -0.0167 -1.2501
19372TIP3   OH279530   3.265   2.919   0.074 -0.2686 -0.0863 -0.4253
19372TIP3    H179531   3.181   2.955   0.103 -0.3508 -0.0897 -0.6573
19372TIP3    H279532   3.297   2.870   0.150 -0.0930  0.5817 -0.0669
19373TIP3   OH279533   3.446   1.836  13.804  0.2709 -0.0668  0.3552
19373TIP3    H179534   3.405   1.749  13.813 -2.2367  0.9831 -0.5623
19373TIP3    H279535   3.406   1.873  13.726  1.1068  2.0326  0.9068
19374TIP3   OH279536   0.494   3.385  13.947 -0.1515  0.3142 -0.0082
19374TIP3    H179537   0.534   3.432  13.874  0.3009  0.7420  0.5151
19374TIP3    H279538   0.491   3.294  13.918  2.9386 -0.0599  0.6907
19375TIP3   OH279539   4.073   1.616   4.369 -0.4154  0.2038 -0.0459
19375TIP3    H179540   4.159   1.646   4.399  0.3015  0.2315 -2.0509
19375TIP3    H279541   4.013   1.641   4.439  1.1334  0.6899  1.1211
19376TIP3   OH279542   6.558   5.072  11.635 -0.2986 -0.2979  0.3248
19376TIP3    H179543   6.473   5.089  11.594  0.4699  1.0437 -0.7680
19376TIP3    H279544   6.621   5.121  11.581  0.8293  0.9986  2.7331
19377TIP3   OH279545   0.850   6.572  12.236 -0.4374  0.2578  0.2054
19377TIP3    H179546   0.849   6.521  12.156 -0.2015  1.4299 -0.5601
19377TIP3    H279547   0.879   6.511  12.304  1.7620 -0.1431 -1.0389
19378TIP3   OH279548   0.699   5.673   5.795 -0.8144 -0.2260  0.0403
19378TIP3    H179549   0.728   5.678   5.886  0.0216 -1.1433 -0.1707
19378TIP3    H279550   0.635   5.744   5.786 -0.2226  0.4456  1.0885
19379TIP3   OH279551   2.273   4.432   5.651 -0.5812 -0.1716  0.2974
19379TIP3    H179552   2.252   4.405   5.740 -2.0091  1.1966  0.3860
19379TIP3    H279553   2.203   4.394   5.597 -0.7246  0.5132 -0.0053
19380TIP3   OH279554   3.645   1.060  12.932 -0.2382 -0.2930  0.5914
19380TIP3    H179555   3.598   1.113  12.868  1.7414  1.4136  0.5175
19380TIP3    H279556   3.710   1.012  12.880  0.2321 -0.2048  1.0910
19381TIP3   OH279557   5.906   1.191  15.767 -0.0418 -0.7696  0.8432
19381TIP3    H179558   5.918   1.260  15.832 -0.1545 -0.3309  0.4104
19381TIP3    H279559   5.948   1.226  15.688 -1.1387 -0.6780  0.2902
19382TIP3   OH279560   4.160   3.595   5.962 -0.1173  0.1519  0.1291
19382TIP3    H179561   4.094   3.603   6.031 -1.3663 -1.3936 -0.8472
19382TIP3    H279562   4.243   3.602   6.008 -0.9349 -0.4192  1.7482
19383TIP3   OH279563   1.410   5.218   5.696  0.4454 -0.0577  0.1714
19383TIP3    H179564   1.407   5.125   5.717  3.8961 -0.4589 -0.7455
19383TIP3    H279565   1.391   5.222   5.602  2.3650 -0.0807 -0.2331
19384TIP3   OH279566   1.394   2.883  16.938  0.5443 -0.2998  0.4075
19384TIP3    H179567   1.338   2.908  17.012  0.8721  1.0811  0.2007
19384TIP3    H279568   1.376   2.790  16.925 -2.0981  0.2345  0.0195
19385TIP3   OH279569   1.938   1.638  15.184 -0.1300  0.2020  0.6542
19385TIP3    H179570   1.904   1.667  15.268 -0.2173  1.2865  0.2505
19385TIP3    H279571   1.999   1.707  15.157  0.1407 -0.2933 -0.0139
19386TIP3   OH279572   4.975   4.684   1.560  0.4028 -0.5346  0.3248
19386TIP3    H179573   4.886   4.718   1.570  0.1673 -1.3958  1.2739
19386TIP3    H279574   4.967   4.612   1.498  0.4814 -0.4413  0.2064
19387TIP3   OH279575   2.037   4.681  12.514 -0.0463 -0.5783  0.2934
19387TIP3    H179576   1.946   4.711  12.505  0.2770 -0.0022 -1.3100
19387TIP3    H279577   2.077   4.745  12.572  0.2760  1.3682 -1.9999
19388TIP3   OH279578   0.910   5.644  16.288 -0.5301 -0.1738 -0.2259
19388TIP3    H179579   0.929   5.566  16.236 -1.0347 -0.0508 -0.5948
19388TIP3    H279580   0.921   5.615  16.378 -0.7313 -0.6853 -0.3579
19389TIP3   OH279581   3.912   2.796   5.063  0.0131 -0.3757 -0.3104
19389TIP3    H179582   3.838   2.844   5.027  0.5071  1.8820  1.5971
19389TIP3    H279583   3.904   2.807   5.158  3.5009  0.9973 -0.1235
19390TIP3   OH279584   6.677   6.084   1.328  0.1031  0.2110 -0.3798
19390TIP3    H179585   6.763   6.089   1.285 -0.2359  1.5860 -0.9248
19390TIP3    H279586   6.690   6.022   1.400  1.9488  1.4649  0.4116
19391TIP3   OH279587   5.258   3.158   5.824  0.2048 -0.0942 -0.9590
19391TIP3    H179588   5.282   3.069   5.798 -0.0295  0.1716 -2.1401
19391TIP3    H279589   5.168   3.152   5.853  0.7752 -0.5783  0.7765
19392TIP3   OH279590   5.891   2.926  13.633  0.7403 -0.2309 -0.3081
19392TIP3    H179591   5.800   2.914  13.659  0.5400  1.7050 -0.0496
19392TIP3    H279592   5.930   2.839  13.640 -0.3021 -0.5160  2.6374
19393TIP3   OH279593   2.578   3.090  16.770 -0.7862  0.3826  0.2108
19393TIP3    H179594   2.495   3.113  16.727 -0.2925  0.8550 -0.4924
19393TIP3    H279595   2.639   3.158  16.744  0.1622 -0.6267 -0.2588
19394TIP3   OH279596   0.766   0.121   1.084 -0.7140  0.2777  0.2442
19394TIP3    H179597   0.680   0.161   1.084  1.0429  4.2642 -0.4350
19394TIP3    H279598   0.822   0.182   1.132  2.0031 -1.5977 -0.3582
19395TIP3   OH279599   3.529   6.127  17.173 -0.2205 -0.3541  0.0477
19395TIP3    H179600   3.447   6.099  17.214 -0.2725  1.9411  1.5784
19395TIP3    H279601   3.503   6.184  17.101  0.0090  0.4735  0.6086
19396TIP3   OH279602   6.141   1.741  14.189 -0.0010 -0.2424 -0.2362
19396TIP3    H179603   6.098   1.682  14.250 -0.1282  0.8623  0.7477
19396TIP3    H279604   6.169   1.684  14.117 -1.6623 -1.2188 -0.1345
19397TIP3   OH279605   0.184   1.689  15.541 -0.2012 -0.0188 -0.2230
19397TIP3    H179606   0.215   1.671  15.452 -1.1553 -0.4354 -0.4760
19397TIP3    H279607   0.169   1.783  15.542  0.8175  0.1464 -0.1801
19398TIP3   OH279608   2.650   5.678   0.938  0.1319 -0.0860 -0.1656
19398TIP3    H179609   2.725   5.630   0.901 -0.8302 -0.9524 -1.0185
19398TIP3    H279610   2.674   5.770   0.928  1.2369 -0.3667 -0.1312
19399TIP3   OH279611   6.558   0.773   0.454 -0.7581  0.1406 -0.1540
19399TIP3    H179612   6.603   0.796   0.535 -0.9075  1.0510 -0.3226
19399TIP3    H279613   6.476   0.733   0.482 -1.8899  2.5672  0.1748
19400TIP3   OH279614   0.223   5.200   3.210 -0.1731 -0.1373 -0.5140
19400TIP3    H179615   0.226   5.203   3.114  0.6088  2.7207 -0.4315
19400TIP3    H279616   0.131   5.214   3.232 -0.0404  1.2287 -0.8033
19401TIP3   OH279617   0.426   3.516  15.168 -0.2536  0.1454 -0.0704
19401TIP3    H179618   0.396   3.460  15.239 -0.3047  1.6060  1.0808
19401TIP3    H279619   0.346   3.546  15.126 -0.1963 -1.7619 -1.5960
19402TIP3   OH279620   0.251   5.451   4.202  0.1223  0.0656 -0.4697
19402TIP3    H179621   0.297   5.368   4.192 -2.0047 -0.8936 -3.0125
19402TIP3    H279622   0.165   5.426   4.235  0.3447  1.5153  1.2242
19403TIP3   OH279623   1.138   4.606   3.455  0.9305  0.5096  0.0765
19403TIP3    H179624   1.121   4.625   3.547 -2.1637  1.5890 -0.6755
19403TIP3    H279625   1.162   4.690   3.417 -0.0692  0.4932 -0.5881
19404TIP3   OH279626   4.920   1.182  12.739  0.1832 -0.3940 -0.1773
19404TIP3    H179627   4.964   1.215  12.817 -0.7867  1.3481 -0.3547
19404TIP3    H279628   4.947   1.241  12.668 -0.6635 -0.6493 -0.7267
19405TIP3   OH279629   0.187   5.978  12.026  0.1787 -0.0426  0.7628
19405TIP3    H179630   0.132   6.027  12.088  2.2446 -0.6950  3.1971
19405TIP3    H279631   0.269   6.026  12.025 -0.1837  0.6524 -2.4866
19406TIP3   OH279632   3.913   5.036  11.686 -0.0097 -0.4436 -0.6151
19406TIP3    H179633   3.932   5.108  11.746 -0.3183 -0.8971  0.0311
19406TIP3    H279634   3.988   4.977  11.694  0.2082 -0.2356 -1.0904
19407TIP3   OH279635   1.220   3.957  13.301  0.8664  0.2560 -0.1281
19407TIP3    H179636   1.200   3.923  13.388  1.5727  0.6179  0.1824
19407TIP3    H279637   1.158   4.029  13.288  0.9983  0.4364  0.2299
19408TIP3   OH279638   5.949   3.038  11.545 -0.1624  0.4298  0.0679
19408TIP3    H179639   6.020   3.094  11.578 -1.4999  0.5636  2.8937
19408TIP3    H279640   5.988   2.990  11.473  2.0282  2.4874 -0.1972
19409TIP3   OH279641   2.350   0.556  15.247  0.1756 -0.0666  0.2116
19409TIP3    H179642   2.372   0.503  15.323 -0.2449 -1.7724 -0.8299
19409TIP3    H279643   2.288   0.621  15.280  1.7194  0.6725  1.7789
19410TIP3   OH279644   5.837   6.540  16.575  0.3140 -0.2075 -0.4849
19410TIP3    H179645   5.801   6.563  16.661  1.7454  0.7905 -0.1394
19410TIP3    H279646   5.769   6.568  16.513 -1.7033 -2.9018  0.3830
19411TIP3   OH279647   1.993   6.170   6.042  0.3744  0.1328  0.5078
19411TIP3    H179648   1.997   6.077   6.063  0.0535 -0.1366 -0.5792
19411TIP3    H279649   1.908   6.198   6.075  0.4846  0.0473  0.8662
19412TIP3   OH279650   2.523   5.571   5.177 -0.5120 -0.6281  0.1902
19412TIP3    H179651   2.450   5.619   5.138 -1.1296 -2.1001 -0.5386
19412TIP3    H279652   2.582   5.638   5.211 -1.7075  0.5994 -0.1430
19413TIP3   OH279653   3.803   5.244   5.451 -0.1046 -0.5510  0.2772
19413TIP3    H179654   3.831   5.265   5.362 -0.2470 -2.8500 -0.3416
19413TIP3    H279655   3.869   5.182   5.483 -0.1178  0.1788  1.7250
19414TIP3   OH279656   0.910   6.503   0.307 -0.4732 -0.1238 -0.1921
19414TIP3    H179657   0.988   6.516   0.253 -1.2429  0.1937 -1.2349
19414TIP3    H279658   0.944   6.487   0.395  0.7709 -0.1094 -0.6682
19415TIP3   OH279659   4.668   3.593   4.836 -0.2466  0.2274  0.1688
19415TIP3    H179660   4.720   3.553   4.907  1.3396  2.3585  0.2447
19415TIP3    H279661   4.725   3.590   4.760 -0.7997  0.7063 -0.2679
19416TIP3   OH279662   2.605   3.492   4.012  0.1892 -1.0259  0.5005
19416TIP3    H179663   2.591   3.587   4.022  1.5614 -0.9763  2.1037
19416TIP3    H279664   2.698   3.485   3.987  0.0667 -1.9417  0.3177
19417TIP3   OH279665   6.045   3.315   0.698  0.4809 -0.0155 -0.3478
19417TIP3    H179666   6.065   3.302   0.791 -0.4343 -0.6086 -0.2297
19417TIP3    H279667   5.968   3.372   0.698  1.5513  1.4487 -0.7775
19418TIP3   OH279668   2.075   3.784   3.125  0.2442  0.1115  0.0861
19418TIP3    H179669   2.043   3.869   3.154  1.9161  0.1132  1.9394
19418TIP3    H279670   2.048   3.723   3.194 -1.0957 -0.9179 -1.3080
19419TIP3   OH279671   5.743   3.092  13.889 -0.2029  0.4082  0.2238
19419TIP3    H179672   5.697   3.043  13.821 -0.3786  2.4433 -1.1829
19419TIP3    H279673   5.816   3.036  13.914 -1.2517 -1.2006 -0.2674
19420TIP3   OH279674   2.617   3.137  15.263  0.2408  0.4035 -0.3459
19420TIP3    H179675   2.588   3.078  15.194 -2.6535  0.4720  0.7069
19420TIP3    H279676   2.621   3.083  15.341  3.1412  0.4065 -0.4513
19421TIP3   OH279677   6.068   0.711  14.249  0.1942 -0.4272 -0.5020
19421TIP3    H179678   6.104   0.627  14.275  2.8920  0.3990 -1.4162
19421TIP3    H279679   6.028   0.695  14.163 -0.3488 -1.0152 -0.1466
19422TIP3   OH279680   0.050   0.676  17.224 -0.1045  0.0911  0.2172
19422TIP3    H179681   0.003   0.707  17.147  2.9048  1.9024 -0.9647
19422TIP3    H279682   0.088   0.592  17.197  1.3752  0.9725 -0.4521
19423TIP3   OH279683   5.450   2.281  11.936  0.1082 -0.3216  0.3318
19423TIP3    H179684   5.378   2.334  11.971 -0.0846 -1.3151  1.4926
19423TIP3    H279685   5.510   2.344  11.898 -0.8160  0.6147  0.3953
19424TIP3   OH279686   4.470   0.889  14.508  0.7790 -0.2598 -0.2279
19424TIP3    H179687   4.475   0.828  14.434  2.2617  0.0076 -0.3506
19424TIP3    H279688   4.458   0.833  14.584  1.6610 -0.6903 -0.3987
19425TIP3   OH279689   1.702   4.752   1.233  0.7567 -0.6132  0.3445
19425TIP3    H179690   1.705   4.716   1.322  1.3702 -0.1247  0.5281
19425TIP3    H279691   1.787   4.731   1.196  1.0547  0.4653  0.3886
19426TIP3   OH279692   0.092   0.136  14.880  0.6940  0.0653 -0.5119
19426TIP3    H179693   0.177   0.092  14.881 -0.0742 -1.4510  2.0915
19426TIP3    H279694   0.088   0.183  14.963 -0.8301  0.4933 -0.8125
19427TIP3   OH279695   2.112   4.282  11.945 -0.0626  0.5331 -0.9846
19427TIP3    H179696   2.074   4.328  11.871 -0.3150 -0.9763 -1.7994
19427TIP3    H279697   2.089   4.191  11.932 -0.6013  0.3212  1.2570
19428TIP3   OH279698   4.753   6.090   0.447  0.5506  0.2513  0.0361
19428TIP3    H179699   4.753   6.061   0.355  1.6055 -0.2237  0.1842
19428TIP3    H279700   4.737   6.184   0.442 -2.4892 -0.2090 -0.4809
19429TIP3   OH279701   1.784   6.210  14.389  0.6138  0.2061 -0.0822
19429TIP3    H179702   1.816   6.243  14.305  0.5905 -1.2938 -0.6912
19429TIP3    H279703   1.777   6.288  14.444  2.8544  0.9151 -0.7360
19430TIP3   OH279704   4.544   4.178   0.337 -0.0321  0.1203 -0.0451
19430TIP3    H179705   4.597   4.178   0.257 -0.0459 -2.6773 -0.1088
19430TIP3    H279706   4.458   4.145   0.308  0.5320 -2.7744  1.4134
19431TIP3   OH279707   5.711   5.843   0.282 -0.1009 -0.3570 -0.1234
19431TIP3    H179708   5.782   5.828   0.220 -1.0425 -0.6180 -1.1529
19431TIP3    H279709   5.643   5.781   0.257 -0.1785 -1.0411  1.6951
19432TIP3   OH279710   5.515   2.586   5.831 -0.2350 -0.0363 -0.0530
19432TIP3    H179711   5.419   2.588   5.828 -0.2110  1.7074 -0.3338
19432TIP3    H279712   5.542   2.619   5.745  0.6026  0.7889  0.5158
19433TIP3   OH279713   4.022   0.561   5.543 -0.4613  0.0197 -0.5873
19433TIP3    H179714   3.969   0.636   5.569 -1.3829 -0.4545 -1.0631
19433TIP3    H279715   4.012   0.498   5.614  1.4326  0.8792  0.4751
19434TIP3   OH279716   3.324   4.938   0.921 -0.3045 -0.2832  0.3643
19434TIP3    H179717   3.381   4.967   0.849 -0.0086 -2.2008 -0.1849
19434TIP3    H279718   3.240   4.919   0.880 -0.6629  0.2768  0.8190
19435TIP3   OH279719   1.954   1.890   1.289  0.7646 -0.7053 -0.2791
19435TIP3    H179720   2.036   1.931   1.317  0.2412  0.1736 -0.0114
19435TIP3    H279721   1.929   1.939   1.210  0.0561 -0.4063  0.1280
19436TIP3   OH279722   0.387   3.132   0.211 -0.1528 -0.6155 -0.6514
19436TIP3    H179723   0.303   3.092   0.186 -0.1539 -1.0187 -0.0242
19436TIP3    H279724   0.363   3.212   0.257 -0.2023 -0.9704 -0.0645
19437TIP3   OH279725   3.276   0.571   4.422  0.5561 -0.6193 -0.5520
19437TIP3    H179726   3.274   0.542   4.331  1.0973 -0.8287 -0.4959
19437TIP3    H279727   3.184   0.589   4.443  0.5738  0.7217 -1.5445
19438TIP3   OH279728   3.545   0.675   0.349 -0.2443 -0.0313 -0.4805
19438TIP3    H179729   3.578   0.745   0.293 -0.4918  0.3215 -0.1830
19438TIP3    H279730   3.624   0.631   0.380 -0.1261 -2.3938 -3.8124
19439TIP3   OH279731   0.300   5.122  16.527  0.3818 -0.2895 -0.2936
19439TIP3    H179732   0.291   5.180  16.452 -2.3308 -1.3552 -0.8550
19439TIP3    H279733   0.285   5.179  16.603 -0.9432  0.0170 -0.7706
19440TIP3   OH279734   1.786   0.235  14.305 -0.1763  0.1836 -0.0849
19440TIP3    H179735   1.859   0.234  14.367 -0.4436  1.7141  0.2980
19440TIP3    H279736   1.726   0.301  14.341 -1.8496 -1.2178 -0.2720
19441TIP3   OH279737   5.849   2.037   1.237 -0.1043  0.1420 -0.8348
19441TIP3    H179738   5.891   2.069   1.158  1.1479  0.3977 -0.0857
19441TIP3    H279739   5.825   1.946   1.217 -0.6413  0.4946 -1.8152
19442TIP3   OH279740   5.848   0.814  12.658  0.4015 -0.6668 -0.3346
19442TIP3    H179741   5.904   0.761  12.715 -0.2244 -0.0605  0.8457
19442TIP3    H279742   5.838   0.897  12.704  0.2432 -0.0119 -1.5365
19443TIP3   OH279743   4.224   1.870  14.897 -0.1888 -0.3537  0.3733
19443TIP3    H179744   4.226   1.802  14.965  1.0628 -0.1328  0.5643
19443TIP3    H279745   4.156   1.931  14.926  0.3441 -0.2596  1.4359
19444TIP3   OH279746   5.233   0.546  11.399 -0.5919  0.0869 -0.2403
19444TIP3    H179747   5.198   0.458  11.414 -0.7964 -0.2473 -2.4386
19444TIP3    H279748   5.326   0.539  11.421  0.4490 -1.9740 -4.7275
19445TIP3   OH279749   5.531   0.473  15.479 -0.2646  0.0893 -0.2141
19445TIP3    H179750   5.611   0.500  15.525 -0.1851  1.8540 -1.3539
19445TIP3    H279751   5.465   0.467  15.547 -0.5974  4.4395 -0.0369
19446TIP3   OH279752   4.525   3.501  16.513 -0.6110  0.2173  0.2353
19446TIP3    H179753   4.584   3.515  16.587  0.8794 -0.8092 -0.7488
19446TIP3    H279754   4.443   3.543  16.540  0.9766  2.9270  1.0288
19447TIP3   OH279755   3.818   1.733   3.114 -0.1858  0.1837 -0.6856
19447TIP3    H179756   3.768   1.752   3.193  1.2662  0.2766  0.2090
19447TIP3    H279757   3.843   1.819   3.080  1.0629  0.0771 -0.0446
19448TIP3   OH279758   5.896   6.746  14.313 -0.3173  1.0877  0.2664
19448TIP3    H179759   5.853   6.661  14.299  0.7910  0.4766  0.4729
19448TIP3    H279760   5.852   6.782  14.391 -1.4741  1.1669 -0.4127
19449TIP3   OH279761   1.747   4.083   2.704  0.1544 -0.3360  0.4487
19449TIP3    H179762   1.667   4.133   2.719  0.6251  0.6701 -0.3638
19449TIP3    H279763   1.809   4.146   2.668  1.0859 -1.2712  0.3791
19450TIP3   OH279764   0.653   2.399   5.218 -0.0504 -0.6437 -0.0328
19450TIP3    H179765   0.618   2.441   5.140 -0.3350 -1.8323 -0.5550
19450TIP3    H279766   0.723   2.457   5.247 -1.1141  0.7208 -0.1397
19451TIP3   OH279767   6.265   3.691   2.291 -0.0255  0.1609 -0.7494
19451TIP3    H179768   6.281   3.733   2.375  0.5897 -1.3037 -0.1080
19451TIP3    H279769   6.232   3.604   2.314 -0.1719 -0.1306 -2.0214
19452TIP3   OH279770   3.342   0.685   3.207  0.3835  0.1078  0.7122
19452TIP3    H179771   3.326   0.723   3.293 -0.9614 -0.7926  0.8789
19452TIP3    H279772   3.389   0.603   3.224  0.0189 -0.1268  0.6088
19453TIP3   OH279773   2.099   2.718  16.863 -0.3046  0.0396  0.0938
19453TIP3    H179774   2.011   2.698  16.895 -0.1402 -0.0302  0.5087
19453TIP3    H279775   2.149   2.741  16.942 -0.2097  1.0538 -0.2421
19454TIP3   OH279776   5.734   2.599   2.644 -0.1919 -0.5349 -0.0046
19454TIP3    H179777   5.700   2.685   2.667  1.8758  0.2471  0.2570
19454TIP3    H279778   5.765   2.609   2.554  0.0799 -0.9917  0.0373
19455TIP3   OH279779   3.454   2.415   6.223 -0.3098  0.6577 -0.3546
19455TIP3    H179780   3.516   2.485   6.242 -0.6541  0.8624  0.0306
19455TIP3    H279781   3.368   2.455   6.240 -0.6172  0.7651 -2.0474
19456TIP3   OH279782   5.093   4.510   4.942 -0.2531 -0.0277  0.1516
19456TIP3    H179783   5.078   4.601   4.966 -1.1014 -0.2024  0.3019
19456TIP3    H279784   5.119   4.514   4.850  1.5781  0.5159  0.6783
19457TIP3   OH279785   5.914   0.412   3.929 -0.1945 -0.3958 -0.0091
19457TIP3    H179786   6.010   0.409   3.921 -0.2931  0.7246 -1.8635
19457TIP3    H279787   5.891   0.328   3.969  1.6020 -0.4564  0.9482
19458TIP3   OH279788   6.230   1.979  12.627  0.0956  0.1523  0.8718
19458TIP3    H179789   6.274   1.897  12.605  1.7652  1.3612 -0.3707
19458TIP3    H279790   6.288   2.048  12.594 -0.9687  1.8637  2.4483
19459TIP3   OH279791   0.555   2.471  12.753 -0.0614 -0.1265 -0.0441
19459TIP3    H179792   0.579   2.562  12.736 -2.1447  0.7581  1.5972
19459TIP3    H279793   0.597   2.450  12.836  1.4065 -1.0792 -1.0004
19460TIP3   OH279794   1.415   0.809  14.746  0.1307 -0.4797 -0.1321
19460TIP3    H179795   1.445   0.887  14.699 -0.4439  0.6649  1.3702
19460TIP3    H279796   1.370   0.757  14.679  1.2880  0.0519 -1.3344
19461TIP3   OH279797   1.268   3.587  15.222 -0.1173 -0.0425 -0.1825
19461TIP3    H179798   1.194   3.555  15.275 -0.9645  0.2726 -1.1683
19461TIP3    H279799   1.266   3.682  15.233  0.9502 -0.1290  0.8348
19462TIP3   OH279800   4.804   4.981  16.621  0.3577 -0.2861  0.5947
19462TIP3    H179801   4.845   4.896  16.603 -2.0080 -1.4735  0.6188
19462TIP3    H279802   4.783   4.979  16.714 -1.4564 -0.4927  0.2050
19463TIP3   OH279803   6.390   2.868   5.842  0.2556  0.4898 -0.1705
19463TIP3    H179804   6.327   2.799   5.820  0.1372  0.3515  0.5638
19463TIP3    H279805   6.466   2.850   5.786  0.1034 -0.0574 -0.2055
19464TIP3   OH279806   3.869   4.305   0.986 -0.0369 -0.1363 -0.1468
19464TIP3    H179807   3.877   4.354   1.068  4.7761 -0.5143 -0.2734
19464TIP3    H279808   3.919   4.356   0.922 -0.8487 -1.6246 -2.0505
19465TIP3   OH279809   3.971   2.165   2.624 -0.1305  0.0330 -1.0681
19465TIP3    H179810   3.934   2.181   2.711  1.7497 -0.7269 -0.0997
19465TIP3    H279811   3.987   2.252   2.588  1.2025  0.3791  0.2999
19466TIP3   OH279812   1.936   3.424   0.534  0.2906 -0.6084 -0.5863
19466TIP3    H179813   1.869   3.409   0.601  0.5257 -2.7026 -0.8052
19466TIP3    H279814   1.889   3.468   0.463 -1.1224 -3.0173 -1.1856
19467TIP3   OH279815   0.157   3.822   4.315 -0.1600 -0.3225 -0.0690
19467TIP3    H179816   0.146   3.736   4.355 -0.4702  0.1973  0.9811
19467TIP3    H279817   0.068   3.851   4.295 -0.2984  1.1059  2.4990
19468TIP3   OH279818   4.889   1.831  14.378 -0.0694 -0.3529  0.2779
19468TIP3    H179819   4.863   1.828  14.470  0.2954 -1.7575  0.3452
19468TIP3    H279820   4.936   1.749  14.364  0.0584 -0.0482 -1.1099
19469TIP3   OH279821   6.289   1.198  14.241  0.2109  0.0286  0.0177
19469TIP3    H179822   6.244   1.167  14.320 -1.1185 -2.5604 -1.6819
19469TIP3    H279823   6.226   1.257  14.199  0.1577 -0.0943 -0.0744
19470TIP3   OH279824   4.495   3.763   4.986 -0.0108 -0.2377 -0.0894
19470TIP3    H179825   4.532   3.695   4.929  1.6405  0.0355  0.6024
19470TIP3    H279826   4.472   3.716   5.066  1.3861  0.0330  0.4923
19471TIP3   OH279827   6.034   4.955  11.472 -0.6621 -0.4676  0.6688
19471TIP3    H179828   6.079   5.040  11.471 -0.9145 -0.3234  1.3408
19471TIP3    H279829   6.086   4.900  11.413  1.3895 -0.8017  2.6774
19472TIP3   OH279830   1.555   0.349  14.448 -0.0370  0.0808 -0.2959
19472TIP3    H179831   1.632   0.375  14.498 -0.8429  2.4636 -0.2215
19472TIP3    H279832   1.512   0.284  14.503  1.2034 -0.2832  0.2673
19473TIP3   OH279833   5.031   3.079   4.397  0.3680 -0.1398 -0.0636
19473TIP3    H179834   5.102   3.039   4.448  1.0756  0.2723 -0.7029
19473TIP3    H279835   4.975   3.006   4.372  0.2220 -0.3874  0.9938
19474TIP3   OH279836   5.815   4.169   3.842  0.3680  0.4824  0.4506
19474TIP3    H179837   5.732   4.217   3.838 -0.7066 -1.3686  0.0538
19474TIP3    H279838   5.829   4.155   3.936  0.9747  2.0280  0.6043
19475TIP3   OH279839   2.075   0.701   5.270 -0.3825 -0.0640 -0.1530
19475TIP3    H179840   2.024   0.767   5.317 -1.8887 -2.4131  1.5890
19475TIP3    H279841   2.052   0.715   5.178 -2.2827  0.5278  0.3880
19476TIP3   OH279842   4.034   2.372  14.133  0.0054  0.0348  0.0457
19476TIP3    H179843   4.020   2.462  14.104 -1.6784 -0.1169  0.3300
19476TIP3    H279844   4.009   2.318  14.058 -0.6963 -0.2370  0.4674
19477TIP3   OH279845   2.389   1.053   5.269 -1.0023 -0.2602  0.3551
19477TIP3    H179846   2.458   1.045   5.335 -1.5340  0.0962  0.9619
19477TIP3    H279847   2.388   0.968   5.225  0.2593 -0.0641 -0.1018
19478TIP3   OH279848   1.065   5.128   1.527 -0.4129 -0.2035 -0.1799
19478TIP3    H179849   1.112   5.047   1.508 -1.3140 -0.6109 -0.6513
19478TIP3    H279850   1.112   5.195   1.476 -1.3003 -0.8776 -1.8909
19479TIP3   OH279851   5.563   0.392   5.679 -0.2860 -0.4862  0.3294
19479TIP3    H179852   5.621   0.423   5.749 -0.4345  0.0318  0.2197
19479TIP3    H279853   5.594   0.436   5.600  0.3227 -1.5969 -0.0703
19480TIP3   OH279854   3.962   4.666  15.927 -0.4087  0.3393  0.3307
19480TIP3    H179855   4.002   4.581  15.914 -1.5445 -0.2314  0.5172
19480TIP3    H279856   3.931   4.692  15.840  1.7059  1.4851 -0.1170
19481TIP3   OH279857   5.289   5.388  16.241 -0.2353  0.0649  0.2276
19481TIP3    H179858   5.228   5.380  16.315 -2.0951  3.1469 -0.8415
19481TIP3    H279859   5.371   5.353  16.274 -2.3501 -3.5564  1.9740
19482TIP3   OH279860   1.623   3.154  10.770  0.4353  0.4085 -0.3815
19482TIP3    H179861   1.562   3.208  10.719  0.5297  1.0971  0.2167
19482TIP3    H279862   1.710   3.185  10.744  0.5071  0.0683 -0.5472
19483TIP3   OH279863   5.057   6.257  14.544  0.0535  0.1269  0.2533
19483TIP3    H179864   5.139   6.208  14.533 -0.5066 -0.9135  0.6707
19483TIP3    H279865   5.020   6.223  14.625 -0.0582  1.6765  0.8745
19484TIP3   OH279866   6.074   3.250   0.983 -0.2151 -0.1069 -0.4085
19484TIP3    H179867   5.991   3.263   1.028  0.0191  0.8250 -0.2397
19484TIP3    H279868   6.138   3.299   1.036  0.4288 -0.7625 -0.5693
19485TIP3   OH279869   3.344   5.351  12.068 -0.0278  0.1611  0.2477
19485TIP3    H179870   3.436   5.377  12.059  0.0578 -0.2592 -0.0800
19485TIP3    H279871   3.346   5.271  12.120 -0.2810  0.6836  1.0781
19486TIP3   OH279872   3.288   1.899   1.004 -0.1470  0.0015 -0.5805
19486TIP3    H179873   3.211   1.956   1.001 -0.5954 -0.4342  1.7501
19486TIP3    H279874   3.362   1.958   0.991 -0.7811  0.6749 -1.1342
19487TIP3   OH279875   2.803   4.554  15.991  0.4463  0.0007 -0.5098
19487TIP3    H179876   2.883   4.513  16.023  0.8951  2.1971  1.2908
19487TIP3    H279877   2.833   4.615  15.923  0.2309  0.3817 -0.2642
19488TIP3   OH279878   4.498   4.807  11.735  0.5759 -0.5123  0.6637
19488TIP3    H179879   4.470   4.846  11.652  1.4131 -0.5532  0.3574
19488TIP3    H279880   4.442   4.729  11.745  0.7688 -0.7479 -0.0757
19489TIP3   OH279881   2.135   2.531  15.352  0.0821 -0.1976  0.0162
19489TIP3    H179882   2.179   2.487  15.424 -0.3677 -0.0693  0.3745
19489TIP3    H279883   2.181   2.615  15.343 -0.6584  0.3273  0.9893
19490TIP3   OH279884   2.814   2.303   5.949 -0.0909  0.4948 -0.0385
19490TIP3    H179885   2.880   2.320   6.016  0.6133 -0.1492 -0.5639
19490TIP3    H279886   2.841   2.355   5.874 -1.7907  2.5309  0.7096
19491TIP3   OH279887   4.182   6.010   3.356  0.0259  0.1870  0.1144
19491TIP3    H179888   4.113   6.048   3.411  0.5360  1.2573  0.0234
19491TIP3    H279889   4.249   5.983   3.418  0.1873  0.5355  0.0941
19492TIP3   OH279890   4.639   6.514  13.746 -0.2992  0.2770 -0.4822
19492TIP3    H179891   4.579   6.479  13.811  1.3271 -1.6830  0.0148
19492TIP3    H279892   4.671   6.438  13.698  1.2064  1.3346 -1.2219
19493TIP3   OH279893   2.412   3.535   1.294 -0.2610 -0.1882 -0.1535
19493TIP3    H179894   2.473   3.480   1.245 -0.6581  1.7747 -3.0093
19493TIP3    H279895   2.467   3.587   1.352  0.5765 -0.2743 -0.8615
19494TIP3   OH279896   1.125   3.208   2.601  0.3797  0.4980  0.1368
19494TIP3    H179897   1.051   3.260   2.632 -0.5764 -1.4862  1.2667
19494TIP3    H279898   1.097   3.117   2.611  2.7048 -0.2894 -0.0847
19495TIP3   OH279899   6.336   4.240  11.716 -0.7253 -0.4343 -0.6557
19495TIP3    H179900   6.388   4.250  11.637  0.0027 -0.2447 -0.1637
19495TIP3    H279901   6.400   4.246  11.787 -1.6722  1.7007  0.0379
19496TIP3   OH279902   1.302   3.512   0.263  0.5952  0.0895 -0.4022
19496TIP3    H179903   1.262   3.596   0.239 -0.3917 -0.2243  0.0902
19496TIP3    H279904   1.348   3.484   0.184  2.3195  1.8750 -0.0569
19497TIP3   OH279905   3.917   1.178   3.409  0.1807  0.2482 -0.5915
19497TIP3    H179906   3.986   1.222   3.460 -0.6584  0.4477  0.3881
19497TIP3    H279907   3.953   1.091   3.392  0.1059 -0.1637  1.1892
19498TIP3   OH279908   3.647   1.294  14.336  0.3623 -0.1196 -0.0910
19498TIP3    H179909   3.706   1.221  14.354  0.8073 -0.2987 -2.1799
19498TIP3    H279910   3.584   1.292  14.408  2.4752 -0.3515  1.7751
19499TIP3   OH279911   6.352   3.602  14.580  0.0300  0.2971 -0.2545
19499TIP3    H179912   6.409   3.534  14.544  1.6788  0.3476  2.1285
19499TIP3    H279913   6.269   3.591  14.535  0.2080 -3.4320  0.2021
19500TIP3   OH279914   5.954   2.696  14.019  0.0960  0.6307 -0.5173
19500TIP3    H179915   5.986   2.771  13.970  1.7570 -0.0420 -0.5093
19500TIP3    H279916   6.019   2.682  14.088 -1.8701  1.1749  1.5397
19501TIP3   OH279917   4.369   2.573  15.268 -0.3006  0.1858  0.1447
19501TIP3    H179918   4.408   2.581  15.355  0.5159  1.9500 -0.3606
19501TIP3    H279919   4.277   2.597  15.281  0.3110  2.6677  0.1535
19502TIP3   OH279920   4.884   0.067   1.473  0.1876  0.4670  0.1935
19502TIP3    H179921   4.814   0.124   1.507  0.4545 -0.1855  1.8436
19502TIP3    H279922   4.939   0.048   1.549  0.8174 -0.9756 -0.6087
19503TIP3   OH279923   5.622   1.962  12.131  0.1508 -0.1986 -0.3999
19503TIP3    H179924   5.710   1.952  12.168  0.7894 -0.0326 -1.8325
19503TIP3    H279925   5.597   1.873  12.105 -0.9117 -0.5628  1.7207
19504TIP3   OH279926   1.173   5.240  15.631 -0.7223  0.1956 -0.5768
19504TIP3    H179927   1.240   5.284  15.683 -1.3723 -0.0925  0.5164
19504TIP3    H279928   1.219   5.213  15.551  0.2584  0.7133 -0.2002
19505TIP3   OH279929   2.712   1.131   6.784 -0.5307 -0.3041 -0.5925
19505TIP3    H179930   2.782   1.094   6.839 -0.1047 -0.0126 -0.9324
19505TIP3    H279931   2.639   1.144   6.844  0.3641  1.2518  0.1953
19506TIP3   OH279932   0.759   3.327  14.252  0.5290 -0.7108 -0.2634
19506TIP3    H179933   0.760   3.414  14.293 -1.0336 -0.5298 -0.5783
19506TIP3    H279934   0.698   3.276  14.305 -0.5498 -0.8437 -1.6100
19507TIP3   OH279935   2.783   3.264  13.629 -0.3276 -0.3046 -0.3070
19507TIP3    H179936   2.874   3.280  13.604 -0.1498 -2.2915 -0.9935
19507TIP3    H279937   2.747   3.352  13.645  1.9946  0.4404  1.0396
19508TIP3   OH279938   4.944   0.082   2.440 -0.7092  0.7086  0.0699
19508TIP3    H179939   4.952  -0.007   2.405 -0.6718  2.4370 -4.8113
19508TIP3    H279940   5.027   0.125   2.417 -1.5686  2.5902  0.3339
19509TIP3   OH279941   1.879   5.721  15.826  0.3224 -0.8740 -0.3857
19509TIP3    H179942   1.910   5.784  15.761  1.9077 -2.8517 -1.5904
19509TIP3    H279943   1.846   5.647  15.775 -0.6452 -1.4476  1.0166
19510TIP3   OH279944   1.466   2.674  15.119 -0.1601  0.3307 -0.1874
19510TIP3    H179945   1.446   2.599  15.175 -0.6659 -0.4205 -1.3493
19510TIP3    H279946   1.559   2.691  15.133  0.1870 -1.1286 -0.6207
19511TIP3   OH279947   2.209   3.787  14.083  0.2812  0.3940 -0.1242
19511TIP3    H179948   2.146   3.716  14.077 -0.0386  0.7149 -0.6405
19511TIP3    H279949   2.161   3.864  14.054  1.1783  0.4753 -1.4335
19512TIP3   OH279950   5.672   3.840   5.493 -0.8527  0.5365 -0.2433
19512TIP3    H179951   5.649   3.833   5.400  1.0682 -0.8727 -0.6548
19512TIP3    H279952   5.684   3.749   5.521 -1.2355  0.9633  1.3419
19513TIP3   OH279953   4.040   1.701  12.327  0.2096 -0.1810  0.2181
19513TIP3    H179954   4.119   1.749  12.350 -0.0673  0.2683  0.2373
19513TIP3    H279955   4.068   1.641  12.257  0.6316 -0.2399  0.4348
19514TIP3   OH279956   4.621   2.594   3.619  0.5374  0.0255 -0.3307
19514TIP3    H179957   4.702   2.543   3.617  0.0649 -0.7505 -0.2753
19514TIP3    H279958   4.552   2.528   3.630 -0.0289  0.7473  0.4957
19515TIP3   OH279959   1.158   5.651  12.161  0.2819 -0.4891  0.3734
19515TIP3    H179960   1.184   5.621  12.248  1.3217 -0.6953  0.0003
19515TIP3    H279961   1.240   5.676  12.118 -0.3267  0.6778 -0.1518
19516TIP3   OH279962   2.904   2.285  16.271 -0.6259  0.5755 -0.0065
19516TIP3    H179963   2.990   2.310  16.304 -1.5865  0.9236  2.3443
19516TIP3    H279964   2.894   2.333  16.189  1.1437  1.0246  0.0316
19517TIP3   OH279965   2.577   1.049  17.180 -0.4531 -0.5166 -0.6229
19517TIP3    H179966   2.669   1.053  17.156 -0.6027  0.7152 -1.0258
19517TIP3    H279967   2.562   0.958  17.204  0.4702 -1.1019 -2.1728
19518TIP3   OH279968   6.757   5.740  16.231  0.3884 -0.3885 -0.3439
19518TIP3    H179969   6.664   5.734  16.207  0.8030  1.7009 -2.7534
19518TIP3    H279970   6.771   5.834  16.248  2.0106 -0.7232  0.2004
19519TIP3   OH279971   2.017   5.280   5.407 -0.3390  0.3020  0.3451
19519TIP3    H179972   1.952   5.225   5.361  0.8882 -0.2040 -0.8168
19519TIP3    H279973   2.063   5.325   5.337 -0.6098  2.0206  1.2619
19520TIP3   OH279974   2.578   6.034  15.842  0.5111 -0.0246  0.0533
19520TIP3    H179975   2.578   5.972  15.915 -0.9082 -0.5957 -0.4059
19520TIP3    H279976   2.541   5.984  15.769  0.5350  0.9865 -0.6616
19521TIP3   OH279977   1.723   2.935   5.221 -0.1833 -0.0533 -0.1696
19521TIP3    H179978   1.658   2.999   5.251  0.9099  1.3959 -0.8409
19521TIP3    H279979   1.710   2.860   5.278 -1.1514  0.9569  0.9720
19522TIP3   OH279980   5.588   3.093  10.875 -0.0187 -0.3750  0.0859
19522TIP3    H179981   5.494   3.081  10.865 -0.1492 -0.9332  1.7490
19522TIP3    H279982   5.609   3.170  10.823 -1.5472  0.3192  0.4861
19523TIP3   OH279983   4.681   5.039  16.239 -0.8172 -0.0925  0.2297
19523TIP3    H179984   4.752   4.983  16.207 -1.4176 -1.2193  0.8459
19523TIP3    H279985   4.629   4.982  16.295 -3.4827  0.0945 -1.9731
19524TIP3   OH279986   3.467   0.691   5.581 -0.2692  0.2396 -0.0730
19524TIP3    H179987   3.558   0.670   5.561 -0.4703 -0.6646 -0.0657
19524TIP3    H279988   3.429   0.716   5.496 -0.4287 -0.9646 -0.3599
19525TIP3   OH279989   0.227   2.843   3.382 -0.1124  0.5177  1.0539
19525TIP3    H179990   0.256   2.756   3.410  0.5069  0.4554  0.2663
19525TIP3    H279991   0.164   2.870   3.448 -0.3450 -0.5527  1.2843
19526TIP3   OH279992   4.807   4.174   4.419 -0.5771 -0.1309 -0.4988
19526TIP3    H179993   4.788   4.114   4.491 -0.2453  0.9312  0.4853
19526TIP3    H279994   4.741   4.153   4.353  1.5548 -3.7985 -1.5583
19527TIP3   OH279995   1.749   6.411  15.533 -1.0582  0.3037  0.0287
19527TIP3    H179996   1.700   6.337  15.498 -1.0572 -0.4979  1.6266
19527TIP3    H279997   1.700   6.488  15.507 -2.3523 -0.4035  0.3370
19528TIP3   OH279998   1.148   5.360  11.142 -0.2023  0.2942  0.0244
19528TIP3    H179999   1.243   5.366  11.142 -0.1660 -0.3228  0.0522
19528TIP3    H280000   1.118   5.451  11.140  0.3788  0.4558 -2.3966
19529TIP3   OH280001   0.914   2.182  17.073  0.1125  0.6746  0.1639
19529TIP3    H180002   0.989   2.202  17.017  1.3379  1.4396  2.0102
19529TIP3    H280003   0.952   2.134  17.147 -1.4878 -0.4566  0.2672
19530TIP3   OH280004   1.086   0.046  12.995 -0.0939  0.2878  0.0689
19530TIP3    H180005   1.046  -0.039  13.015  0.6070  0.1248  0.7668
19530TIP3    H280006   1.040   0.108  13.052 -1.0279  0.4855 -0.8702
19531TIP3   OH280007   4.689   1.208  15.838  0.1847  0.2905  0.2103
19531TIP3    H180008   4.652   1.126  15.805  0.3011 -0.3386  1.5873
19531TIP3    H280009   4.752   1.235  15.771 -0.2393 -0.4701 -0.5016
19532TIP3   OH280010   2.289   2.419  14.369 -0.5986  0.4434  0.1169
19532TIP3    H180011   2.219   2.399  14.432  0.3556 -2.0970  0.4099
19532TIP3    H280012   2.348   2.477  14.417 -1.1963  0.5829  0.6972
19533TIP3   OH280013   3.739   0.568   1.617 -0.5217  0.3387  0.2773
19533TIP3    H180014   3.729   0.600   1.528  0.4531  0.4000  0.1841
19533TIP3    H280015   3.823   0.603   1.646 -0.5167 -0.2435  0.9829
19534TIP3   OH280016   3.729   4.509  16.362  0.5153  0.0833  0.3065
19534TIP3    H180017   3.813   4.507  16.315 -0.1389 -0.9156 -0.8504
19534TIP3    H280018   3.706   4.417  16.375  0.1685  0.3507  1.6795
19535TIP3   OH280019   4.068   5.301  13.668  0.0956 -0.2330  0.2985
19535TIP3    H180020   4.111   5.383  13.643 -1.0411 -0.0768 -1.2172
19535TIP3    H280021   4.134   5.234  13.655  0.5861  0.2701  0.1901
19536TIP3   OH280022   6.005   3.009  16.962 -0.3007  0.2776 -0.3036
19536TIP3    H180023   6.050   3.088  16.992  0.2650 -0.0704 -0.2299
19536TIP3    H280024   6.057   2.978  16.888  0.2027 -0.7447  0.4798
19537TIP3   OH280025   0.516   5.185   5.607  0.6457  0.3401 -0.7203
19537TIP3    H180026   0.439   5.151   5.652 -0.0512 -1.5798 -3.2174
19537TIP3    H280027   0.571   5.221   5.676 -1.0678 -1.1238  1.4598
19538TIP3   OH280028   3.092   5.162   0.019 -0.0333 -0.3871  0.0356
19538TIP3    H180029   3.167   5.127   0.066 -2.2368 -0.8002  3.4289
19538TIP3    H280030   3.103   5.257   0.024  0.1306 -0.4389  0.8135
19539TIP3   OH280031   2.904   5.988  12.106 -0.1807 -0.3344 -0.1596
19539TIP3    H180032   2.883   5.898  12.083 -1.4373  0.5029 -2.5626
19539TIP3    H280033   2.839   6.012  12.172 -0.2508 -0.9728  0.0092
19540TIP3   OH280034   2.430   0.903  13.137  0.5176  0.7203 -0.6572
19540TIP3    H180035   2.373   0.891  13.060 -0.2429  2.4195 -0.3983
19540TIP3    H280036   2.519   0.900  13.102  0.1980  0.5288 -1.4662
19541TIP3   OH280037   6.713   3.336   0.579 -0.2378  1.0090  0.2040
19541TIP3    H180038   6.684   3.427   0.577 -0.3472  0.9613 -0.9368
19541TIP3    H280039   6.715   3.313   0.672  0.1035  2.2713  0.5200
19542TIP3   OH280040   4.995   2.451   0.427 -0.3108  0.0188  0.3527
19542TIP3    H180041   4.947   2.404   0.359 -1.7261  3.9800 -1.5636
19542TIP3    H280042   4.928   2.472   0.493 -0.4142  2.0026 -0.3467
19543TIP3   OH280043   6.173   1.957   3.428  0.0188  0.3384 -0.0382
19543TIP3    H180044   6.252   1.911   3.455 -0.2893  0.7823  1.7024
19543TIP3    H280045   6.101   1.906   3.465 -0.3708  1.5082  0.8715
19544TIP3   OH280046   5.487   6.727   0.239  0.7036  0.1607 -0.0324
19544TIP3    H180047   5.475   6.634   0.256  1.6325 -0.5016 -2.7775
19544TIP3    H280048   5.414   6.750   0.181  0.0743  1.3459  1.1802
19545TIP3   OH280049   5.838   0.085   5.924  0.5621  0.3076  0.0270
19545TIP3    H180050   5.852   0.166   5.875  0.5873  0.0295 -0.4259
19545TIP3    H280051   5.778   0.110   5.994 -2.7576 -0.2022 -2.5624
19546TIP3   OH280052   2.539   4.183  12.809 -0.5388 -0.0548  0.1533
19546TIP3    H180053   2.499   4.105  12.847  1.2563 -1.2361 -0.3079
19546TIP3    H280054   2.543   4.165  12.715  1.5504 -0.2292  0.2392
19547TIP3   OH280055   6.216   0.601   3.456  0.5355 -0.2145 -0.5541
19547TIP3    H180056   6.130   0.618   3.495  1.2226 -1.7419  1.7527
19547TIP3    H280057   6.274   0.664   3.499  0.7274  0.2300 -1.4669
19548TIP3   OH280058   1.303   2.205   5.851 -0.5795 -0.3888  0.1890
19548TIP3    H180059   1.270   2.291   5.875 -1.0871 -1.1873  2.4450
19548TIP3    H280060   1.245   2.176   5.780 -1.6162  0.2870  0.7566
19549TIP3   OH280061   1.502   1.467   5.269 -0.2624 -0.7504 -0.2753
19549TIP3    H180062   1.450   1.490   5.345 -0.5394 -0.4479 -0.5523
19549TIP3    H280063   1.590   1.451   5.303 -0.2372  0.0100  0.0159
19550TIP3   OH280064   4.198   1.528   3.217 -0.0400 -0.4886  0.2875
19550TIP3    H180065   4.137   1.506   3.146 -1.5255 -1.1963  1.7454
19550TIP3    H280066   4.213   1.446   3.263 -0.5992  0.3025  1.9280
19551TIP3   OH280067   0.150   1.071   5.938 -0.1145  0.3100 -0.4945
19551TIP3    H180068   0.158   1.046   6.029  0.2490  0.7420 -0.4044
19551TIP3    H280069   0.084   1.012   5.902  1.8351 -1.8145 -0.6916
19552TIP3   OH280070   0.906   2.512   3.994 -0.1242  0.0557 -0.6222
19552TIP3    H180071   0.867   2.482   4.076 -0.7318 -0.5715 -1.1334
19552TIP3    H280072   0.986   2.459   3.985 -0.6133 -0.6370 -0.9616
19553TIP3   OH280073   1.412   2.280  14.499 -0.1696 -0.1847  0.2422
19553TIP3    H180074   1.349   2.336  14.546 -1.0227 -1.3142  0.4606
19553TIP3    H280075   1.470   2.246  14.566 -0.0004 -0.0167  0.1826
19554TIP3   OH280076   3.887   2.761  12.633  0.6995 -0.4058 -0.8675
19554TIP3    H180077   3.915   2.701  12.702  0.4140 -1.2021 -1.4435
19554TIP3    H280078   3.968   2.785  12.587  1.0815  1.2136  0.5931
19555TIP3   OH280079   0.175   1.328  13.126 -0.0906 -0.0849  0.1980
19555TIP3    H180080   0.181   1.422  13.109 -1.4179  0.2723  1.5835
19555TIP3    H280081   0.250   1.310  13.184  2.0868 -0.5488 -2.6534
19556TIP3   OH280082   2.415   2.309   2.497 -0.1079  0.0850 -0.1663
19556TIP3    H180083   2.350   2.331   2.564 -1.8423 -1.6629 -1.2037
19556TIP3    H280084   2.497   2.344   2.530 -1.4392  1.6374  1.5797
19557TIP3   OH280085   4.126   0.491  12.160 -0.5519  0.0215 -0.1168
19557TIP3    H180086   4.053   0.480  12.221 -0.3684  0.3391  0.1603
19557TIP3    H280087   4.090   0.546  12.090 -0.0582  1.6828  0.9181
19558TIP3   OH280088   3.733   1.657  11.290 -0.2957  0.4908  0.6095
19558TIP3    H180089   3.688   1.581  11.327 -0.2920 -0.5542 -1.4821
19558TIP3    H280090   3.664   1.706  11.246  0.2366 -0.0084 -0.8004
19559TIP3   OH280091   0.369   3.427   0.209 -0.5364  0.1760 -0.1389
19559TIP3    H180092   0.313   3.447   0.134  1.3822  0.8050 -1.4346
19559TIP3    H280093   0.393   3.512   0.245 -2.0572 -0.1281  1.7118
19560TIP3   OH280094   3.777   0.391   3.558 -0.2451  0.6216  0.5047
19560TIP3    H180095   3.848   0.367   3.498 -1.7423  0.5512 -1.2763
19560TIP3    H280096   3.755   0.481   3.535 -2.4307 -0.1880 -0.7016
19561TIP3   OH280097   5.405   0.520   5.001 -0.1570 -0.4812  0.4432
19561TIP3    H180098   5.416   0.519   4.906  0.7982  1.3779  0.5090
19561TIP3    H280099   5.420   0.611   5.026 -0.7634 -0.8723  2.3461
19562TIP3   OH280100   0.083   2.711  13.079 -0.5522  0.2902 -0.1410
19562TIP3    H180101   0.155   2.722  13.140  0.2965 -0.1767 -1.0500
19562TIP3    H280102   0.047   2.625  13.099  0.5717 -0.4412 -1.1578
19563TIP3   OH280103   2.193   4.863  15.309  0.3156  0.3210  0.0455
19563TIP3    H180104   2.149   4.925  15.368 -0.2438  0.1732 -0.2181
19563TIP3    H280105   2.132   4.790  15.300  0.2965  0.4478 -0.9030
19564TIP3   OH280106   0.311   5.988   4.241  0.7468  0.8333  0.3773
19564TIP3    H180107   0.226   6.032   4.241  0.7972  0.9642  1.4854
19564TIP3    H280108   0.302   5.918   4.176  0.1284  1.4639 -0.2240
19565TIP3   OH280109   6.312   2.682   4.603 -0.2042  0.2818 -0.5108
19565TIP3    H180110   6.295   2.775   4.613 -1.0315  0.0182  0.7292
19565TIP3    H280111   6.358   2.657   4.683 -0.0596 -0.3889 -0.7948
19566TIP3   OH280112   4.866   6.559  11.830  0.5004  0.2266 -0.1490
19566TIP3    H180113   4.789   6.580  11.778  1.5964  1.3661 -1.3516
19566TIP3    H280114   4.884   6.639  11.879 -0.0644 -0.5887  1.4268
19567TIP3   OH280115   0.921   4.650   2.295 -0.7787 -0.6468  0.1323
19567TIP3    H180116   1.003   4.604   2.315 -0.1223  1.0748  1.5501
19567TIP3    H280117   0.901   4.625   2.205  1.5665 -0.7298 -0.4040
19568TIP3   OH280118   5.125   1.105   4.299 -0.5830 -0.5237 -0.4682
19568TIP3    H180119   5.138   1.171   4.367 -2.2286 -1.1032  0.4505
19568TIP3    H280120   5.207   1.106   4.249  0.2784  0.6169  0.8983
19569TIP3   OH280121   3.503   4.768  15.917  0.0044 -0.2854 -0.4879
19569TIP3    H180122   3.548   4.719  15.986 -0.2457 -1.1812 -0.9436
19569TIP3    H280123   3.573   4.807  15.865  0.1791  0.8413  0.5866
19570TIP3   OH280124   6.695   5.666   2.848  0.1751  0.0998 -0.7038
19570TIP3    H180125   6.665   5.595   2.904 -0.0629  0.6111 -0.1735
19570TIP3    H280126   6.749   5.624   2.781 -0.4797 -0.6471 -0.7618
19571TIP3   OH280127   2.109   6.265   1.347 -0.0777 -0.1196 -0.1512
19571TIP3    H180128   2.120   6.360   1.352  0.6192 -0.2045 -0.0149
19571TIP3    H280129   2.106   6.246   1.253  1.3877 -0.1374 -0.2037
19572TIP3   OH280130   5.831   5.308  14.239 -0.3549 -0.2819 -0.0573
19572TIP3    H180131   5.787   5.238  14.192  0.9161  0.2203 -2.0473
19572TIP3    H280132   5.869   5.265  14.316 -1.5038 -1.3242 -0.0517
19573TIP3   OH280133   3.943   4.444  17.169  0.7710  0.3207 -0.1046
19573TIP3    H180134   3.924   4.538  17.165 -0.4834  0.0016 -2.1866
19573TIP3    H280135   3.866   4.402  17.130  1.2781 -1.5925  0.8742
19574TIP3   OH280136   6.535   5.553  14.468 -0.0441  0.1935  0.1627
19574TIP3    H180137   6.615   5.561  14.416 -0.8324  0.9445 -0.9680
19574TIP3    H280138   6.563   5.570  14.558  1.4186 -1.5576  0.0666
19575TIP3   OH280139   1.521   3.781  10.820 -0.2393 -0.5376 -0.1003
19575TIP3    H180140   1.515   3.862  10.873  0.0467 -0.9900  0.6330
19575TIP3    H280141   1.521   3.711  10.885 -0.2161 -1.1190 -0.7320
19576TIP3   OH280142   2.815   4.704  11.361 -0.1406 -0.4175  0.4120
19576TIP3    H180143   2.830   4.798  11.352  3.3941 -0.9787 -0.2749
19576TIP3    H280144   2.783   4.677  11.275 -0.5772  0.0412  0.4280
19577TIP3   OH280145   5.890   0.962   4.361 -0.0810 -0.2240  0.5245
19577TIP3    H180146   5.917   0.884   4.312  3.2244  0.6586  0.8191
19577TIP3    H280147   5.876   1.029   4.294  0.9065 -0.0028  0.5394
19578TIP3   OH280148   5.843   1.384   3.522  0.2280  0.5916  0.1337
19578TIP3    H180149   5.857   1.325   3.596 -1.3899  1.0101  0.7916
19578TIP3    H280150   5.904   1.353   3.455 -0.6357 -1.8900  0.4298
19579TIP3   OH280151   3.497   2.450   0.808  0.6326 -0.4210 -0.3243
19579TIP3    H180152   3.497   2.367   0.856 -1.5782  0.3513  1.0879
19579TIP3    H280153   3.526   2.515   0.873  1.0221  0.1190 -1.0323
19580TIP3   OH280154   4.796   0.528  14.115 -0.5499  0.0981 -0.4030
19580TIP3    H180155   4.741   0.478  14.055  1.5904  0.4322 -2.7196
19580TIP3    H280156   4.825   0.604  14.064 -0.4334  1.5607  1.7578
19581TIP3   OH280157   1.685   0.715   5.544  0.5081  0.0224 -0.3968
19581TIP3    H180158   1.598   0.674   5.540  0.9189 -0.7832 -1.2430
19581TIP3    H280159   1.716   0.695   5.633  0.5380 -1.1862 -0.6659
19582TIP3   OH280160   0.366   1.121   3.547 -0.2041  0.3989 -0.9748
19582TIP3    H180161   0.394   1.189   3.608 -0.1590 -0.5164  0.0321
19582TIP3    H280162   0.284   1.089   3.584 -1.2346  1.2195 -2.4763
19583TIP3   OH280163   4.481   3.804  14.346 -0.4127 -0.2727 -0.5486
19583TIP3    H180164   4.521   3.865  14.408  1.3961 -2.5006  0.5398
19583TIP3    H280165   4.397   3.781  14.387 -0.6561  0.7166 -0.4817
19584TIP3   OH280166   3.207   3.301   4.170 -0.0058 -0.1345  0.3023
19584TIP3    H180167   3.180   3.256   4.250  0.3442 -2.3702 -0.7966
19584TIP3    H280168   3.286   3.256   4.142 -1.3757 -0.9245 -2.5334
19585TIP3   OH280169   6.314   5.573   2.236 -0.6463  0.0517 -0.2924
19585TIP3    H180170   6.250   5.504   2.223  0.4758 -1.0406 -0.0691
19585TIP3    H280171   6.294   5.638   2.169 -1.6977 -0.4881 -0.4983
19586TIP3   OH280172   2.004   6.057   0.359 -0.4496  0.3093 -0.2650
19586TIP3    H180173   1.982   6.113   0.285  1.3795 -0.6550 -1.5577
19586TIP3    H280174   1.919   6.037   0.400 -1.3721  1.6308 -1.5034
19587TIP3   OH280175   5.542   3.635  12.683  0.2146 -0.5527 -0.0146
19587TIP3    H180176   5.624   3.629  12.732 -0.7391 -0.0276  1.6781
19587TIP3    H280177   5.562   3.690  12.607  1.4521 -0.5692  0.3002
19588TIP3   OH280178   4.528   3.362  13.281  0.1912 -1.0248  0.1423
19588TIP3    H180179   4.597   3.414  13.321 -1.3013  1.3880 -0.3250
19588TIP3    H280180   4.512   3.291  13.344  0.5520  0.4933  1.9756
19589TIP3   OH280181   2.744   0.753  10.814 -0.0464 -0.1717  0.0765
19589TIP3    H180182   2.734   0.682  10.750  0.9992 -0.0057 -0.2831
19589TIP3    H280183   2.656   0.766  10.849 -0.8500  0.4078 -2.0494
19590TIP3   OH280184   4.475   0.035  13.113  1.1938  0.2399 -0.7461
19590TIP3    H180185   4.419   0.009  13.040 -1.3557 -2.6711  2.1143
19590TIP3    H280186   4.539  -0.036  13.120 -0.9122 -1.4741  2.1170
19591TIP3   OH280187   5.625   2.133   6.327  0.1394 -0.1113 -0.2157
19591TIP3    H180188   5.617   2.056   6.384 -1.0192  1.9680  2.5100
19591TIP3    H280189   5.719   2.154   6.330  0.2972 -0.7922 -0.1453
19592TIP3   OH280190   4.985   0.466   2.850  0.2317 -0.0660  0.2209
19592TIP3    H180191   4.890   0.460   2.838  0.3607 -0.6271 -0.5271
19592TIP3    H280192   5.002   0.559   2.861 -0.3442  0.0791 -0.1315
19593TIP3   OH280193   6.748   6.465  16.332 -0.6675  0.0420  0.2649
19593TIP3    H180194   6.684   6.507  16.390  0.6278  0.3788  1.4727
19593TIP3    H280195   6.755   6.376  16.365 -0.8547 -0.1327 -0.1607
19594TIP3   OH280196   5.525   6.776  14.471 -0.3612  0.3760 -0.1895
19594TIP3    H180197   5.441   6.786  14.515  0.1874 -1.0621  1.2509
19594TIP3    H280198   5.521   6.690  14.430  2.2034 -1.9801  4.1196
19595TIP3   OH280199   5.323   5.054  14.683  0.6586 -0.0516  0.4029
19595TIP3    H180200   5.361   5.136  14.715 -0.5606  0.2811  1.0585
19595TIP3    H280201   5.229   5.072  14.679  0.5792 -0.8029 -1.3192
19596TIP3   OH280202   1.428   5.209   4.928 -0.1535 -0.0173 -0.2792
19596TIP3    H180203   1.474   5.293   4.925  0.6038 -0.3456  1.4323
19596TIP3    H280204   1.335   5.232   4.932 -0.0086  0.7114 -1.0830
19597TIP3   OH280205   5.825   1.147   0.311 -0.5319 -0.2739 -0.9403
19597TIP3    H180206   5.801   1.064   0.269 -3.8670  0.4182 -0.5683
19597TIP3    H280207   5.839   1.125   0.403 -0.6473 -0.5791 -0.9952
19598TIP3   OH280208   6.672   2.885  13.192 -0.3779  0.4419  0.1021
19598TIP3    H180209   6.731   2.816  13.163  0.0614 -0.4131  2.8428
19598TIP3    H280210   6.630   2.917  13.112  1.5734 -0.9878 -1.5365
19599TIP3   OH280211   4.165   1.841  12.923 -0.0714  0.1368 -0.1344
19599TIP3    H180212   4.235   1.881  12.974  1.0302  1.0857 -2.3275
19599TIP3    H280213   4.131   1.772  12.979  0.8242  1.4127  2.0303
19600TIP3   OH280214   0.394   4.147   3.701 -0.5238  0.5458  0.3178
19600TIP3    H180215   0.325   4.086   3.677  0.9723 -1.5659  1.2944
19600TIP3    H280216   0.430   4.112   3.783  3.0796  0.4523 -1.2267
19601TIP3   OH280217   4.997   3.951   1.956 -0.1864  0.0140  0.0351
19601TIP3    H180218   5.006   3.965   2.050 -2.5631 -0.7246  0.4136
19601TIP3    H280219   5.049   3.873   1.937  0.9439  0.6345  0.5866
19602TIP3   OH280220   1.121   4.083   1.340  0.0103  0.2734 -0.3358
19602TIP3    H180221   1.111   4.147   1.269  0.8544 -1.0681 -1.6908
19602TIP3    H280222   1.064   4.116   1.410 -0.5902  1.7889 -1.5053
19603TIP3   OH280223   0.789   0.239  16.043  0.4168  0.2367  0.0811
19603TIP3    H180224   0.704   0.197  16.030  0.8303 -0.1225 -1.5505
19603TIP3    H280225   0.784   0.277  16.131 -1.2465 -0.2090  0.1881
19604TIP3   OH280226   6.059   0.647   5.069  0.2257  0.5952 -0.1097
19604TIP3    H180227   5.997   0.590   5.024  0.1534 -0.3982  1.2222
19604TIP3    H280228   6.003   0.715   5.108 -0.1147 -0.6664  1.6402
19605TIP3   OH280229   3.889   6.736  13.840  0.0411 -0.0768  0.0793
19605TIP3    H180230   3.815   6.752  13.781  0.5315 -0.9152 -0.7694
19605TIP3    H280231   3.880   6.644  13.866  0.1290  0.1417  0.8862
19606TIP3   OH280232   4.891   5.625  16.091  0.5436  0.0495 -0.0719
19606TIP3    H180233   4.972   5.579  16.069  0.5894  0.0495  0.1006
19606TIP3    H280234   4.862   5.664  16.008  1.5599  1.3760  0.1724
19607TIP3   OH280235   0.564   1.261   0.264 -0.0420 -0.2266 -0.3000
19607TIP3    H180236   0.547   1.194   0.331  0.0088  0.2100  0.1506
19607TIP3    H280237   0.648   1.300   0.290  1.1878 -1.6818 -1.9490
19608TIP3   OH280238   3.440   1.968   5.059 -0.0558  0.1118  0.0901
19608TIP3    H180239   3.389   2.049   5.055 -1.6824 -0.9124 -0.3637
19608TIP3    H280240   3.422   1.924   4.976  3.2840  0.7197 -1.0118
19609TIP3   OH280241   6.268   4.358  16.165  0.3299 -1.0859 -0.2111
19609TIP3    H180242   6.354   4.323  16.143  0.4519 -1.2384  0.4666
19609TIP3    H280243   6.247   4.418  16.094  1.4952 -0.1986  0.1767
19610TIP3   OH280244   5.900   3.033   0.213  0.5135 -0.7260 -0.1708
19610TIP3    H180245   5.885   3.088   0.136 -0.3231 -2.1551 -1.0522
19610TIP3    H280246   5.865   3.083   0.286  0.8404  0.4195 -0.7921
19611TIP3   OH280247   5.189   4.764   1.249 -0.5554 -0.2067 -0.6995
19611TIP3    H180248   5.217   4.851   1.222 -0.7566 -0.0788 -0.5000
19611TIP3    H280249   5.269   4.721   1.280 -0.7285  0.4911  0.7748
19612TIP3   OH280250   6.766   0.618  11.919 -0.4721  0.7823  0.1317
19612TIP3    H180251   6.714   0.692  11.949 -0.6949 -0.1198  2.0254
19612TIP3    H280252   6.855   0.637  11.947 -0.3053  0.8935 -0.4549
19613TIP3   OH280253   1.127   0.677  15.319 -0.6162  0.4565  0.9234
19613TIP3    H180254   1.179   0.635  15.388 -0.7803 -1.0879  0.1216
19613TIP3    H280255   1.076   0.606  15.280  0.5574  1.0506 -1.7752
19614TIP3   OH280256   3.973   3.288   2.634  0.0622 -0.0769  0.5171
19614TIP3    H180257   3.911   3.255   2.568 -0.3057 -0.8335  1.2328
19614TIP3    H280258   3.919   3.305   2.711  0.6569 -0.1766  0.9536
19615TIP3   OH280259   2.678   5.876  14.310  0.0262 -0.3865  0.5290
19615TIP3    H180260   2.610   5.942  14.293  0.5754 -0.0859 -0.4882
19615TIP3    H280261   2.654   5.840  14.396 -0.5103  0.8484  0.9185
19616TIP3   OH280262   5.939   4.027  13.412  0.1524 -0.1996  0.0481
19616TIP3    H180263   5.884   4.098  13.379 -0.2845 -0.4310  0.2826
19616TIP3    H280264   5.996   4.070  13.477 -1.8338 -0.5203  2.0531
19617TIP3   OH280265   3.428   1.557   4.892 -0.0697  0.0971 -0.2228
19617TIP3    H180266   3.423   1.497   4.818  0.3504 -0.5419  0.2706
19617TIP3    H280267   3.520   1.583   4.896  0.2097 -1.0772  1.0390
19618TIP3   OH280268   0.360   6.392  11.344 -0.7818  0.1535  0.1745
19618TIP3    H180269   0.340   6.459  11.278  1.5635  0.4697 -0.2609
19618TIP3    H280270   0.310   6.419  11.421 -3.2804 -0.0254 -1.3221
19619TIP3   OH280271   3.914   0.268  13.272  0.4171  0.0535  0.1628
19619TIP3    H180272   3.962   0.259  13.355 -0.0544  0.1122  0.4412
19619TIP3    H280273   3.825   0.290  13.298  0.2092 -0.1746 -0.3551
19620TIP3   OH280274   0.627   0.134  16.437 -0.0653 -0.2740 -0.1608
19620TIP3    H180275   0.670   0.109  16.355 -2.6312 -1.7723 -1.1291
19620TIP3    H280276   0.615   0.229  16.429 -1.2350 -0.5459 -2.0232
19621TIP3   OH280277   0.622   4.354   5.780  0.3038 -0.2309  0.5914
19621TIP3    H180278   0.565   4.355   5.857  0.8740  0.6684  0.9989
19621TIP3    H280279   0.707   4.324   5.813  0.8424  1.2041  0.5203
19622TIP3   OH280280   1.873   3.467   2.737 -0.0164 -0.2018  0.5016
19622TIP3    H180281   1.967   3.479   2.750 -0.2804  0.0317  2.3508
19622TIP3    H280282   1.850   3.529   2.668  0.8275  1.2655  1.5166
19623TIP3   OH280283   3.068   2.240   5.264  0.4840 -0.4385  0.4054
19623TIP3    H180284   3.140   2.222   5.205  0.9335  1.0894  0.4500
19623TIP3    H280285   3.106   2.293   5.334 -0.7543  0.8789  0.1329
19624TIP3   OH280286   4.342   1.000   4.162 -0.2023  0.1908  0.2796
19624TIP3    H180287   4.304   1.025   4.078  2.5603 -1.5773 -1.5515
19624TIP3    H280288   4.354   1.084   4.208 -0.6516  1.2806 -1.5261
19625TIP3   OH280289   3.184   4.286   0.091  0.5372 -0.2243  0.0778
19625TIP3    H180290   3.249   4.316   0.027  1.1222 -0.5761  0.5019
19625TIP3    H280291   3.230   4.222   0.144 -0.8523 -2.3283 -1.1833
19626TIP3   OH280292   2.481   6.532   1.820 -0.4851  0.3820  0.2505
19626TIP3    H180293   2.476   6.509   1.913  1.5335 -0.1889  0.2441
19626TIP3    H280294   2.542   6.606   1.817 -0.2987  0.1981 -0.6301
19627TIP3   OH280295   1.006   2.571   2.788  0.1829 -0.1548  1.0877
19627TIP3    H180296   0.974   2.506   2.851  0.7662 -0.7025  0.8263
19627TIP3    H280297   0.977   2.537   2.703  0.9997 -0.3792  0.8975
19628TIP3   OH280298   6.012   3.124  15.244 -0.4471  0.2497 -0.0725
19628TIP3    H180299   5.959   3.142  15.321  0.4058  0.1530  0.5403
19628TIP3    H280300   6.093   3.172  15.258 -0.4187  0.5080 -1.0681
19629TIP3   OH280301   4.016   2.065  13.681 -0.1301  0.2750  0.0738
19629TIP3    H180302   4.079   1.992  13.682  0.1619  0.5376  1.8724
19629TIP3    H280303   3.945   2.034  13.625 -0.1201 -1.4861  1.0103
19630TIP3   OH280304   6.120   6.455  12.608 -0.2625  0.1071  0.0351
19630TIP3    H180305   6.077   6.393  12.549  1.2451 -0.6095 -0.3300
19630TIP3    H280306   6.187   6.403  12.653  0.7079  1.3598  0.0574
19631TIP3   OH280307   5.099   5.723   4.013  0.2636 -0.4822 -0.1875
19631TIP3    H180308   5.116   5.637   4.052 -0.7065 -0.5897  0.0074
19631TIP3    H280309   5.186   5.760   3.997  0.7384 -0.0373  3.0160
19632TIP3   OH280310   1.230   1.973  15.891  0.0944  0.3111  0.2171
19632TIP3    H180311   1.282   2.051  15.912  1.2950 -0.0131 -1.4514
19632TIP3    H280312   1.253   1.910  15.960 -0.5740  1.2818  1.3407
19633TIP3   OH280313   0.418   2.658   2.166 -0.0241 -0.4950  0.3047
19633TIP3    H180314   0.413   2.695   2.078  0.4347 -1.2016 -0.0227
19633TIP3    H280315   0.474   2.581   2.156 -0.1622 -0.7068  1.1705
19634TIP3   OH280316   3.160   2.837   5.791 -0.4881 -0.4640  0.3572
19634TIP3    H180317   3.072   2.822   5.827 -0.9657  1.2879  0.0026
19634TIP3    H280318   3.217   2.779   5.841 -1.4922  0.1807  2.3222
19635TIP3   OH280319   5.915   3.301   2.020 -0.2523  0.5630  0.0776
19635TIP3    H180320   5.877   3.387   2.005 -0.2263  0.2909 -1.7189
19635TIP3    H280321   5.903   3.254   1.937  0.7844 -0.7551  0.6344
19636TIP3   OH280322   4.687   3.462   1.927 -0.5467 -0.2411 -0.0395
19636TIP3    H180323   4.750   3.525   1.892  0.3917 -2.7401 -3.0309
19636TIP3    H280324   4.616   3.460   1.863 -0.0775 -2.9399 -0.5129
19637TIP3   OH280325   1.415   2.903   0.659  0.5290  0.7373 -0.3999
19637TIP3    H180326   1.393   2.978   0.605 -1.8901 -1.1516 -2.1725
19637TIP3    H280327   1.488   2.861   0.614 -0.9244 -0.3531 -1.7887
19638TIP3   OH280328   0.690   1.038   4.475 -0.0904 -0.1794  0.0376
19638TIP3    H180329   0.669   1.128   4.499  1.5678  0.1312  0.3715
19638TIP3    H280330   0.745   1.045   4.398  1.0012 -0.8387  0.7350
19639TIP3   OH280331   1.205   1.161  16.333 -0.0754 -0.3801  0.9190
19639TIP3    H180332   1.205   1.237  16.391 -2.6227  0.6342 -0.3512
19639TIP3    H280333   1.175   1.195  16.248  1.5578 -2.2461 -0.4545
19640TIP3   OH280334   3.011   1.726  14.048 -0.0385 -0.2080  0.0674
19640TIP3    H180335   2.996   1.716  14.142 -0.3994  0.8262  0.1245
19640TIP3    H280336   3.107   1.725  14.039 -0.0149 -1.0072  0.3577
19641TIP3   OH280337   3.431   5.763  16.051  0.1862  0.3571  0.8653
19641TIP3    H180338   3.408   5.840  16.102 -0.5236  1.6180 -1.2849
19641TIP3    H280339   3.454   5.797  15.964 -1.4428 -1.9236 -0.5260
19642TIP3   OH280340   1.206   3.721  14.027  0.1923 -0.6529  1.2070
19642TIP3    H180341   1.140   3.657  14.054 -0.2678  0.3213  2.4618
19642TIP3    H280342   1.170   3.760  13.948 -0.4107 -0.6285  1.4901
19643TIP3   OH280343   6.312   1.800   2.971  0.2192  0.1872  0.8007
19643TIP3    H180344   6.355   1.855   2.906  2.3325  0.0551  2.0301
19643TIP3    H280345   6.245   1.857   3.010  0.8849  1.1915  0.5048
19644TIP3   OH280346   3.377   5.385   4.650 -0.5870 -0.2700  0.5529
19644TIP3    H180347   3.421   5.456   4.697  0.6385 -0.6586  0.0134
19644TIP3    H280348   3.321   5.430   4.586 -0.5207  0.2241  0.8364
19645TIP3   OH280349   4.531   3.930  12.120  0.1046 -0.1174  0.5926
19645TIP3    H180350   4.621   3.960  12.105 -0.8568  1.6099 -2.0685
19645TIP3    H280351   4.508   3.883  12.040 -1.2226 -0.9253  1.4313
19646TIP3   OH280352   2.801   3.709   0.246 -0.0713 -0.2452 -0.1332
19646TIP3    H180353   2.709   3.723   0.266 -0.2606 -0.5411 -0.7782
19646TIP3    H280354   2.844   3.701   0.331 -0.5155  0.7013  0.1854
19647TIP3   OH280355   3.465   6.487   5.984  0.7492  0.0796  0.6868
19647TIP3    H180356   3.458   6.558   6.047 -1.2082 -1.1982  1.9734
19647TIP3    H280357   3.374   6.469   5.958  1.3780 -0.6099 -1.1434
19648TIP3   OH280358   1.055   2.264  15.175 -0.1231 -0.0933 -1.1085
19648TIP3    H180359   0.965   2.233  15.187 -0.5739  1.8547  0.7798
19648TIP3    H280360   1.064   2.274  15.080 -1.3947 -1.6978 -1.4268
19649TIP3   OH280361   6.267   4.856   2.731  0.0643  0.3328 -0.2147
19649TIP3    H180362   6.188   4.819   2.770  0.3489 -0.9385 -0.8160
19649TIP3    H280363   6.314   4.780   2.695  1.3105  1.1313 -0.2971
19650TIP3   OH280364   2.367   3.243  13.948  0.4500  0.1310  0.5694
19650TIP3    H180365   2.396   3.327  13.984  0.3076 -0.0670  1.1623
19650TIP3    H280366   2.325   3.199  14.022  0.8502 -0.6153  0.3610
19651TIP3   OH280367   2.969   4.870  16.119 -0.0895  0.7673  0.3507
19651TIP3    H180368   3.059   4.900  16.128 -0.5257  1.8634  1.2219
19651TIP3    H280369   2.930   4.930  16.056  0.1358 -0.5248 -1.0481
19652TIP3   OH280370   1.817   4.821  12.620  0.3978  0.1194 -0.2293
19652TIP3    H180371   1.800   4.864  12.704  0.5571 -0.5204  0.1323
19652TIP3    H280372   1.730   4.810  12.580  0.3734  0.9705 -0.4266
19653TIP3   OH280373   0.806   3.712  13.966  0.4056 -0.5039 -0.1464
19653TIP3    H180374   0.784   3.655  14.040  1.6462  0.0995  0.7169
19653TIP3    H280375   0.733   3.774  13.961  0.2143 -0.6765  0.4468
19654TIP3   OH280376   5.210   1.128  13.509 -0.2297 -0.1864  0.5728
19654TIP3    H180377   5.159   1.074  13.570 -0.5062  0.4720  0.9229
19654TIP3    H280378   5.212   1.076  13.428 -2.6955  0.4197  0.0731
19655TIP3   OH280379   0.873   3.678   2.817  0.4924  0.3156 -0.3106
19655TIP3    H180380   0.790   3.665   2.772  0.7440  0.5074 -0.8414
19655TIP3    H280381   0.903   3.763   2.786  0.7297  0.3949  0.1329
19656TIP3   OH280382   0.277   1.356   5.933 -0.0587  0.0967 -0.3194
19656TIP3    H180383   0.221   1.279   5.928  0.2584 -0.1903  0.5284
19656TIP3    H280384   0.329   1.343   6.012  0.1598  1.0680 -0.2977
19657TIP3   OH280385   4.000   6.587  16.528  0.7006 -0.4998 -0.6372
19657TIP3    H180386   3.932   6.593  16.461 -0.2586 -0.8069  0.3083
19657TIP3    H280387   4.013   6.677  16.558  0.4705 -0.4884 -0.5754
19658TIP3   OH280388   3.463   2.415  11.064  0.0751  0.1872  0.9281
19658TIP3    H180389   3.539   2.413  11.006 -0.5943  1.0306  0.0066
19658TIP3    H280390   3.497   2.389  11.149  1.5013  1.0776  0.6464
19659TIP3   OH280391   5.365   6.519  15.426  0.0382 -0.6326  0.4883
19659TIP3    H180392   5.336   6.611  15.422 -0.6777 -0.8025  1.6735
19659TIP3    H280393   5.432   6.518  15.495  1.1572 -0.7228 -0.5642
19660TIP3   OH280394   1.042   0.422   6.420  0.0082  0.3111 -0.1481
19660TIP3    H180395   1.087   0.424   6.505  0.5831  0.7621 -0.4503
19660TIP3    H280396   1.105   0.462   6.360 -0.2494 -0.3520 -0.8591
19661TIP3   OH280397   3.797   5.346  12.358  0.2284 -0.1630 -0.4805
19661TIP3    H180398   3.744   5.425  12.343 -0.4632 -0.6825 -0.7904
19661TIP3    H280399   3.866   5.352  12.292  0.2096  0.2128 -0.4692
19662TIP3   OH280400   4.808   2.749  16.467  0.0982 -0.1860 -0.1243
19662TIP3    H180401   4.797   2.760  16.562  0.3559 -2.5625  0.2386
19662TIP3    H280402   4.727   2.782  16.429 -0.2614  0.2457  0.9958
19663TIP3   OH280403   5.137   4.814  13.598  0.0797  0.2087 -0.0349
19663TIP3    H180404   5.063   4.820  13.537  0.5895  1.6918 -0.5514
19663TIP3    H280405   5.204   4.764  13.550 -0.2390 -0.3212  0.0705
19664TIP3   OH280406   5.661   0.905   3.347  0.7121 -0.2110  0.0236
19664TIP3    H180407   5.629   0.990   3.319 -2.1543 -0.1533  3.2007
19664TIP3    H280408   5.644   0.847   3.272  0.0095  1.3822 -1.0719
19665TIP3   OH280409   4.342   1.130   3.723 -0.1182 -0.1467  0.5058
19665TIP3    H180410   4.405   1.149   3.793  0.7049 -2.7291  0.4995
19665TIP3    H280411   4.297   1.051   3.753 -1.8266  0.4155 -0.5285
19666TIP3   OH280412   0.209   0.583  11.707 -0.3332  0.2834 -0.5255
19666TIP3    H180413   0.113   0.577  11.709 -0.2610 -1.0704 -0.5514
19666TIP3    H280414   0.237   0.539  11.787  0.3780 -2.3101 -2.1438
19667TIP3   OH280415   2.810   5.159  12.685 -0.6726 -0.2085 -0.6272
19667TIP3    H180416   2.853   5.102  12.621 -1.8777 -0.1072 -1.5365
19667TIP3    H280417   2.782   5.235  12.635 -0.0558  0.6924  0.3731
19668TIP3   OH280418   5.987   3.539   2.690 -0.1847 -0.0075 -0.1903
19668TIP3    H180419   5.910   3.540   2.632  0.1548  1.7973 -0.6374
19668TIP3    H280420   5.966   3.473   2.756 -2.8661  1.6754  0.6963
19669TIP3   OH280421   6.453   0.107   3.480  0.2348  0.1142 -0.0507
19669TIP3    H180422   6.471   0.135   3.390 -1.7074 -0.9290 -0.8029
19669TIP3    H280423   6.358   0.115   3.489  0.5474  1.5579  2.4014
19670TIP3   OH280424   5.597   5.201  11.451 -0.5703  0.3238 -0.0070
19670TIP3    H180425   5.557   5.219  11.536 -1.6000 -0.3765 -0.3353
19670TIP3    H280426   5.661   5.133  11.469  0.7757  1.7120  0.5865
19671TIP3   OH280427   3.258   5.878   4.283  0.2206 -0.4994  0.5600
19671TIP3    H180428   3.299   5.793   4.300  1.5189  0.1948  1.0222
19671TIP3    H280429   3.261   5.888   4.188  1.2746 -0.4058  0.5956
19672TIP3   OH280430   0.243   5.598   0.955  0.0150  0.4156 -0.2516
19672TIP3    H180431   0.186   5.661   1.000  2.3571  2.3349  0.1009
19672TIP3    H280432   0.185   5.552   0.895 -1.7144  3.0519 -0.6630
19673TIP3   OH280433   5.578   2.921  14.426  0.0075 -0.0843  0.0164
19673TIP3    H180434   5.656   2.952  14.379 -0.8090  0.4018 -1.0276
19673TIP3    H280435   5.504   2.962  14.381 -0.8874 -0.8714  0.7352
19674TIP3   OH280436   6.638   2.357  11.051  0.1169 -0.5115 -0.2650
19674TIP3    H180437   6.725   2.394  11.067 -0.9684  1.5752  1.0061
19674TIP3    H280438   6.625   2.367  10.956  0.8025  0.2211 -0.2889
19675TIP3   OH280439   3.782   3.069  12.195  0.1897 -0.0600  0.8282
19675TIP3    H180440   3.720   3.026  12.138 -0.4366  2.3256 -0.3703
19675TIP3    H280441   3.730   3.133  12.244  1.0211 -0.8322  2.7588
19676TIP3   OH280442   1.640   4.596   4.634  0.5189  0.3006 -0.2690
19676TIP3    H180443   1.548   4.572   4.649  0.6360 -0.4182 -0.6461
19676TIP3    H280444   1.685   4.512   4.624  0.7771  0.6705 -2.5643
19677TIP3   OH280445   3.401   4.255   0.689 -0.5598  0.1563 -0.0401
19677TIP3    H180446   3.472   4.261   0.753  0.5719  1.2412 -1.3760
19677TIP3    H280447   3.326   4.222   0.740  1.2806 -2.4676  1.0690
19678TIP3   OH280448   2.466   4.966  13.211  0.5088 -0.2353 -0.0194
19678TIP3    H180449   2.493   4.880  13.177  0.6820 -0.0951 -0.2410
19678TIP3    H280450   2.371   4.969  13.197  0.1505 -1.2649  1.9656
19679TIP3   OH280451   1.711   0.615  11.198  0.3254 -0.6214  0.5751
19679TIP3    H180452   1.642   0.585  11.139 -0.9408  1.7740  0.7738
19679TIP3    H280453   1.666   0.672  11.260  2.4328  0.7304  0.9068
19680TIP3   OH280454   0.063   4.919  13.450  0.0608 -0.6808 -0.3030
19680TIP3    H180455   0.005   4.854  13.410  0.2456 -0.6861 -0.5689
19680TIP3    H280456   0.064   4.898  13.543 -3.2007  1.4766  0.3219
19681TIP3   OH280457   1.429   3.762   6.292  0.1474 -0.7640  0.3880
19681TIP3    H180458   1.484   3.818   6.347  0.5522  0.3967 -1.1669
19681TIP3    H280459   1.487   3.691   6.265  1.0366  0.6196 -1.5021
19682TIP3   OH280460   3.914   1.399   3.261  0.1001  0.3383 -0.1168
19682TIP3    H180461   3.903   1.314   3.303 -0.6840  0.8640  0.7426
19682TIP3    H280462   3.893   1.463   3.329  1.7429  1.2532 -0.4201
19683TIP3   OH280463   1.637   0.944   1.311 -0.2584  0.3415  0.1254
19683TIP3    H180464   1.652   0.861   1.267  1.0681  0.0680  1.0628
19683TIP3    H280465   1.542   0.959   1.303 -0.0377  0.3465 -2.8363
19684TIP3   OH280466   5.873   0.320   5.774 -0.0892 -0.1984  0.1571
19684TIP3    H180467   5.905   0.392   5.828 -0.1054  1.0801 -1.5270
19684TIP3    H280468   5.947   0.296   5.718  0.3674 -2.4232  1.6164
19685TIP3   OH280469   0.432   5.362   4.544 -0.5047 -0.2078 -0.3752
19685TIP3    H180470   0.502   5.343   4.482  0.0373  1.0100 -0.1485
19685TIP3    H280471   0.442   5.296   4.613  0.8021  0.3370 -0.0315
19686TIP3   OH280472   5.421   5.421   2.780 -0.2666 -0.2784 -0.4643
19686TIP3    H180473   5.368   5.476   2.838  1.2271  2.3082 -1.4613
19686TIP3    H280474   5.380   5.428   2.694  1.7247  1.9324 -1.2993
19687TIP3   OH280475   6.575   0.419  15.672 -0.3457  0.4442 -0.0937
19687TIP3    H180476   6.657   0.424  15.721  0.7962  1.2987 -2.0682
19687TIP3    H280477   6.528   0.498  15.699 -0.4952  0.0206  0.9386
19688TIP3   OH280478   1.572   4.273  16.188  0.8256  0.8815  0.0794
19688TIP3    H180479   1.604   4.197  16.235  0.6979  1.2514  0.7690
19688TIP3    H280480   1.589   4.347  16.247 -1.0620  1.1143  0.3755
19689TIP3   OH280481   5.416   4.754  12.861  0.0427 -0.2874  1.1811
19689TIP3    H180482   5.491   4.777  12.807 -1.6754  1.6799 -0.4715
19689TIP3    H280483   5.454   4.714  12.939  2.6820 -1.1626 -0.4819
19690TIP3   OH280484   0.991   5.966  16.211  0.4288 -0.4038  0.2735
19690TIP3    H180485   0.930   5.903  16.172  0.4359  0.5905 -1.3823
19690TIP3    H280486   0.955   5.983  16.298 -0.1906 -1.8471  0.3120
19691TIP3   OH280487   5.425   2.095  15.657  0.1433  0.0264 -0.0708
19691TIP3    H180488   5.406   2.059  15.570  0.7429  1.5937 -0.8629
19691TIP3    H280489   5.368   2.045  15.716 -1.1987 -0.1883 -1.5042
19692TIP3   OH280490   4.771   6.139  11.623 -0.1392 -0.1316  0.0385
19692TIP3    H180491   4.724   6.184  11.692  0.2724  1.4617 -0.7106
19692TIP3    H280492   4.726   6.054  11.615 -0.9258  0.1405  1.4217
19693TIP3   OH280493   1.151   2.719   4.949 -0.5105  0.7578 -0.1456
19693TIP3    H180494   1.066   2.679   4.969  0.9250 -2.9585 -1.1760
19693TIP3    H280495   1.148   2.734   4.854  0.5015 -0.7447 -0.4311
19694TIP3   OH280496   6.778   0.410  17.106 -0.2927  0.1273 -0.1142
19694TIP3    H180497   6.728   0.490  17.094 -0.2360  0.0666 -0.7898
19694TIP3    H280498   6.794   0.405  17.200 -0.2499  0.9371 -0.0734
19695TIP3   OH280499   1.455   0.090   2.529  0.5747  0.3779 -0.3664
19695TIP3    H180500   1.411   0.165   2.569  0.0858  1.0351 -2.0736
19695TIP3    H280501   1.406   0.014   2.561  0.1254  0.8914  0.1880
19696TIP3   OH280502   5.996   3.557  12.762  0.9094  0.0936 -0.5739
19696TIP3    H180503   6.016   3.494  12.831  1.5256 -0.6716 -1.4374
19696TIP3    H280504   5.954   3.506  12.693  1.0685  0.6904 -1.1209
19697TIP3   OH280505   0.408   6.370   1.666 -0.2127 -0.3052  0.3034
19697TIP3    H180506   0.416   6.362   1.571 -1.5203 -0.1915  0.1817
19697TIP3    H280507   0.447   6.455   1.686  0.3859 -0.4831 -0.0829
19698TIP3   OH280508   6.545   2.110   0.276 -0.1622 -0.6639 -0.3652
19698TIP3    H180509   6.623   2.113   0.221  0.5895 -1.2857  0.6428
19698TIP3    H280510   6.475   2.144   0.220  1.2900  2.3694 -0.4600
19699TIP3   OH280511   1.832   2.089   6.655 -0.1861  0.6011  0.2110
19699TIP3    H180512   1.767   2.019   6.658  2.1329 -1.6535  0.0496
19699TIP3    H280513   1.855   2.096   6.562 -0.4098  1.6353  0.2205
19700TIP3   OH280514   2.026   2.433   2.673  0.0721  0.2221  0.3084
19700TIP3    H180515   1.965   2.361   2.686  1.2462 -0.8730 -0.0743
19700TIP3    H280516   1.971   2.511   2.666 -1.5028 -1.0861 -2.9881
19701TIP3   OH280517   2.732   5.754  13.506  0.5516  0.0901 -0.2614
19701TIP3    H180518   2.640   5.727  13.514  0.7650 -0.6876 -0.4579
19701TIP3    H280519   2.773   5.724  13.588  0.7215  0.0926 -0.3458
19702TIP3   OH280520   4.308   6.179   3.128 -0.4007  0.3844 -0.1170
19702TIP3    H180521   4.251   6.131   3.068 -1.2745 -1.9646  2.4650
19702TIP3    H280522   4.397   6.148   3.108 -0.5613  0.4504 -0.9223
19703TIP3   OH280523   0.289   5.340  16.860 -0.3021  0.1768 -0.5402
19703TIP3    H180524   0.264   5.412  16.918 -0.2443 -1.1427  1.1937
19703TIP3    H280525   0.347   5.379  16.795  1.0723  1.3708  1.3654
19704TIP3   OH280526   5.958   0.795  16.212 -0.4196 -0.0662  0.3825
19704TIP3    H180527   6.004   0.844  16.281  0.1385 -0.2619  0.1547
19704TIP3    H280528   5.901   0.860  16.171 -0.7367  0.0574  1.0098
19705TIP3   OH280529   0.141   0.363  16.508  0.0981  0.8407  0.1832
19705TIP3    H180530   0.170   0.311  16.583 -0.3105  0.8026  0.3210
19705TIP3    H280531   0.159   0.453  16.533 -0.7177  0.8848  0.6451
19706TIP3   OH280532   6.780   6.256  16.085 -0.2298 -0.0303  0.0993
19706TIP3    H180533   6.763   6.350  16.089 -2.5133 -0.4160  0.1415
19706TIP3    H280534   6.732   6.219  16.159  1.9012 -1.0993  1.0152
19707TIP3   OH280535   6.377   1.077  10.710  0.2206 -0.3588  0.4193
19707TIP3    H180536   6.458   1.066  10.661  0.4119 -2.3451  1.1448
19707TIP3    H280537   6.400   1.055  10.801 -1.0654 -0.7633  0.6628
19708TIP3   OH280538   2.521   1.283  14.562  0.0738  0.4854 -0.1801
19708TIP3    H180539   2.568   1.293  14.479  0.0848 -1.0819 -0.3861
19708TIP3    H280540   2.457   1.354  14.562  2.8825  3.1199  0.4206
19709TIP3   OH280541   0.970   0.049   1.934 -0.1312  0.1599 -0.2354
19709TIP3    H180542   0.958   0.115   1.865 -0.4029 -1.0955 -1.4359
19709TIP3    H280543   1.063   0.028   1.930  0.0619  0.8563  0.5203
19710TIP3   OH280544   5.333   2.979  12.655 -0.5432 -0.5801  0.1252
19710TIP3    H180545   5.402   2.926  12.696 -0.9120 -0.1776  1.3015
19710TIP3    H280546   5.377   3.027  12.586  1.2743  2.7956  3.4641
19711TIP3   OH280547   1.820   2.638  14.752  0.6480 -0.1659  0.3582
19711TIP3    H180548   1.756   2.576  14.716  1.0799 -0.6842  0.4720
19711TIP3    H280549   1.831   2.704  14.684 -0.0133 -0.0724  0.3424
19712TIP3   OH280550   5.331   3.171   2.074  0.2245  0.2496  0.1984
19712TIP3    H180551   5.365   3.181   2.163 -0.8266  0.2428  0.6048
19712TIP3    H280552   5.267   3.100   2.081 -1.9907  2.2141  0.0302
19713TIP3   OH280553   0.407   2.856  16.444 -0.0344  0.2152  0.4860
19713TIP3    H180554   0.338   2.919  16.425  2.1745  2.4213 -0.5733
19713TIP3    H280555   0.466   2.902  16.503  0.7524 -1.4818  1.0560
19714TIP3   OH280556   1.227   0.168   4.014  0.0780 -0.5556  0.2042
19714TIP3    H180557   1.220   0.232   4.085  1.2858  0.3559 -0.4884
19714TIP3    H280558   1.223   0.220   3.934 -0.4494 -1.4972 -0.3894
19715TIP3   OH280559   1.201   4.113   0.217 -0.3918 -0.1164 -0.1851
19715TIP3    H180560   1.195   4.207   0.230 -2.4051 -0.1772 -0.6153
19715TIP3    H280561   1.276   4.086   0.271 -1.1364  1.3946  1.6473
19716TIP3   OH280562   3.759   6.724  14.829 -0.7414  0.1485 -0.1413
19716TIP3    H180563   3.849   6.690  14.824  0.4864  3.4238 -1.7268
19716TIP3    H280564   3.751   6.757  14.919 -0.2179  0.1754 -0.1002
19717TIP3   OH280565   1.890   0.943  15.632  0.4112 -0.0611  0.4698
19717TIP3    H180566   1.930   0.897  15.706 -0.0424 -1.2808 -0.0352
19717TIP3    H280567   1.931   1.030  15.633 -0.0831  0.1870  2.5641
19718TIP3   OH280568   2.706   3.391   2.339  0.0989  0.2456 -0.0236
19718TIP3    H180569   2.800   3.395   2.357  0.3005  1.8345 -1.3481
19718TIP3    H280570   2.699   3.331   2.264  0.3691  2.3332 -1.7712
19719TIP3   OH280571   3.934   1.094   1.898  0.4076  0.7137  0.5724
19719TIP3    H180572   3.996   1.032   1.936 -0.0416  0.1275  0.3607
19719TIP3    H280573   3.988   1.157   1.850  0.7578 -0.4580 -0.5737
19720TIP3   OH280574   6.507   6.367   5.773  0.5384 -0.2536 -0.3765
19720TIP3    H180575   6.482   6.302   5.707  0.6529 -1.4526  0.7307
19720TIP3    H280576   6.549   6.316   5.843  2.7910  1.2984 -0.5417
19721TIP3   OH280577   1.660   2.704   6.290 -0.2097  0.4320  0.1969
19721TIP3    H180578   1.567   2.717   6.271 -0.6357 -0.1630  1.7898
19721TIP3    H280579   1.705   2.734   6.211 -1.7049  1.4999 -0.2717
19722TIP3   OH280580   5.881   6.685   4.136  0.1849 -0.2220 -0.7010
19722TIP3    H180581   5.974   6.670   4.154  0.2026  1.1702  0.4690
19722TIP3    H280582   5.880   6.761   4.078 -0.2332 -0.1488 -0.5982
19723TIP3   OH280583   2.486   1.421  12.526 -0.6515  0.9549 -0.2566
19723TIP3    H180584   2.493   1.432  12.621 -0.6458 -1.9465  0.1165
19723TIP3    H280585   2.399   1.384  12.512  0.4046 -1.2865 -1.0960
19724TIP3   OH280586   0.063   3.860   5.074  0.1111  0.5934  0.6037
19724TIP3    H180587   0.019   3.779   5.047  1.0899 -0.0416  0.9062
19724TIP3    H280588   0.025   3.927   5.018  1.3465 -0.5375 -1.6406
19725TIP3   OH280589   2.643   3.709   3.744 -0.1554 -0.0127 -0.6097
19725TIP3    H180590   2.629   3.723   3.650  0.6041 -1.2075 -0.9206
19725TIP3    H280591   2.597   3.627   3.762  1.5303 -0.9258 -0.4127
19726TIP3   OH280592   6.004   1.978  14.189 -0.6933 -0.1105  0.2598
19726TIP3    H180593   6.009   1.970  14.094 -1.5881  1.2948  0.0875
19726TIP3    H280594   6.046   1.898  14.221 -0.8285 -0.8433 -1.3109
19727TIP3   OH280595   4.068   5.524   4.347  0.0943 -0.1495  0.0865
19727TIP3    H180596   4.068   5.616   4.321  0.5820 -0.3985 -0.7792
19727TIP3    H280597   4.139   5.517   4.411 -0.1362  0.1373  0.3746
19728TIP3   OH280598   3.122   4.598   0.649  0.5150 -0.2594  0.3877
19728TIP3    H180599   3.127   4.503   0.647 -0.4140 -0.2981 -0.4411
19728TIP3    H280600   3.099   4.623   0.560  5.2876  1.0524 -0.5768
19729TIP3   OH280601   4.051   5.296  15.324 -0.1833 -0.6146 -0.0741
19729TIP3    H180602   4.106   5.339  15.390 -1.6486  0.1025  0.7215
19729TIP3    H280603   4.072   5.340  15.242  0.6637 -0.5728  0.1625
19730TIP3   OH280604   2.553   2.838  12.110  0.0946  0.0237 -0.4933
19730TIP3    H180605   2.556   2.933  12.124 -0.1069  0.0648 -0.7180
19730TIP3    H280606   2.617   2.821  12.042 -1.0246  0.2157 -1.6095
19731TIP3   OH280607   1.560   5.487   2.918 -0.3963  0.7551  0.1452
19731TIP3    H180608   1.632   5.430   2.946 -1.2116 -0.7114 -0.7473
19731TIP3    H280609   1.503   5.492   2.995 -0.3389  0.3602  0.2137
19732TIP3   OH280610   6.605   6.386   0.862  0.0473 -0.3525  0.7551
19732TIP3    H180611   6.598   6.380   0.767 -1.5331 -0.6680  0.8865
19732TIP3    H280612   6.561   6.307   0.895  0.7546 -0.3473  1.7441
19733TIP3   OH280613   4.401   1.273   4.251 -0.1943  0.3233  0.4378
19733TIP3    H180614   4.494   1.294   4.260  0.4660 -2.1084 -0.3866
19733TIP3    H280615   4.366   1.344   4.198  1.6363  0.2155 -0.9773
19734TIP3   OH280616   4.168   3.509  12.366 -0.1233 -0.2830 -0.5970
19734TIP3    H180617   4.205   3.559  12.293  0.6420 -0.4173 -0.3000
19734TIP3    H280618   4.150   3.575  12.433 -1.6886 -0.0321 -1.2530
19735TIP3   OH280619   2.043   5.335  14.230  0.0201 -0.5065  0.9061
19735TIP3    H180620   2.047   5.296  14.143  0.6567 -0.5303  0.9448
19735TIP3    H280621   1.970   5.290  14.273 -0.6836 -0.0626  0.1838
19736TIP3   OH280622   4.324   5.683   6.284 -0.4107  0.2139 -0.1245
19736TIP3    H180623   4.412   5.720   6.274 -0.3641  0.0868 -0.1848
19736TIP3    H280624   4.332   5.622   6.357 -0.4555  0.2229 -0.1124
19737TIP3   OH280625   0.798   5.565   4.564  0.2992  0.4645  0.0635
19737TIP3    H180626   0.848   5.507   4.505  1.0038  1.3274 -0.2071
19737TIP3    H280627   0.835   5.548   4.650  1.2715  1.3096 -0.1793
19738TIP3   OH280628   6.492   3.757  13.246  0.5512  0.5374  0.0813
19738TIP3    H180629   6.584   3.774  13.265  0.1152  0.5698  2.3446
19738TIP3    H280630   6.468   3.685  13.305 -1.0977  1.1673  0.2049
19739TIP3   OH280631   1.057   3.876   3.504  0.0276  0.3877  0.4034
19739TIP3    H180632   1.070   3.961   3.463  1.3880  0.0264  0.0479
19739TIP3    H280633   1.144   3.834   3.501 -0.6608 -1.0798  0.4091
19740TIP3   OH280634   6.115   0.213  12.657 -0.2453 -0.2430 -0.3102
19740TIP3    H180635   6.204   0.225  12.623 -0.7658 -0.7132 -1.8591
19740TIP3    H280636   6.127   0.163  12.738  0.7914 -1.6106 -1.2857
19741TIP3   OH280637   2.208   0.644  15.714 -0.0121 -0.0094  0.3078
19741TIP3    H180638   2.297   0.672  15.737 -0.1527 -0.3781  1.3366
19741TIP3    H280639   2.218   0.553  15.687 -0.0024  0.1090 -0.0907
19742TIP3   OH280640   5.032   1.847   5.486  0.7281 -0.4122  0.6867
19742TIP3    H180641   5.044   1.916   5.551  1.9201  1.3737 -1.3703
19742TIP3    H280642   5.090   1.776   5.515  1.1450  0.3051  1.6237
19743TIP3   OH280643   4.777   0.603  11.272  0.2086 -0.2470  0.7412
19743TIP3    H180644   4.745   0.674  11.328  1.2644 -0.1896  1.2844
19743TIP3    H280645   4.825   0.647  11.202  1.3409 -0.4231  1.3830
19744TIP3   OH280646   5.824   0.691  15.084 -0.3076  0.6678  0.5491
19744TIP3    H180647   5.819   0.610  15.033  0.2328  1.0921 -0.1776
19744TIP3    H280648   5.770   0.674  15.161  0.7017 -0.8096  0.9620
19745TIP3   OH280649   5.094   1.837   3.900 -0.1794  0.7165 -0.0999
19745TIP3    H180650   5.014   1.835   3.953 -0.0694  0.5163  0.0567
19745TIP3    H280651   5.128   1.926   3.914  0.9622 -0.0040  1.8304
19746TIP3   OH280652   4.207   5.280  17.138 -0.3255  0.1970  0.2004
19746TIP3    H180653   4.200   5.244  17.226  2.0516 -1.8837 -0.4321
19746TIP3    H280654   4.250   5.212  17.087 -0.0296  2.0906 -2.1655
19747TIP3   OH280655   6.770   3.238  17.153  0.2033  0.0979 -0.1737
19747TIP3    H180656   6.779   3.226  17.059 -0.9653  0.9417 -0.4066
19747TIP3    H280657   6.675   3.240  17.167  0.3687  1.5101  0.8111
19748TIP3   OH280658   6.585   2.799   0.978 -0.2937 -0.2387 -0.3850
19748TIP3    H180659   6.529   2.876   0.977  0.0081  0.0040  0.7359
19748TIP3    H280660   6.557   2.747   0.902 -1.0302  0.5832 -0.6772
19749TIP3   OH280661   3.301   4.111   0.289  0.3722  0.3368  0.3484
19749TIP3    H180662   3.298   4.205   0.307 -1.3717  0.8817 -2.5248
19749TIP3    H280663   3.389   4.084   0.318  1.1265  2.9651  0.6152
19750TIP3   OH280664   5.895   3.836   1.206 -0.7453 -0.1659  0.4255
19750TIP3    H180665   5.980   3.828   1.249 -0.8162  0.1225  0.6127
19750TIP3    H280666   5.914   3.879   1.123 -0.5139 -1.2978 -0.1267
19751TIP3   OH280667   0.679   3.609  16.931  1.2785  0.0599 -0.1118
19751TIP3    H180668   0.715   3.685  16.886  1.8004 -0.3077 -0.3064
19751TIP3    H280669   0.709   3.618  17.022 -1.6510  2.0402  0.7623
19752TIP3   OH280670   4.135   2.863  12.532  0.4239  0.0409 -0.5105
19752TIP3    H180671   4.191   2.813  12.592 -1.4231 -2.6475 -0.9797
19752TIP3    H280672   4.167   2.841  12.445  0.0203  0.1990 -0.6978
19753TIP3   OH280673   2.619   2.064   1.610  0.3349  0.5482  1.0249
19753TIP3    H180674   2.709   2.038   1.590  0.1089  1.5242 -1.4291
19753TIP3    H280675   2.621   2.082   1.704  2.2118 -1.3056  1.3900
19754TIP3   OH280676   5.391   4.177   4.255 -0.3292 -0.1342 -0.7177
19754TIP3    H180677   5.337   4.122   4.199 -1.4174  1.9216 -1.7721
19754TIP3    H280678   5.417   4.250   4.199  3.0569 -0.7438 -0.0356
19755TIP3   OH280679   4.132   4.927  11.930 -0.7625  0.0045 -0.1486
19755TIP3    H180680   4.197   4.868  11.969  0.4168 -0.1607 -2.3155
19755TIP3    H280681   4.139   4.912  11.836 -0.9715  3.0369 -0.7047
19756TIP3   OH280682   1.673   3.824  16.984  0.6276 -0.3142 -0.1606
19756TIP3    H180683   1.665   3.731  16.964 -0.9671 -0.7492  2.3770
19756TIP3    H280684   1.616   3.867  16.920 -0.3454 -1.2626  0.0594
19757TIP3   OH280685   0.938   3.681   0.759 -0.1766 -0.0528 -0.1590
19757TIP3    H180686   0.987   3.763   0.762 -0.6181  0.1346  2.4411
19757TIP3    H280687   0.984   3.623   0.820  0.5792 -2.0492 -2.4825
19758TIP3   OH280688   1.864   5.837   2.380 -0.0916  0.1136  0.0044
19758TIP3    H180689   1.956   5.865   2.378 -0.1935  0.4536  0.0084
19758TIP3    H280690   1.854   5.792   2.464 -0.3319  1.4634  0.7119
19759TIP3   OH280691   6.097   5.074   6.648 -0.2175 -0.6668  0.3562
19759TIP3    H180692   6.143   5.126   6.581 -0.4460  1.3782  1.7432
19759TIP3    H280693   6.165   5.020   6.687  0.2468 -0.5775 -0.3111
19760TIP3   OH280694   2.808   6.108   5.596 -0.0133  0.4028 -0.0828
19760TIP3    H180695   2.893   6.063   5.590 -0.0572  0.5097 -1.7966
19760TIP3    H280696   2.817   6.167   5.670  0.7246 -1.0398  1.0004
19761TIP3   OH280697   2.139   5.256  12.391  0.1529 -0.1777  0.2851
19761TIP3    H180698   2.186   5.172  12.392 -1.0142 -0.8565 -0.2177
19761TIP3    H280699   2.047   5.231  12.399 -0.1634  1.1009  0.6532
19762TIP3   OH280700   2.448   1.123  11.456  0.4800  0.2819  0.7843
19762TIP3    H180701   2.520   1.140  11.517 -0.4012  1.0171  1.6411
19762TIP3    H280702   2.386   1.194  11.472  0.6370  1.0180 -1.6402
19763TIP3   OH280703   4.855   1.227   3.628 -0.1709  0.1711  0.0008
19763TIP3    H180704   4.864   1.177   3.547  0.5249  1.5347 -0.7711
19763TIP3    H280705   4.781   1.285   3.613 -1.1072 -0.7426  0.9758
19764TIP3   OH280706   0.006   5.493   2.126 -0.3004 -0.0855 -0.4177
19764TIP3    H180707   0.040   5.553   2.192  1.1644 -1.1049 -0.2077
19764TIP3    H280708  -0.090   5.500   2.133 -0.1431  0.9948  0.7109
19765TIP3   OH280709   3.821   6.589  16.324  0.1168  0.1164 -0.4859
19765TIP3    H180710   3.781   6.665  16.365  0.3001  0.5844 -1.1673
19765TIP3    H280711   3.749   6.547  16.276 -0.0746 -0.3727  0.2160
19766TIP3   OH280712   1.833   4.832  15.681 -0.0734 -0.2565  0.1490
19766TIP3    H180713   1.738   4.842  15.683 -0.0455 -0.2287  3.3168
19766TIP3    H280714   1.859   4.831  15.773  3.1607  1.2478 -0.6732
19767TIP3   OH280715   0.287   2.008   0.287  0.4330  0.3549  0.5606
19767TIP3    H180716   0.361   2.059   0.252  0.1528  1.0130  0.9017
19767TIP3    H280717   0.297   2.016   0.382  1.1236 -1.3151  0.6341
19768TIP3   OH280718   4.776   5.099  12.069 -0.4526 -0.1290 -0.1752
19768TIP3    H180719   4.736   5.167  12.014 -1.2107 -0.0049  0.5066
19768TIP3    H280720   4.745   5.120  12.157  1.1501 -0.0224  0.3743
19769TIP3   OH280721   3.139   3.519  17.116  0.2781  0.0796 -0.1973
19769TIP3    H180722   3.143   3.600  17.065  2.3691  0.7207  0.9263
19769TIP3    H280723   3.100   3.545  17.199 -0.5771 -0.4136 -0.4387
19770TIP3   OH280724   6.769   1.633   0.953 -0.7143 -0.7224 -0.3043
19770TIP3    H180725   6.785   1.550   0.997  0.4814 -1.1147 -1.4656
19770TIP3    H280726   6.778   1.699   1.023  0.2600 -1.4104  0.2382
19771TIP3   OH280727   5.767   4.344  17.176 -0.0283 -0.1322 -0.0469
19771TIP3    H180728   5.708   4.349  17.251  0.2311  0.9991  0.0832
19771TIP3    H280729   5.784   4.250  17.165 -1.8136 -0.4712 -0.0597
19772TIP3   OH280730   1.039   5.520   1.671  0.0660 -0.1886 -0.0163
19772TIP3    H180731   1.117   5.566   1.702 -0.3285 -0.9868  2.2243
19772TIP3    H280732   1.065   5.427   1.670 -0.4998 -0.3430 -0.3337
19773TIP3   OH280733   6.718   0.113   4.741 -0.1440 -0.4301  0.1815
19773TIP3    H180734   6.734   0.207   4.749  1.6271 -0.7344  0.4760
19773TIP3    H280735   6.801   0.077   4.712 -0.5906 -2.0030  0.7935
19774TIP3   OH280736   5.842   5.436   2.567 -0.1923  0.2085  0.3291
19774TIP3    H180737   5.887   5.508   2.524 -0.1768  0.6563  1.0782
19774TIP3    H280738   5.782   5.478   2.629  0.7158 -0.4242  1.6737
19775TIP3   OH280739   0.396   0.145   0.778  0.3027  0.2779 -0.0711
19775TIP3    H180740   0.420   0.205   0.707 -1.4506  1.4987  0.3372
19775TIP3    H280741   0.456   0.071   0.767 -0.5160  0.0035 -3.3854
19776TIP3   OH280742   6.048   1.835   3.935 -0.2335 -0.2624 -0.2627
19776TIP3    H180743   6.132   1.791   3.952 -0.0557 -0.0990 -0.7023
19776TIP3    H280744   5.997   1.821   4.014 -0.6198 -2.2400 -0.8440
19777TIP3   OH280745   1.797   4.654   5.317 -0.0686  0.0571 -0.1943
19777TIP3    H180746   1.719   4.599   5.314 -0.7450  1.0231 -0.6034
19777TIP3    H280747   1.763   4.744   5.317  1.0695  0.5017 -1.3212
19778TIP3   OH280748   1.642   1.797  17.162  0.3954 -0.2542  0.9546
19778TIP3    H180749   1.615   1.888  17.148  0.7057 -0.0421  1.6844
19778TIP3    H280750   1.723   1.788  17.112 -0.4648 -0.5929 -0.3948
19779TIP3   OH280751   3.037   1.810  12.633 -0.3823  0.0661  0.4096
19779TIP3    H180752   3.010   1.901  12.621  1.5209  0.5951 -0.0716
19779TIP3    H280753   3.125   1.816  12.671  1.7146 -1.4848 -3.8025
19780TIP3   OH280754   3.187   3.540   4.349  0.6591  0.2215 -0.0885
19780TIP3    H180755   3.215   3.450   4.364  2.1636  0.8654  1.0208
19780TIP3    H280756   3.233   3.567   4.270 -0.0041 -0.0574 -0.5782
19781TIP3   OH280757   3.850   4.967  14.465 -0.3909  0.1516  0.0086
19781TIP3    H180758   3.906   4.919  14.404  0.0850  0.7339 -0.0181
19781TIP3    H280759   3.809   5.035  14.412  1.3664  1.7724  0.6611
19782TIP3   OH280760   0.956   5.532   5.871  0.5139  0.5979  0.8473
19782TIP3    H180761   0.918   5.508   5.956  1.5626 -0.9728  0.9021
19782TIP3    H280762   0.886   5.577   5.825 -1.0093 -1.0846  1.4384
19783TIP3   OH280763   6.304   4.475  17.016 -0.5958  0.2849 -0.1950
19783TIP3    H180764   6.240   4.409  16.990 -1.3028  1.3792 -1.2562
19783TIP3    H280765   6.362   4.484  16.939  0.0421  0.2447  0.2747
19784TIP3   OH280766   3.604   3.050   1.369 -0.0464 -0.4517 -0.6765
19784TIP3    H180767   3.644   3.137   1.374  1.1031 -0.9370 -1.2578
19784TIP3    H280768   3.538   3.051   1.438 -0.0784  0.8969 -0.7013
19785TIP3   OH280769   5.040   6.591  15.316  0.2203 -0.5464  0.0800
19785TIP3    H180770   5.054   6.613  15.224 -1.1724  1.9258  0.4249
19785TIP3    H280771   5.078   6.664  15.364 -0.3483 -1.1297  1.4395
19786TIP3   OH280772   1.732   1.493   2.838  0.3200  0.3339 -0.2539
19786TIP3    H180773   1.703   1.486   2.747  1.5689 -0.2409 -0.6188
19786TIP3    H280774   1.653   1.475   2.890  0.4265 -3.2828 -1.1977
19787TIP3   OH280775   4.196   1.192  14.419 -0.1851 -0.4200 -0.2941
19787TIP3    H180776   4.277   1.201  14.471  0.9533 -1.9233 -1.7636
19787TIP3    H280777   4.202   1.262  14.354 -0.5249  0.0599  0.1897
19788TIP3   OH280778   5.311   3.949   4.608 -0.1443  0.0756  0.1152
19788TIP3    H180779   5.386   3.989   4.651 -0.9377 -0.3082  1.8988
19788TIP3    H280780   5.241   4.014   4.615  0.0492  0.5084 -1.7062
19789TIP3   OH280781   0.171   5.507  15.547  0.2117  0.0097 -0.0576
19789TIP3    H180782   0.230   5.559  15.602  1.2270 -0.6545 -0.4959
19789TIP3    H280783   0.110   5.466  15.608  0.2478  0.6614  0.4104
19790TIP3   OH280784   5.230   5.361   1.648 -0.7837 -0.4217  0.2566
19790TIP3    H180785   5.283   5.440   1.641 -0.4983 -0.4362  1.9643
19790TIP3    H280786   5.294   5.289   1.642 -0.7399 -0.4622  1.0964
19791TIP3   OH280787   3.562   1.086   5.096  0.7252 -0.3293 -0.1495
19791TIP3    H180788   3.602   1.096   5.010  0.3582 -3.7764 -0.7672
19791TIP3    H280789   3.467   1.089   5.079  0.6477 -0.0266  0.2966
19792TIP3   OH280790   4.134   5.536   6.104 -0.3005  0.1603  0.1637
19792TIP3    H180791   4.067   5.479   6.142 -1.0666  0.5549 -0.5758
19792TIP3    H280792   4.200   5.545   6.173 -0.6150 -0.8811  0.6104
19793TIP3   OH280793   4.179   2.224   1.596 -0.3199  0.1618 -0.2615
19793TIP3    H180794   4.101   2.180   1.631 -0.4992  0.0413 -0.8079
19793TIP3    H280795   4.150   2.261   1.513  0.4575 -0.6914 -0.9165
19794TIP3   OH280796   5.289   4.411  12.459  0.6560 -0.2931  0.0654
19794TIP3    H180797   5.306   4.478  12.525  1.5738 -0.3046 -0.1439
19794TIP3    H280798   5.288   4.459  12.376 -0.5894 -0.2639  0.0934
19795TIP3   OH280799   1.892   3.253  16.827 -0.8184  0.4158  0.1857
19795TIP3    H180800   1.802   3.229  16.805 -0.4015  0.3224 -1.4940
19795TIP3    H280801   1.946   3.193  16.776  0.2097  0.5341  1.1040
19796TIP3   OH280802   4.717   3.571  14.241 -0.4715 -0.7344  0.3722
19796TIP3    H180803   4.647   3.608  14.293  0.2274  0.3649  0.5598
19796TIP3    H280804   4.679   3.560  14.154 -0.3640  1.5608  0.0016
19797TIP3   OH280805   2.762   0.946  16.876 -0.0289  0.8430  0.1995
19797TIP3    H180806   2.714   0.898  16.808  0.1911 -0.3807  0.8971
19797TIP3    H280807   2.762   1.036  16.845 -3.9700  1.1394  0.8380
19798TIP3   OH280808   5.613   0.150   4.933  0.6734  0.8177 -0.2579
19798TIP3    H180809   5.667   0.182   5.006  0.4648  0.4113  0.0782
19798TIP3    H280810   5.537   0.209   4.933  0.2980  0.3456  0.3520
19799TIP3   OH280811   5.513   1.993   2.613 -0.5063  0.1307  0.1211
19799TIP3    H180812   5.422   1.963   2.607 -1.0461  1.6851  0.1886
19799TIP3    H280813   5.513   2.078   2.568  1.2459 -0.5261 -1.2064
19800TIP3   OH280814   2.683   5.130  14.369 -0.7069 -0.3691  0.1582
19800TIP3    H180815   2.681   5.219  14.404 -2.0791 -0.2022 -0.3267
19800TIP3    H280816   2.746   5.133  14.297 -0.1167 -0.0068  0.6835
19801TIP3   OH280817   0.816   4.572  14.698 -0.7497 -0.6924  0.0572
19801TIP3    H180818   0.724   4.583  14.674 -0.6768  1.4700  0.5906
19801TIP3    H280819   0.823   4.612  14.785  0.9211  0.2629 -0.4940
19802TIP3   OH280820   4.032   5.967  15.990 -0.4131 -0.3932 -0.4262
19802TIP3    H180821   4.052   5.966  16.084  1.1410  1.0060 -0.7107
19802TIP3    H280822   4.105   5.919  15.950  0.1373  0.9774 -1.1036
19803TIP3   OH280823   1.049   5.368  10.362  0.1394 -0.3065  0.8151
19803TIP3    H180824   1.064   5.462  10.366  0.8078 -0.2658 -1.7146
19803TIP3    H280825   1.129   5.329  10.395  0.4269  0.0176  0.5089
19804TIP3   OH280826   3.129   6.362   4.353  0.1428 -0.4049  0.3406
19804TIP3    H180827   3.207   6.342   4.405  0.3912 -0.0494  0.1101
19804TIP3    H280828   3.070   6.288   4.368  0.5679 -0.7247  0.4292
19805TIP3   OH280829   5.285   6.436  12.788 -0.0758 -0.6553  0.7128
19805TIP3    H180830   5.362   6.413  12.840 -1.1598  0.0060  2.6150
19805TIP3    H280831   5.235   6.354  12.783 -0.4713 -0.4589  1.5433
19806TIP3   OH280832   5.975   3.914   2.543  0.1769  0.2642  0.3089
19806TIP3    H180833   5.884   3.938   2.563 -0.0525 -1.3184  1.3043
19806TIP3    H280834   5.969   3.858   2.466  0.1913 -0.7496  1.0400
19807TIP3   OH280835   6.713   2.011   3.199  0.9505  0.2300 -0.8387
19807TIP3    H180836   6.745   1.922   3.211 -0.8160 -0.3398 -0.2187
19807TIP3    H280837   6.703   2.020   3.104  1.5647 -0.0720 -0.9359
19808TIP3   OH280838   0.361   2.474  11.405 -0.1496 -0.2128  0.3247
19808TIP3    H180839   0.288   2.523  11.369 -0.3282 -0.8488 -0.1980
19808TIP3    H280840   0.425   2.540  11.430 -0.5205  0.2965 -0.0655
19809TIP3   OH280841   5.420   0.311  12.579  0.0159 -0.6347 -0.5650
19809TIP3    H180842   5.499   0.353  12.544 -1.3175 -0.0189 -2.9612
19809TIP3    H280843   5.442   0.218  12.583  1.7297 -0.1854  1.2701
19810TIP3   OH280844   6.516   4.980   4.030  0.2640 -0.3207  0.3120
19810TIP3    H180845   6.533   4.888   4.008 -1.7341 -0.6553  0.0680
19810TIP3    H280846   6.424   4.982   4.056  0.2911  1.6154  0.3450
19811TIP3   OH280847   2.624   2.940   4.562 -0.0062  0.4584 -0.0765
19811TIP3    H180848   2.651   3.029   4.537  0.5815  0.1736 -0.4780
19811TIP3    H280849   2.544   2.924   4.511 -0.7035  1.1458  0.7887
19812TIP3   OH280850   0.710   1.589  16.642  0.0674 -0.2521 -0.8360
19812TIP3    H180851   0.664   1.522  16.591  1.6671 -0.8737 -1.4875
19812TIP3    H280852   0.796   1.552  16.659  0.7320  1.3482 -0.5782
19813TIP3   OH280853   0.078   5.759   1.423 -0.1211 -0.3307  0.3586
19813TIP3    H180854   0.028   5.797   1.495  0.0247 -0.2088  0.3956
19813TIP3    H280855   0.169   5.759   1.455 -0.1657 -1.0189  0.4973
19814TIP3   OH280856   6.321   0.985  13.146  0.2542 -0.2564  0.0608
19814TIP3    H180857   6.290   0.981  13.236 -0.6945 -0.6235 -0.2702
19814TIP3    H280858   6.301   1.074  13.118 -0.4212 -0.4598 -0.1170
19815TIP3   OH280859   0.601   1.192  11.210  0.0793 -0.9547  0.0263
19815TIP3    H180860   0.694   1.215  11.208  0.0902 -1.0420 -1.0538
19815TIP3    H280861   0.560   1.261  11.261  0.3437  0.6457 -1.8464
19816TIP3   OH280862   4.545   4.020   4.381 -0.1503  0.9510  0.1235
19816TIP3    H180863   4.546   4.037   4.476 -0.1867 -0.0566  0.3046
19816TIP3    H280864   4.508   3.932   4.372 -2.6186  2.0608 -1.0058
19817TIP3   OH280865   3.739   0.581   5.668  0.3710  0.3045 -0.6052
19817TIP3    H180866   3.806   0.534   5.717  1.2330  0.6238 -1.4618
19817TIP3    H280867   3.666   0.520   5.663  1.0914 -0.5535 -0.8061
19818TIP3   OH280868   0.295   3.630  15.503  0.0527 -0.3685  0.3223
19818TIP3    H180869   0.390   3.622  15.507  0.2403  2.0443  1.2896
19818TIP3    H280870   0.263   3.562  15.562  1.1660 -1.2073 -0.0274
19819TIP3   OH280871   2.817   1.702   1.513  0.0273  0.2600 -0.0659
19819TIP3    H180872   2.897   1.696   1.565 -0.0450  1.8466  0.2382
19819TIP3    H280873   2.844   1.681   1.424  0.6868  0.2838  0.1269
19820TIP3   OH280874   0.580   1.862  12.371 -0.2439 -0.7775  0.1076
19820TIP3    H180875   0.502   1.913  12.393  0.3596  0.9024 -1.5310
19820TIP3    H280876   0.549   1.798  12.307 -0.2691 -0.0906 -0.5691
19821TIP3   OH280877   0.585   3.490   4.088 -0.4967  0.3535  0.3251
19821TIP3    H180878   0.559   3.420   4.148 -1.7585  0.4240 -0.1303
19821TIP3    H280879   0.530   3.564   4.113  0.5724  1.0805  0.5582
19822TIP3   OH280880   4.043   2.459   1.858  0.3527  0.1486  0.1525
19822TIP3    H180881   3.978   2.388   1.857  0.2099  0.2889 -1.2771
19822TIP3    H280882   4.078   2.462   1.769  1.1277  1.1777  0.4726
19823TIP3   OH280883   2.683   1.439   0.374 -0.2382 -0.2753  0.0725
19823TIP3    H180884   2.626   1.462   0.447  1.3599 -0.3080  1.3841
19823TIP3    H280885   2.730   1.362   0.405 -0.7737 -1.3099 -1.6807
19824TIP3   OH280886   3.455   2.777   1.363  0.3395 -0.7729  0.0208
19824TIP3    H180887   3.480   2.842   1.298  0.4879 -1.9953 -1.1666
19824TIP3    H280888   3.360   2.783   1.368  0.2589 -1.2731 -0.9408
19825TIP3   OH280889   5.243   1.870  11.994  0.5126  0.5226 -0.0699
19825TIP3    H180890   5.199   1.804  12.047 -1.2543  1.9101  0.2663
19825TIP3    H280891   5.335   1.846  11.996  0.1942 -0.6334  1.9198
19826TIP3   OH280892   5.099   1.197  16.262  0.1224 -0.6912 -0.0010
19826TIP3    H180893   5.044   1.183  16.338 -1.6862 -1.0149 -1.3332
19826TIP3    H280894   5.142   1.113  16.247 -0.3571 -0.9342  0.0034
19827TIP3   OH280895   4.100   2.036   4.608 -0.9947  0.4586 -0.3656
19827TIP3    H180896   4.120   1.951   4.647 -0.0775  1.3860  1.2227
19827TIP3    H280897   4.125   2.027   4.516 -0.7770 -0.9369 -0.1793
19828TIP3   OH280898   6.203   3.112  12.202  0.4435  0.3174 -0.0502
19828TIP3    H180899   6.209   3.027  12.159 -1.7078 -1.5269  3.0755
19828TIP3    H280900   6.117   3.145  12.177  0.9901  1.2686 -0.6917
19829TIP3   OH280901   1.296   6.521   3.972 -0.6137 -0.5035  0.2831
19829TIP3    H180902   1.219   6.574   3.993 -0.6473 -0.3014 -0.3572
19829TIP3    H280903   1.331   6.496   4.057 -0.8107  0.2411  0.5885
19830TIP3   OH280904   4.492   3.133   3.798  0.6028  0.4996 -0.1575
19830TIP3    H180905   4.560   3.139   3.865 -0.3961  0.6813  0.8753
19830TIP3    H280906   4.532   3.168   3.719  2.2033 -0.8706  0.0236
19831TIP3   OH280907   6.313   1.697   5.679 -0.1099  0.3039 -0.5234
19831TIP3    H180908   6.375   1.770   5.677  0.4526 -0.1823 -3.4371
19831TIP3    H280909   6.308   1.667   5.588 -3.8248 -0.3609 -0.2092
19832TIP3   OH280910   3.230   1.683  12.315  0.0893 -1.0087 -0.7537
19832TIP3    H180911   3.143   1.691  12.278  0.2318 -1.6036 -1.2094
19832TIP3    H280912   3.251   1.772  12.344  0.7873 -0.0939 -3.8712
19833TIP3   OH280913   2.970   2.368   0.261  0.4518  0.4776 -0.0455
19833TIP3    H180914   2.975   2.280   0.297 -0.0263  0.6958  0.5588
19833TIP3    H280915   2.977   2.356   0.166  1.4955 -0.1131  0.1003
19834TIP3   OH280916   0.327   0.832   2.331  0.1140 -0.4550 -0.3984
19834TIP3    H180917   0.395   0.818   2.397  0.1966 -1.9878 -0.8019
19834TIP3    H280918   0.374   0.871   2.256  0.3782 -0.6342 -0.3258
19835TIP3   OH280919   2.468   2.457  12.422  0.4954 -0.0958 -0.1866
19835TIP3    H180920   2.531   2.461  12.494 -0.1102 -1.9423  0.4708
19835TIP3    H280921   2.465   2.547  12.388 -0.7723  1.3294  3.4367
19836TIP3   OH280922   0.665   1.941  15.978 -0.4393  0.2288 -1.0139
19836TIP3    H180923   0.756   1.910  15.977 -0.6619 -0.4228 -2.1648
19836TIP3    H280924   0.672   2.035  15.995  0.3310 -0.1524  0.9212
19837TIP3   OH280925   2.699   0.289   1.409 -0.2439  0.2446  0.0901
19837TIP3    H180926   2.787   0.261   1.384  0.6157  1.9197  1.1292
19837TIP3    H280927   2.663   0.214   1.457  1.1017  0.0212  0.7712
19838TIP3   OH280928   1.922   4.357   2.354 -0.2535 -0.1986 -0.7823
19838TIP3    H180929   1.969   4.332   2.275 -0.0590 -0.2527 -0.6499
19838TIP3    H280930   1.868   4.432   2.327 -0.8022 -0.7260 -1.1606
19839TIP3   OH280931   0.919   5.758   2.839  0.0241  0.3887 -0.0579
19839TIP3    H180932   0.940   5.764   2.746 -1.6644 -0.9817 -0.5492
19839TIP3    H280933   0.985   5.698   2.875 -0.0924 -0.0803 -0.6292
19840TIP3   OH280934   3.586   0.628  13.636 -0.6614 -0.2772  0.4392
19840TIP3    H180935   3.633   0.708  13.612 -0.9218 -0.1504  0.3427
19840TIP3    H280936   3.654   0.561  13.642 -0.3758  0.0632  1.0328
19841TIP3   OH280937   6.092   5.940  13.412 -0.2367  0.0378 -0.1576
19841TIP3    H180938   6.136   5.893  13.484  1.3099  0.4896 -0.7840
19841TIP3    H280939   5.999   5.927  13.429  0.1304 -1.9303  0.5644
19842TIP3   OH280940   5.033   4.416  13.983  0.4498 -0.5308 -0.1021
19842TIP3    H180941   4.995   4.332  14.009 -0.9944 -0.4313 -1.7788
19842TIP3    H280942   4.957   4.474  13.969  1.3397  0.5163 -0.7202
19843TIP3   OH280943   6.506   6.163   3.541 -0.1437 -0.6180  0.0976
19843TIP3    H180944   6.447   6.211   3.482 -0.6114 -1.3160 -0.0022
19843TIP3    H280945   6.578   6.225   3.557 -1.5232  0.7338  1.2547
19844TIP3   OH280946   5.010   2.839   4.926  0.0474 -0.0123 -0.3465
19844TIP3    H180947   5.042   2.910   4.871 -0.9133 -0.2043 -1.1715
19844TIP3    H280948   4.980   2.772   4.864 -0.0020 -0.7074  0.4160
19845TIP3   OH280949   1.269   2.695   2.743  0.2123  0.3789  0.9088
19845TIP3    H180950   1.198   2.631   2.748  2.7071 -2.4707  2.2974
19845TIP3    H280951   1.275   2.730   2.832  1.1752 -0.1602  1.0636
19846TIP3   OH280952   3.652   4.044   1.884 -0.2435  0.1420 -0.3100
19846TIP3    H180953   3.667   4.134   1.854  1.6571  0.4218  1.3831
19846TIP3    H280954   3.737   4.002   1.881 -1.0264 -1.4701 -0.5864
19847TIP3   OH280955   3.745   5.167   2.841  0.0802  0.0268 -0.2524
19847TIP3    H180956   3.686   5.238   2.866 -0.2192 -0.8843  1.7198
19847TIP3    H280957   3.688   5.090   2.830  0.7529 -0.6098  0.6271
19848TIP3   OH280958   1.717   3.873   0.347  0.1994  0.1073 -0.1201
19848TIP3    H180959   1.643   3.874   0.287  1.3116  1.0317 -1.5298
19848TIP3    H280960   1.680   3.850   0.432 -2.0143  2.5797 -0.3732
19849TIP3   OH280961   3.110   1.002  13.327 -0.3919  0.8821  0.0467
19849TIP3    H180962   3.098   0.908  13.318  3.6274  0.4949 -1.9177
19849TIP3    H280963   3.063   1.040  13.253  1.2625  0.1463 -1.3854
19850TIP3   OH280964   4.275   5.934  12.060  0.2683  0.1763 -0.0554
19850TIP3    H180965   4.344   5.881  12.100  0.0823  1.0748  1.5145
19850TIP3    H280966   4.194   5.900  12.098  0.2411  2.4735  2.1033
19851TIP3   OH280967   4.101   2.069  16.878 -0.6565 -0.4745  0.0619
19851TIP3    H180968   4.121   1.979  16.855  0.5537 -0.1264 -0.2988
19851TIP3    H280969   4.158   2.088  16.953  0.3223  0.4986 -0.9034
19852TIP3   OH280970   6.431   2.746  11.412 -0.4753 -0.9132 -0.1245
19852TIP3    H180971   6.390   2.660  11.409 -2.6112  0.0937 -1.0401
19852TIP3    H280972   6.368   2.801  11.460  0.8854  0.1226  0.5228
19853TIP3   OH280973   6.718   3.946   3.959 -0.1025  0.1053 -0.0541
19853TIP3    H180974   6.760   4.030   3.945  0.9486 -0.2431  0.8788
19853TIP3    H280975   6.784   3.881   3.932 -0.2410 -0.4359  0.8659
19854TIP3   OH280976   3.330   1.647  11.353 -0.3224  0.3889  0.3260
19854TIP3    H180977   3.423   1.659  11.375 -0.2225  0.8086 -0.3208
19854TIP3    H280978   3.328   1.567  11.300 -0.4251 -0.0157  0.9332
19855TIP3   OH280979   4.224   0.971   5.711 -0.8375  0.9257 -0.3426
19855TIP3    H180980   4.217   1.023   5.631  0.0422  1.3012 -0.1841
19855TIP3    H280981   4.155   1.006   5.768 -1.9167  0.1847 -1.1894
19856TIP3   OH280982   1.058   3.142   0.083 -0.3506 -0.2652  0.0338
19856TIP3    H180983   1.105   3.183   0.010  0.2488 -0.1158  0.5008
19856TIP3    H280984   0.968   3.132   0.051 -0.3389  0.7617 -0.3503
19857TIP3   OH280985   4.260   2.933   3.040  0.2603 -0.0833  0.0944
19857TIP3    H180986   4.202   2.935   2.964 -0.5636 -0.0690  0.7197
19857TIP3    H280987   4.203   2.955   3.114  1.2228  0.7177  0.6105
19858TIP3   OH280988   3.778   2.990  14.651 -0.6039  0.2475  0.2864
19858TIP3    H180989   3.716   3.054  14.615 -0.9670  0.0190  0.4928
19858TIP3    H280990   3.831   2.963  14.576 -1.5864 -0.4857 -0.1679
19859TIP3   OH280991   0.503   4.533   3.010 -0.0318  0.4874  0.0151
19859TIP3    H180992   0.592   4.543   3.044 -0.1223 -1.4471  0.8854
19859TIP3    H280993   0.455   4.490   3.080 -1.6104  1.3006 -0.5441
19860TIP3   OH280994   1.969   5.118   1.694 -0.2852 -0.1562  0.0060
19860TIP3    H180995   1.942   5.081   1.610  1.9198  0.0455 -0.8116
19860TIP3    H280996   2.052   5.075   1.714 -0.4027  0.3696  1.7262
19861TIP3   OH280997   1.751   4.031   5.303 -0.0710 -0.3908  0.9317
19861TIP3    H180998   1.702   4.048   5.222  1.7421  1.5172  0.2001
19861TIP3    H280999   1.700   4.073   5.372 -0.7229 -0.5092  0.5229
19862TIP3   OH281000   4.481   2.081  12.484  0.1453 -0.4418 -0.2475
19862TIP3    H181001   4.529   2.011  12.530 -0.9391 -1.9467 -1.3785
19862TIP3    H281002   4.547   2.120  12.426  0.3969 -1.5306 -0.7199
19863TIP3   OH281003   2.425   5.175   1.211 -0.5382  0.6824  0.6324
19863TIP3    H181004   2.474   5.214   1.138 -0.4459  0.4372  0.5643
19863TIP3    H281005   2.489   5.119   1.255 -1.2456 -1.1107 -0.5717
19864TIP3   OH281006   5.177   3.390   1.946 -0.2385 -0.7696 -0.3373
19864TIP3    H181007   5.096   3.355   1.983 -0.3611 -0.3446 -0.2012
19864TIP3    H281008   5.243   3.374   2.013 -0.3195 -0.6331 -0.2239
19865TIP3   OH281009   6.045   6.355  14.082  0.1058 -0.6087 -0.1239
19865TIP3    H181010   6.043   6.448  14.059  0.9148  0.0668  2.3745
19865TIP3    H281011   6.135   6.328  14.063  0.0912 -0.6759 -0.0956
19866TIP3   OH281012   1.889   0.168   0.849  0.0590 -0.0669 -0.1736
19866TIP3    H181013   1.807   0.215   0.865  0.3678  0.4483 -0.0971
19866TIP3    H281014   1.956   0.236   0.851  0.5172 -0.5237  0.0009
19867TIP3   OH281015   4.007   4.608  14.863  0.0341 -0.4620  0.0011
19867TIP3    H181016   3.973   4.555  14.791 -0.4950 -0.0175 -0.0783
19867TIP3    H281017   4.076   4.554  14.902 -1.5694 -1.8983  0.9155
19868TIP3   OH281018   6.419   2.395   0.991  0.5653  0.2475  0.2374
19868TIP3    H181019   6.417   2.379   1.086  1.9926  1.0173  0.4068
19868TIP3    H281020   6.511   2.388   0.967  0.2211  0.0820 -1.1056
19869TIP3   OH281021   5.818   5.559  13.569  0.5760 -0.0839  0.0823
19869TIP3    H181022   5.767   5.600  13.639  1.8088 -0.6746  1.3391
19869TIP3    H281023   5.751   5.527  13.507 -0.6399 -1.4008  2.0013
19870TIP3   OH281024   2.666   0.933   1.429  1.1161 -0.4857 -0.7758
19870TIP3    H181025   2.760   0.951   1.436  0.9791  0.0909 -0.3878
19870TIP3    H281026   2.640   0.909   1.518  0.7156  0.2654 -0.6837
19871TIP3   OH281027   2.392   4.301  13.368 -0.3648 -0.3243 -0.1056
19871TIP3    H181028   2.336   4.251  13.427  0.2727  2.1636  2.7157
19871TIP3    H281029   2.458   4.238  13.338 -0.8447 -1.6994  1.6889
19872TIP3   OH281030   0.318   4.954   5.846  0.1649  0.3567  0.2651
19872TIP3    H181031   0.269   5.035   5.834  0.4274  0.3245 -1.1015
19872TIP3    H281032   0.286   4.918   5.929 -3.1887 -0.4252 -1.3208
19873TIP3   OH281033   2.869   4.613   2.079 -0.0066  0.3629  0.3099
19873TIP3    H181034   2.832   4.545   2.136  1.3294  0.5144  1.3846
19873TIP3    H281035   2.831   4.694   2.111 -1.6727  0.1358 -1.0316
19874TIP3   OH281036   0.368   3.331  12.542 -0.1281  0.1203  0.3155
19874TIP3    H181037   0.394   3.392  12.611 -0.0527  1.1911 -0.6433
19874TIP3    H281038   0.365   3.384  12.463 -0.2522 -1.0867 -0.5057
19875TIP3   OH281039   3.195   1.458  14.362 -0.0914  0.0708 -0.0431
19875TIP3    H181040   3.231   1.431  14.278  1.5787 -0.2434  0.7600
19875TIP3    H281041   3.217   1.551  14.369 -0.3508  0.1306 -0.0244
19876TIP3   OH281042   6.299   5.714  11.720  0.4009  0.1733  0.2058
19876TIP3    H181043   6.249   5.790  11.750 -0.7809  0.0104 -1.2462
19876TIP3    H281044   6.390   5.736  11.738 -0.0113  1.4721  0.7857
19877TIP3   OH281045   0.684   1.459   5.078  0.1622 -0.7418  0.3276
19877TIP3    H181046   0.681   1.408   4.996 -2.0221 -2.9932  1.7322
19877TIP3    H281047   0.607   1.430   5.127 -0.1414  2.6382  2.0176
19878TIP3   OH281048   5.764   5.799   6.272  0.4542 -0.7475 -0.4817
19878TIP3    H181049   5.714   5.859   6.216 -0.9077 -3.5721 -2.4342
19878TIP3    H281050   5.707   5.782   6.346  1.3847  1.3356  0.7550
19879TIP3   OH281051   3.461   2.810  12.332  0.2015  0.0092  0.4191
19879TIP3    H181052   3.513   2.839  12.407 -0.1655  0.0355  0.6654
19879TIP3    H281053   3.487   2.867  12.260 -0.9704  1.3789  1.0544
19880TIP3   OH281054   5.662   0.392   6.381  0.0108 -0.3628 -0.0553
19880TIP3    H181055   5.644   0.479   6.415  1.1126 -0.6096  1.2097
19880TIP3    H281056   5.580   0.344   6.391  0.3256 -0.4426  2.3097
19881TIP3   OH281057   2.018   4.167   1.570 -0.1992  0.2524 -0.1887
19881TIP3    H181058   2.078   4.157   1.644  0.6123  0.5284 -0.8024
19881TIP3    H281059   1.973   4.250   1.587 -0.2975  0.1254  0.1883
19882TIP3   OH281060   2.315   0.074   3.451  0.1000  0.0603  0.1294
19882TIP3    H181061   2.349  -0.000   3.402  0.2549  0.4712 -0.3919
19882TIP3    H281062   2.312   0.146   3.387  0.2251  0.5778  0.6984
19883TIP3   OH281063   2.324   6.785   5.662 -0.4117 -0.0804  0.4737
19883TIP3    H181064   2.352   6.875   5.676 -0.8379 -0.1940  2.1845
19883TIP3    H281065   2.243   6.777   5.712 -2.3941 -0.3912 -2.6160
19884TIP3   OH281066   3.212   2.418  12.458  0.1157 -0.6885 -0.8016
19884TIP3    H181067   3.278   2.455  12.399  0.1122 -0.4382 -0.6444
19884TIP3    H281068   3.136   2.476  12.450  0.8974  0.6235  1.1424
19885TIP3   OH281069   6.222   2.928  15.222 -0.6059  0.3882  0.0056
19885TIP3    H181070   6.189   2.892  15.140 -1.4861  1.1818  0.0070
19885TIP3    H281071   6.235   3.021  15.204 -0.0127  0.4103  0.5252
19886TIP3   OH281072   0.944   4.044  16.832 -0.2294  0.2335 -0.3209
19886TIP3    H181073   0.856   4.068  16.862  0.4606  0.7473  1.3714
19886TIP3    H281074   1.003   4.101  16.882  1.1736 -1.5976  0.2063
19887TIP3   OH281075   0.704   2.558  13.541 -0.2098 -0.4434 -0.0931
19887TIP3    H181076   0.638   2.537  13.474  1.0855  0.9997 -1.8451
19887TIP3    H281077   0.737   2.644  13.516  0.4254  0.0492  2.3371
19888TIP3   OH281078   5.886   5.659   4.606  0.8143  0.1735 -0.6290
19888TIP3    H181079   5.802   5.623   4.578 -0.2301  1.3225  0.9157
19888TIP3    H281080   5.903   5.731   4.545 -0.3133  1.1868  0.2128
19889TIP3   OH281081   1.204   1.434   0.198  0.2571 -0.1911 -0.7765
19889TIP3    H181082   1.111   1.417   0.184 -0.0449  1.4966 -0.9581
19889TIP3    H281083   1.248   1.352   0.174 -1.1594 -0.9282 -0.8850
19890TIP3   OH281084   3.848   2.773  16.280 -0.2127 -0.0014  0.2184
19890TIP3    H181085   3.782   2.799  16.344 -0.5742 -3.0665  1.1826
19890TIP3    H281086   3.917   2.839  16.288 -1.3676  1.0292  1.9977
19891TIP3   OH281087   5.649   3.765   1.084  0.0849  0.2168  0.8926
19891TIP3    H181088   5.574   3.774   1.026  2.3790  1.4866 -2.0255
19891TIP3    H281089   5.648   3.844   1.138  0.4776  1.2742 -0.6157
19892TIP3   OH281090   2.081   1.431  14.099  0.2147 -0.1797  0.0209
19892TIP3    H181091   2.039   1.441  14.014  1.2602 -1.6251 -0.6860
19892TIP3    H281092   2.137   1.508  14.109  0.1583 -0.0561 -0.6360
19893TIP3   OH281093   1.113   1.175   3.521 -0.0546 -0.3714 -0.2455
19893TIP3    H181094   1.086   1.246   3.463 -0.2918 -1.6582 -1.7266
19893TIP3    H281095   1.200   1.200   3.551 -1.3562  2.0531  1.7236
19894TIP3   OH281096   0.626   0.259  14.847  0.5149  0.1862 -0.2160
19894TIP3    H181097   0.686   0.322  14.806 -0.1189  1.1556  0.3170
19894TIP3    H281098   0.669   0.174  14.837  1.7035  0.7975 -0.3611
19895TIP3   OH281099   5.724   1.148  15.489  0.0399 -0.2491 -0.2416
19895TIP3    H181100   5.792   1.214  15.500  0.3335 -0.8645  1.7592
19895TIP3    H281101   5.649   1.182  15.536  0.4965 -1.7615  1.6222
19896TIP3   OH281102   4.108   5.211  15.880  0.1835  0.4946 -0.2819
19896TIP3    H181103   4.152   5.148  15.823 -0.1391  1.3416 -1.4783
19896TIP3    H281104   4.028   5.166  15.907  0.2325  0.1757 -0.6594
19897TIP3   OH281105   1.521   2.266  16.465 -0.3402 -0.7933  0.7328
19897TIP3    H181106   1.454   2.288  16.400 -0.4945 -1.0718  0.7981
19897TIP3    H281107   1.593   2.229  16.414 -0.0722 -0.1387  0.6248
19898TIP3   OH281108   5.689   0.249  14.688 -0.1807  0.7244 -0.9441
19898TIP3    H181109   5.710   0.189  14.617  2.9992 -0.2870  0.7349
19898TIP3    H281110   5.647   0.195  14.754 -0.4983  1.0526 -0.8804
19899TIP3   OH281111   3.387   2.505   5.686  0.3882  0.0583 -0.1735
19899TIP3    H181112   3.437   2.581   5.716 -0.0741  0.6366 -0.8477
19899TIP3    H281113   3.324   2.488   5.756  1.5213 -0.6797  0.6890
19900TIP3   OH281114   6.239   0.596   5.494  0.3243  0.2750  0.2945
19900TIP3    H181115   6.172   0.542   5.452 -1.8486  3.1781 -0.1147
19900TIP3    H281116   6.280   0.644   5.422  1.9636 -0.4712  0.7013
19901TIP3   OH281117   6.136   4.332   4.526  0.0980 -0.5727  0.3799
19901TIP3    H181118   6.119   4.259   4.586  1.5753 -0.3612  1.0872
19901TIP3    H281119   6.219   4.309   4.485 -1.1205 -0.9375 -1.9661
19902TIP3   OH281120   0.373   6.731   1.448  0.4685  0.6929 -0.4663
19902TIP3    H181121   0.403   6.651   1.405  2.7147  1.2380 -0.0077
19902TIP3    H281122   0.289   6.708   1.488  1.0607 -1.4166 -0.4124
19903TIP3   OH281123   1.157   6.735  13.352  0.2843  0.4293  1.0137
19903TIP3    H181124   1.170   6.645  13.382  0.3531 -0.2223 -0.8718
19903TIP3    H281125   1.061   6.744  13.347  0.2839 -0.3997 -1.1583
19904TIP3   OH281126   2.217   5.597   3.011  0.2686 -0.0334  0.0129
19904TIP3    H181127   2.205   5.512   2.969 -1.1300  0.1055  0.1160
19904TIP3    H281128   2.134   5.643   2.997  0.2404  0.5084  1.8280
19905TIP3   OH281129   4.723   3.722   4.163  0.0182  0.1460 -0.4996
19905TIP3    H181130   4.715   3.766   4.078  1.5652  2.0692  0.3149
19905TIP3    H281131   4.767   3.786   4.219  1.4334 -2.0869  1.0210
19906TIP3   OH281132   1.919   1.973   2.696 -0.4575 -0.5572 -0.0705
19906TIP3    H181133   1.896   1.894   2.746 -1.2233  0.4746  1.2541
19906TIP3    H281134   1.843   1.990   2.641 -0.1165 -0.9963 -0.6708
19907TIP3   OH281135   3.998   4.647   3.943 -0.4314 -0.7861 -0.1141
19907TIP3    H181136   3.906   4.648   3.917 -0.7779 -0.2621  1.1084
19907TIP3    H281137   3.997   4.658   4.038  0.9090 -0.4386 -0.1234
19908TIP3   OH281138   4.420   3.939  16.884 -0.1728 -0.1833  0.2723
19908TIP3    H181139   4.379   3.958  16.800 -0.5572 -1.6866  0.1005
19908TIP3    H281140   4.505   3.901  16.860  0.0074  0.0394  0.5674
19909TIP3   OH281141   5.871   3.088   5.361 -0.1521 -0.0445  0.2287
19909TIP3    H181142   5.789   3.138   5.361  1.1907  2.2515 -1.4209
19909TIP3    H281143   5.900   3.089   5.452 -1.3206  0.1681  0.6130
19910TIP3   OH281144   3.066   5.623   1.001  0.4342  0.4949  0.3496
19910TIP3    H181145   2.997   5.584   0.946  1.4620 -0.7214 -0.0941
19910TIP3    H281146   3.036   5.713   1.016 -0.1276  0.6809 -1.7431
19911TIP3   OH281147   2.843   6.230   3.122  0.1395 -0.2722 -0.3333
19911TIP3    H181148   2.839   6.139   3.093 -0.5106 -0.4742  0.3767
19911TIP3    H281149   2.811   6.281   3.047 -0.3397 -0.6980 -0.4211
19912TIP3   OH281150   6.261   5.294  13.620 -0.3451 -0.1636 -0.4985
19912TIP3    H181151   6.167   5.284  13.634 -0.1496 -1.2912  0.0612
19912TIP3    H281152   6.282   5.381  13.655 -0.9377 -0.4741  0.6316
19913TIP3   OH281153   0.856   5.310  11.384 -0.3336 -0.2954 -0.0607
19913TIP3    H181154   0.847   5.375  11.313 -1.2553  0.2678  0.5613
19913TIP3    H281155   0.786   5.247  11.367  0.6233 -1.2176 -0.7237
19914TIP3   OH281156   0.293   4.694  10.686 -0.3317 -0.6643  0.1712
19914TIP3    H181157   0.260   4.729  10.603  1.0739  1.2402  0.3887
19914TIP3    H281158   0.370   4.747  10.706 -0.5741 -1.1818  2.6386
19915TIP3   OH281159   4.505   2.340  11.415 -0.2293 -0.4134  0.3584
19915TIP3    H181160   4.599   2.319  11.418 -0.3390 -0.8213  1.0171
19915TIP3    H281161   4.479   2.343  11.507 -0.4538  1.5450  0.2569
19916TIP3   OH281162   0.975   4.924   6.305 -0.0156 -0.5474  0.5435
19916TIP3    H181163   0.911   4.992   6.287 -0.5641 -1.2319 -0.1080
19916TIP3    H281164   1.049   4.944   6.249 -0.0937 -0.3670  0.5063
19917TIP3   OH281165   5.328   0.750   2.671 -0.2646  0.4502  0.0787
19917TIP3    H181166   5.399   0.799   2.711 -0.5062  0.4334  0.5292
19917TIP3    H281167   5.257   0.752   2.735 -1.0483  1.3434 -0.7832
19918TIP3   OH281168   4.783   3.918   4.578  0.5436  0.0221  0.4285
19918TIP3    H181169   4.699   3.874   4.570 -0.4425  1.5395  1.9772
19918TIP3    H281170   4.831   3.867   4.643 -0.4875  1.0240  2.0136
19919TIP3   OH281171   3.321   4.355  12.082  0.2853  0.6514 -0.1789
19919TIP3    H181172   3.283   4.426  12.133  0.5551  0.7556 -0.1207
19919TIP3    H281173   3.302   4.276  12.133  0.7481  0.7800  0.1971
19920TIP3   OH281174   2.109   6.511  12.192 -0.1060  0.0009 -0.2687
19920TIP3    H181175   2.187   6.495  12.244  0.6791  1.6315 -0.9016
19920TIP3    H281176   2.040   6.525  12.256  0.4248 -0.0121  0.3141
19921TIP3   OH281177   2.853   3.342   5.631 -0.0619 -0.0253 -0.2479
19921TIP3    H181178   2.815   3.261   5.665 -0.2348 -0.6487 -1.8992
19921TIP3    H281179   2.792   3.370   5.563  1.5298 -0.0841 -1.7192
19922TIP3   OH281180   4.172   5.730   2.323 -0.3160  0.7728  0.1325
19922TIP3    H181181   4.123   5.808   2.299 -1.7038 -0.4310 -0.9592
19922TIP3    H281182   4.259   5.744   2.286 -0.9777  1.1730 -1.3058
19923TIP3   OH281183   5.513   4.695   4.567 -1.1830  0.2199  1.3581
19923TIP3    H181184   5.545   4.784   4.554  1.1196 -0.7987 -0.1305
19923TIP3    H281185   5.584   4.650   4.612 -0.9052 -1.7944 -1.0050
19924TIP3   OH281186   2.295   1.229   1.033  0.6625 -0.3447 -0.6468
19924TIP3    H181187   2.378   1.185   1.055  0.9601  0.7550  0.4457
19924TIP3    H281188   2.307   1.319   1.062 -1.4366 -0.4987  0.8394
19925TIP3   OH281189   3.105   2.955   4.944 -0.3590  0.1746 -0.3503
19925TIP3    H181190   3.171   3.012   4.906 -0.8976  1.7950  1.0894
19925TIP3    H281191   3.022   3.000   4.928 -0.8449 -0.4900  0.2584
19926TIP3   OH281192   3.554   2.214   1.016  0.3272  0.0445 -0.0697
19926TIP3    H181193   3.611   2.282   1.052  0.4558  0.1283 -0.4279
19926TIP3    H281194   3.477   2.214   1.073  0.8699 -0.3615  0.6639
19927TIP3   OH281195   6.558   0.369  16.416  0.1029 -0.7537  0.0304
19927TIP3    H181196   6.556   0.465  16.418  2.3736 -0.7043  2.2639
19927TIP3    H281197   6.588   0.348  16.327  1.1177  0.6467  0.0227
19928TIP3   OH281198   1.790   2.783  12.050  0.0706  0.3278  0.1420
19928TIP3    H181199   1.816   2.772  12.142 -1.2278  1.9066  0.7044
19928TIP3    H281200   1.703   2.744  12.045 -0.0640  0.6916 -0.3202
19929TIP3   OH281201   4.153   5.741  15.230  0.1064  0.4967  0.2738
19929TIP3    H181202   4.128   5.650  15.218 -0.1433  0.8899 -2.5831
19929TIP3    H281203   4.085   5.791  15.184  0.1783  2.1339  1.8924
19930TIP3   OH281204   4.177   2.195  14.813  0.2575 -0.1734 -0.2232
19930TIP3    H181205   4.265   2.164  14.834  0.5169 -0.6846 -1.9251
19930TIP3    H281206   4.119   2.127  14.847  0.5293  0.0037  0.6104
19931TIP3   OH281207   5.437   1.586  12.717 -0.1728  0.0875 -0.1395
19931TIP3    H181208   5.430   1.499  12.679  0.7427  0.2711 -0.7370
19931TIP3    H281209   5.437   1.571  12.812  0.7362 -0.6257 -0.2480
19932TIP3   OH281210   6.523   4.394  13.975 -0.2878 -0.0502 -0.5048
19932TIP3    H181211   6.490   4.342  13.901 -0.6592 -1.0181  0.3318
19932TIP3    H281212   6.468   4.473  13.975 -2.6989 -1.6947  0.9338
19933TIP3   OH281213   3.764   1.543   3.516 -0.0742 -0.2662 -0.1045
19933TIP3    H181214   3.696   1.562   3.581 -0.1430 -0.3598 -0.1487
19933TIP3    H281215   3.752   1.612   3.450  0.8393  0.6081  0.6309
19934TIP3   OH281216   0.429   2.223   2.284  0.0910 -0.0918 -0.3201
19934TIP3    H181217   0.385   2.248   2.203 -0.3839 -1.2344 -0.4095
19934TIP3    H281218   0.361   2.183   2.338  0.8100 -1.0070 -0.0806
19935TIP3   OH281219   0.403   0.989  11.009  0.1157  0.1967  0.1836
19935TIP3    H181220   0.425   0.899  10.982 -0.2321  0.2581 -0.3137
19935TIP3    H281221   0.385   0.982  11.103 -3.8577 -1.0470 -0.5511
19936TIP3   OH281222   4.260   3.522   4.079 -0.4210 -0.1994 -0.1873
19936TIP3    H181223   4.178   3.522   4.127  0.5025  0.4052  1.4388
19936TIP3    H281224   4.270   3.432   4.048 -0.9873 -0.6188  0.8402
19937TIP3   OH281225   3.832   4.447   2.882  0.2512 -0.1212 -0.3313
19937TIP3    H181226   3.869   4.534   2.891  1.6861 -0.6515 -1.0003
19937TIP3    H281227   3.771   4.439   2.955 -0.4665  1.7202 -0.7085
19938TIP3   OH281228   3.879   6.237   3.132  0.0310 -0.1434 -0.4644
19938TIP3    H181229   3.909   6.146   3.128 -1.5646 -0.6329 -1.7436
19938TIP3    H281230   3.784   6.232   3.138 -0.0429  1.4393  0.0134
19939TIP3   OH281231   2.260   2.919  12.639  0.4783 -0.0889  0.0243
19939TIP3    H181232   2.242   2.984  12.708  0.3242 -0.8183  0.6788
19939TIP3    H281233   2.275   2.838  12.687 -1.3287 -0.9711 -0.9054
19940TIP3   OH281234   0.745   2.482  16.907 -0.4349 -0.1765  0.3736
19940TIP3    H181235   0.675   2.530  16.863  0.6884  1.4437  0.3073
19940TIP3    H281236   0.708   2.458  16.992 -1.1282  0.5623  0.2906
19941TIP3   OH281237   1.794   5.120   5.086 -0.3244 -0.0403 -0.0270
19941TIP3    H181238   1.753   5.074   5.014 -0.4546  0.3852 -0.2287
19941TIP3    H281239   1.882   5.141   5.055 -0.0436 -0.7191  0.3049
19942TIP3   OH281240   4.638   2.606   2.908  0.1635  0.2526 -0.4079
19942TIP3    H181241   4.576   2.661   2.956  0.2764 -0.0491  0.0835
19942TIP3    H281242   4.702   2.579   2.973 -1.5372 -2.8905  0.0346
19943TIP3   OH281243   5.945   0.329  15.866 -0.0393 -0.1685 -0.6560
19943TIP3    H181244   5.961   0.389  15.939 -0.1599  0.9417 -1.5277
19943TIP3    H281245   5.933   0.243  15.907  0.0577  0.4171  0.6083
19944TIP3   OH281246   6.329   5.279  17.230  0.2889  0.5505  0.4095
19944TIP3    H181247   6.299   5.190  17.247 -2.3225  1.1838 -0.6685
19944TIP3    H281248   6.345   5.316  17.317 -0.8223 -0.2514  0.9708
19945TIP3   OH281249   5.806   5.310   3.611  0.7148  0.3968 -0.4841
19945TIP3    H181250   5.865   5.247   3.651  0.4427  0.5810  0.2022
19945TIP3    H281251   5.762   5.261   3.542  1.7138  0.2752 -1.0532
19946TIP3   OH281252   1.519   0.577   2.941  0.0328 -0.1855 -0.3745
19946TIP3    H181253   1.566   0.659   2.954  0.1022  0.0230 -1.8508
19946TIP3    H281254   1.571   0.530   2.876 -0.4629 -1.0330 -0.1692
19947TIP3   OH281255   0.686   0.548   3.370 -0.6652  0.2020  0.7368
19947TIP3    H181256   0.679   0.598   3.288 -0.3282 -0.1484  0.4951
19947TIP3    H281257   0.618   0.481   3.363  0.4730 -0.9055 -0.0132
19948TIP3   OH281258   2.955   2.773   2.079  0.5365 -0.5548  0.6224
19948TIP3    H181259   2.947   2.690   2.126  0.5376 -0.4294  0.8452
19948TIP3    H281260   2.874   2.819   2.098  0.9710 -0.0846  1.3177
19949TIP3   OH281261   3.694   6.724  17.017 -0.1671  0.4149 -0.9511
19949TIP3    H181262   3.764   6.701  16.956 -0.1787 -1.5243 -0.2447
19949TIP3    H281263   3.722   6.807  17.055  1.1713  0.2442 -1.5488
19950TIP3   OH281264   5.989   5.311  13.668  0.7295  0.3250 -0.4954
19950TIP3    H181265   5.987   5.404  13.649  0.6752  0.1158 -1.5960
19950TIP3    H281266   5.972   5.304  13.762 -0.6454  1.3465 -0.6561
19951TIP3   OH281267   6.104   4.084   6.520 -0.0059 -0.0890  0.9502
19951TIP3    H181268   6.135   4.173   6.507  0.3009 -0.3023  0.2013
19951TIP3    H281269   6.014   4.084   6.487  0.4283 -0.3761 -0.2499
19952TIP3   OH281270   5.372   4.093  16.873  0.5280  0.2684  0.3146
19952TIP3    H181271   5.356   4.186  16.856  0.8629  0.4226  0.8468
19952TIP3    H281272   5.335   4.078  16.960  0.3663 -0.1250  0.1792
19953TIP3   OH281273   1.477   1.402  13.458 -0.0822  0.6662 -0.2672
19953TIP3    H181274   1.519   1.365  13.380 -1.2954 -1.5207  0.0643
19953TIP3    H281275   1.534   1.376  13.531 -1.9822 -2.3941  0.1954
19954TIP3   OH281276   0.793   3.753  14.843  0.1825  0.3365  0.3639
19954TIP3    H181277   0.815   3.757  14.936 -2.3041  0.1534  1.0017
19954TIP3    H281278   0.703   3.722  14.842 -0.3681  1.9521 -2.0601
19955TIP3   OH281279   5.617   3.485   6.174  0.1457 -0.8610 -0.9096
19955TIP3    H181280   5.552   3.485   6.244 -0.6724 -1.4906 -1.6674
19955TIP3    H281281   5.624   3.394   6.147  0.4160 -0.6121 -1.6921
19956LIG      S81282   2.734   3.965  11.173  0.0546 -0.3921 -0.2680
19956LIG      O81283   2.407   3.675  11.934  0.2580 -0.1409 -0.1360
19956LIG     N181284   2.669   3.690  11.325 -0.9776  0.3106  0.6826
19956LIG     N281285   2.657   3.550  12.089 -0.2109  0.7653 -0.1291
19956LIG     N381286   2.368   3.454  11.920  0.4035  0.4160  0.2881
19956LIG     N481287   2.310   3.505  11.818  0.7152 -0.2171  0.6624
19956LIG     C181288   2.674   3.641  11.461  0.3588 -0.0070  0.6038
19956LIG     C281289   2.804   3.695  11.244  0.5926  0.1270  0.0059
19956LIG     C381290   2.561   3.788  11.289 -0.6283  0.4296  0.7947
19956LIG     C481291   2.728   3.750  11.563  0.3847  0.6199  0.5537
19956LIG     C581292   2.853   3.843  11.250 -0.2729 -0.3058  0.1963
19956LIG     C681293   2.611   3.934  11.302 -0.2936 -0.1350  0.4950
19956LIG     C781294   2.731   3.697  11.706  0.2567  0.3611 -0.1722
19956LIG     C881295   2.738   3.559  11.737 -0.2219 -0.1257  0.7978
19956LIG     C981296   2.725   3.786  11.808  1.0893  0.5491 -0.6606
19956LIG    C1081297   2.714   3.602  11.968  0.5808 -0.0663  0.5557
19956LIG    C1181298   2.517   3.561  12.108 -1.3774 -0.1163 -0.1973
19956LIG    C1281299   2.736   3.509  11.862  0.2130 -0.3130  0.1528
19956LIG    C1381300   2.723   3.737  11.943 -0.1424 -0.3438  0.6688
19956LIG    C1481301   2.427   3.555  11.985  1.0229  0.1373  0.2627
19956LIG    C1581302   2.499   3.695  12.193  0.1706 -0.3094  0.1823
19956LIG    C1681303   2.331   3.635  11.822  0.5071 -0.6533 -0.1698
19956LIG    C1781304   2.290   3.721  11.710  0.4552 -0.3747  0.7998
19956LIG    C1881305   2.328   3.862  11.717  0.5374  0.2957  0.7375
19956LIG    C1981306   2.247   3.672  11.592 -0.1645  0.4832  0.2121
19956LIG    C2081307   2.298   3.947  11.614  0.1810 -0.0831  0.4433
19956LIG    C2181308   2.212   3.760  11.483 -0.9153 -0.6145  0.5855
19956LIG    C2281309   2.255   3.893  11.496  0.3359  0.0754  0.4084
19956LIG     H181310   2.742   3.553  11.461  0.2751 -0.0817 -1.3295
19956LIG     H281311   2.571   3.603  11.479  0.4864 -2.2817 -2.9788
19956LIG     H381312   2.792   3.655  11.141  0.5340  0.4214 -0.1017
19956LIG     H481313   2.892   3.643  11.289 -0.8191 -1.3989  1.1052
19956LIG     H581314   2.481   3.769  11.364 -1.0773 -0.2187  0.1564
19956LIG     H681315   2.532   3.766  11.184 -0.4763  2.3013  0.3408
19956LIG     H781316   2.654   3.833  11.572 -0.7396 -0.4703  1.4224
19956LIG     H881317   2.828   3.790  11.536  2.0164 -2.0375  2.4781
19956LIG     H981318   2.878   3.867  11.355 -1.1913  0.9448  0.1423
19956LIG    H1081319   2.947   3.843  11.190  1.4294 -1.2152  2.7985
19956LIG    H1181320   2.521   3.999  11.296  0.8240  1.3501 -0.6889
19956LIG    H1281321   2.659   3.950  11.401 -0.8861  2.3109  0.4340
19956LIG    H1381322   2.751   3.496  11.650 -0.6976  0.0892  0.5679
19956LIG    H1481323   2.716   3.893  11.795  1.5495  1.0100  2.4517
19956LIG    H1581324   2.476   3.477  12.169  2.6019 -0.9079  1.5153
19956LIG    H1681325   2.741   3.403  11.884  2.2477  0.1691  2.2531
19956LIG    H1781326   2.748   3.805  12.022  0.9363 -1.9717  1.7740
19956LIG    H1881327   2.692   3.588  12.177 -3.7974 -1.4689  2.4028
19956LIG    H1981328   2.542   3.692  12.295  1.2070 -0.5564 -0.2617
19956LIG    H2081329   2.393   3.707  12.224 -0.2468  1.9280 -1.9369
19956LIG    H2181330   2.554   3.780  12.148 -3.1787  3.7456  3.3113
19956LIG    H2281331   2.362   3.905  11.810 -1.8222 -2.5816  3.0380
19956LIG    H2381332   2.229   3.566  11.577 -0.3882  0.6903 -1.0935
19956LIG    H2481333   2.317   4.053  11.625  1.2165 -0.1529 -0.6188
19956LIG    H2581334   2.181   3.711  11.392 -2.0658 -1.3269  1.3383
19956LIG    H2681335   2.241   3.960  11.413 -0.5375 -0.5169  0.0825
   6.78697   6.78697  17.23950
